/*--------------------------------*- C++ -*----------------------------------*\
| =========                 |                                                 |
| \\      /  F ield         | OpenFOAM: The Open Source CFD Toolbox           |
|  \\    /   O peration     | Version:  2312                                  |
|   \\  /    A nd           | Website:  www.openfoam.com                      |
|    \\/     M anipulation  |                                                 |
\*---------------------------------------------------------------------------*/
FoamFile
{
    version     2.0;
    format      ascii;
    arch        "LSB;label=32;scalar=64";
    class       surfaceScalarField;
    location    "0.033";
    object      phi;
}
// * * * * * * * * * * * * * * * * * * * * * * * * * * * * * * * * * * * * * //

dimensions      [0 3 -1 0 0 0 0];

oriented        oriented;

internalField   nonuniform List<scalar> 
62015
(
89.7378
0.17504
-89.9566
89.5115
0.171351
89.2777
0.167578
89.0366
0.163725
88.7881
0.159793
88.5323
0.155786
88.2692
0.151707
87.9988
0.147558
87.7209
0.143343
87.4356
0.139066
87.1428
0.134728
86.8424
0.130334
86.5342
0.125887
86.218
0.121389
85.8938
0.116846
85.5612
0.11226
85.2199
0.107634
84.8702
0.102974
84.5114
0.0982818
84.1401
0.0935604
83.7629
0.0888104
83.3885
0.0840557
82.9614
0.0792913
82.4961
0.0744207
82.3063
0.0696204
81.9192
0.0652289
79.9938
0.0599585
80.8755
0.0535064
87.7945
0.052818
71.2027
0.0521648
27.4981
0.023324
2.4701
0.00176586
0.0118765
6.24241e-06
6.52704e-06
2.93873e-09
6.96341e-09
2.57451e-12
4.88766e-12
1.43549e-15
3.63987e-15
7.95632e-19
2.32786e-18
3.37414e-22
1.32709e-21
9.58053e-26
6.22537e-25
0
2.07921e-28
-1.5138e-32
1.97528e-32
-3.17256e-36
-2.82639e-35
5.91806e-39
-1.65024e-38
4.91642e-42
2.01602e-42
-4.16766e-46
7.165e-45
-3.03288e-48
2.10962e-48
-1.32602e-51
-2.84886e-51
1.41099e-54
-2.48716e-54
1.75321e-57
8.00992e-58
-2.31111e-61
2.19074e-60
-1.69728e-63
3.49914e-64
-7.1341e-67
-1.76737e-66
1.35931e-69
-1.17055e-69
1.57276e-72
1.24695e-72
-6.81022e-76
1.90338e-75
-2.38367e-78
-4.9626e-79
-5.68285e-82
-2.62832e-81
2.98468e-84
-7.49704e-85
2.78647e-87
3.24949e-87
-2.77545e-90
2.93879e-90
-6.46459e-93
-3.29925e-93
1.65463e-97
-6.73969e-96
1.16991e-98
1.40611e-99
8.47286e-102
1.28343e-101
-1.62918e-104
5.90026e-105
-3.016e-107
-2.06631e-107
9.8265e-111
-2.64271e-110
7.4475e-113
2.36487e-113
4.18397e-116
7.49075e-116
-1.38632e-118
5.70972e-120
-2.28335e-121
-1.68754e-121
1.3605e-124
-1.54883e-124
7.25118e-127
2.8312e-127
3.50775e-130
6.48622e-130
-1.64862e-132
-1.44285e-133
-2.71563e-135
-1.896e-135
1.91332e-138
-1.47357e-138
1.02596e-140
5.66456e-144
3.93165e-141
86.9893
0.344595
-87.2114
86.7606
0.337297
86.5253
0.329838
86.2835
0.322222
86.0351
0.314456
85.7803
0.306545
85.5189
0.298495
85.2509
0.290311
84.9764
0.282
84.6952
0.273568
84.4072
0.265021
84.1124
0.256365
83.8107
0.247607
83.5018
0.238753
83.1856
0.22981
82.8618
0.220785
82.5303
0.211684
82.1913
0.202515
81.8437
0.193288
81.4845
0.184001
81.1227
0.174662
80.7611
0.165325
80.3386
0.155938
79.911
0.146334
79.7766
0.137039
79.2352
0.128408
77.2954
0.117314
79.2872
0.10539
85.144
0.107086
63.5548
0.0985267
21.0964
0.0348357
1.37466
0.00177631
0.00371438
3.53634e-06
2.03072e-06
1.74918e-09
2.02843e-09
1.41018e-12
1.37728e-12
7.79839e-16
9.88708e-16
4.17641e-19
6.15876e-19
1.74287e-22
3.44486e-22
4.88184e-26
1.6129e-25
0
5.60089e-29
-8.01785e-33
7.73631e-33
-2.27973e-36
-6.25297e-36
2.6378e-39
-4.92808e-39
2.83672e-42
-4.91598e-43
4.00912e-46
1.69454e-45
-1.42456e-48
1.17096e-48
-1.18986e-51
-2.76408e-52
2.65149e-55
-9.20857e-55
1.15303e-57
-3.5871e-58
5.53256e-61
5.34988e-61
-7.51138e-64
6.66546e-64
-1.12648e-66
-1.08393e-67
6.02132e-71
-7.96978e-70
1.44548e-72
-3.93887e-73
9.84297e-76
7.45871e-76
-1.30915e-78
1.0264e-78
-2.45797e-81
-3.75312e-82
1.89673e-85
-1.80341e-84
4.21968e-87
-6.43622e-88
2.97959e-90
2.55869e-90
-5.28734e-93
2.93505e-93
-9.929e-96
-2.55265e-96
2.23102e-99
-7.45168e-99
2.22351e-101
-5.26666e-103
1.43576e-104
1.49065e-104
-3.64479e-107
1.27695e-107
-6.55021e-110
-2.26838e-110
2.59387e-113
-4.77378e-113
1.84183e-115
1.33872e-116
1.11997e-118
1.27748e-118
-3.67597e-121
7.95342e-122
-6.71062e-124
-2.57898e-124
3.15968e-127
-4.52917e-127
2.23484e-129
2.69931e-130
1.51752e-132
1.54089e-132
-4.97638e-135
7.90341e-136
-1.03578e-137
-3.73753e-138
3.44736e-141
3.75033e-143
-6.43504e-141
84.3117
0.508761
-84.5361
84.0813
0.497935
83.8452
0.486875
83.6032
0.475591
83.3554
0.464089
83.1019
0.452377
82.8425
0.440464
82.5773
0.428359
82.3063
0.41607
82.0292
0.403606
81.7462
0.390975
81.457
0.378188
81.1616
0.365253
80.8598
0.35218
80.5514
0.338978
80.2361
0.325659
79.914
0.312229
79.5852
0.298703
79.2479
0.285092
78.9005
0.27139
78.5543
0.257624
78.2017
0.243871
77.7802
0.229975
77.4111
0.215799
77.3222
0.202415
76.5031
0.189424
74.7323
0.171685
78.3831
0.156895
81.3953
0.163809
53.2041
0.132032
13.8204
0.0332526
0.536797
0.000961769
0.000662141
9.16979e-07
4.85193e-07
6.1448e-10
4.07004e-10
4.13998e-13
3.03265e-13
2.50781e-16
2.10867e-16
1.29483e-19
1.34466e-19
5.51248e-23
7.56908e-23
1.5496e-26
3.60716e-26
0
1.2945e-29
-2.67092e-33
2.04565e-33
-8.68161e-37
-1.32705e-36
8.01497e-40
-1.17776e-39
9.77534e-43
-1.92834e-43
2.20552e-46
3.57672e-46
-4.3067e-49
2.95882e-49
-4.3792e-52
-1.43924e-53
3.5769e-57
-1.91233e-55
3.49835e-58
-1.18949e-58
2.62517e-61
6.34728e-62
-1.23809e-64
1.52058e-64
-3.77611e-67
6.1888e-68
-1.91462e-70
-1.12589e-70
2.97578e-73
-1.76967e-73
5.5044e-76
-1.25735e-77
9.76975e-80
2.51034e-79
-8.00991e-82
2.595e-82
-9.90181e-85
-1.88422e-85
4.88058e-88
-6.55507e-88
2.46502e-90
-2.4687e-91
1.49842e-93
1.10404e-93
-3.84478e-96
1.54161e-96
-7.30419e-99
-1.01291e-99
1.5979e-102
-4.44874e-102
1.93651e-104
-1.72265e-105
1.58795e-107
9.21806e-108
-3.35148e-110
1.29717e-110
-7.71813e-113
-1.14436e-113
9.59916e-117
-4.54063e-116
2.26216e-118
-1.33048e-119
2.19448e-121
1.13572e-121
-4.2128e-124
1.53468e-124
-1.13775e-126
-1.74268e-127
-1.51048e-131
-6.4594e-130
3.57057e-132
-1.63469e-133
4.34859e-135
1.85212e-135
-6.41831e-138
2.62903e-138
-2.27275e-140
-7.12187e-144
-3.03054e-141
81.7057
0.667642
-81.9315
81.4746
0.653373
81.2384
0.638805
80.997
0.623946
80.7506
0.608807
80.4989
0.5934
80.2422
0.577734
79.9802
0.561821
79.713
0.545671
79.4405
0.529296
79.1626
0.512709
78.8793
0.495918
78.5903
0.478939
78.2956
0.461782
77.995
0.444461
77.6882
0.426987
77.3753
0.409372
77.0564
0.391636
76.729
0.373786
76.3937
0.355817
76.0631
0.33779
75.7139
0.319771
75.297
0.301451
75.0111
0.282951
74.9105
0.265903
73.7261
0.247912
72.5535
0.223126
77.9188
0.210312
75.5031
0.220684
41.3061
0.144724
7.60853
0.0235426
0.145139
0.000327384
8.50235e-05
1.59107e-07
9.60773e-08
1.59458e-10
6.34892e-11
8.62104e-14
5.23567e-14
5.74182e-17
3.39396e-17
2.78622e-20
2.17793e-20
1.19805e-23
1.21321e-23
3.35221e-27
5.8494e-27
0
2.18194e-30
-6.10336e-34
4.07763e-34
-2.31208e-37
-1.90523e-37
1.57891e-40
-2.07889e-40
2.32992e-43
-5.57036e-44
7.95785e-47
5.11356e-47
-8.43454e-50
5.94691e-50
-1.16266e-52
1.07999e-53
-2.56889e-56
-3.08541e-56
7.54498e-59
-3.04448e-59
8.47119e-62
1.75186e-63
-2.3271e-66
2.85382e-65
-9.16301e-68
2.20402e-68
-8.08085e-71
-1.07946e-71
3.45139e-74
-3.50967e-74
1.39939e-76
-2.13944e-77
1.00843e-79
2.47139e-80
-9.78733e-83
6.06576e-83
-2.87852e-85
3.30793e-86
-1.92391e-88
-7.25141e-89
3.30587e-91
-1.65879e-91
8.94532e-94
-5.08482e-95
4.31891e-97
3.44452e-97
-1.7492e-99
5.64278e-100
-3.53727e-102
-2.42732e-103
3.44608e-106
-1.86149e-105
1.08455e-107
-1.4778e-108
1.2707e-110
3.75029e-111
-1.7504e-113
8.7071e-114
-6.17837e-116
-1.53806e-117
-2.07359e-119
-2.88885e-119
1.75919e-121
-2.82437e-122
2.89563e-124
6.08996e-125
-2.29047e-127
1.64432e-127
-1.29017e-129
-9.92002e-132
-8.69662e-133
-5.75107e-133
3.45449e-135
-6.69024e-136
7.77241e-138
1.20865e-138
-2.15861e-141
-3.2132e-143
3.95183e-141
79.1712
0.821354
-79.3974
78.9403
0.80373
78.7049
0.785745
78.465
0.767409
78.2205
0.748737
77.9715
0.729739
77.7179
0.71043
77.4597
0.690822
77.1968
0.670929
76.9292
0.650764
76.6569
0.630343
76.3796
0.609677
76.0973
0.588784
75.8099
0.567676
75.5171
0.54637
75.2188
0.524881
74.9152
0.503222
74.606
0.481418
74.2882
0.459471
73.966
0.437383
73.6494
0.41526
73.2979
0.393094
72.8995
0.370431
72.7114
0.347999
72.4962
0.327529
70.9692
0.303313
70.9889
0.272585
77.2242
0.268151
67.0367
0.270268
29.3846
0.133295
3.44621
0.0127219
0.0268919
7.28855e-05
1.07594e-05
2.59853e-08
1.55079e-08
3.16806e-11
8.92823e-12
1.5377e-14
7.84222e-15
1.07918e-17
4.99092e-18
5.19208e-21
3.31035e-21
2.30138e-24
1.90036e-24
6.628e-28
9.51982e-28
0
3.70579e-31
-1.29987e-34
7.5188e-35
-5.34183e-38
-3.01116e-38
3.10284e-41
-3.60635e-41
5.06767e-44
-1.08616e-44
1.97011e-47
7.96547e-48
-1.63357e-50
1.03139e-50
-2.55766e-53
2.62637e-54
-7.93419e-57
-4.55543e-57
1.4185e-59
-5.31259e-60
1.89743e-62
-7.5884e-64
3.33836e-66
3.92247e-66
-1.64289e-68
4.33267e-69
-1.98733e-71
1.27661e-73
-8.22985e-76
-4.86371e-75
2.49033e-77
-5.47847e-78
2.97142e-80
3.46489e-82
-1.35421e-84
8.48311e-84
-4.91571e-86
1.03872e-86
-6.46399e-89
-2.41264e-91
-3.64991e-93
-2.04911e-92
1.28762e-94
-3.32729e-95
2.33898e-97
-5.32228e-99
7.69747e-101
8.73746e-101
-5.82011e-103
1.66799e-103
-1.31661e-105
-1.95387e-107
-2.25274e-109
-6.07036e-109
4.42848e-111
-8.32721e-112
7.85775e-114
9.78901e-115
-4.58875e-117
4.37415e-117
-3.66223e-119
2.39327e-120
-3.61654e-122
-1.293e-122
8.87209e-125
-2.62703e-125
2.68715e-127
1.36591e-128
3.90981e-131
1.18743e-130
-1.00961e-132
1.07655e-133
-1.62755e-135
-3.18268e-136
1.70023e-138
-8.66151e-139
9.20114e-141
6.77816e-144
6.6817e-143
76.7076
0.970015
-76.9333
76.4777
0.949127
76.2439
0.927819
76.0061
0.906105
75.7643
0.884
75.5185
0.861519
75.2686
0.838675
75.0146
0.815486
74.7566
0.791967
74.4943
0.768132
74.2277
0.743999
73.9568
0.719584
73.6814
0.694905
73.4014
0.669978
73.1167
0.64482
72.827
0.61945
72.5327
0.593886
72.2327
0.568153
71.9248
0.542244
71.6167
0.516187
71.3106
0.490129
70.9536
0.46389
70.5963
0.437022
70.4964
0.411187
70.0382
0.387063
68.3628
0.355134
70.1515
0.32225
75.3395
0.331396
56.3017
0.30037
18.7452
0.102721
1.23254
0.00517369
0.00336819
1.07681e-05
1.55239e-06
4.68493e-09
1.98476e-09
4.88118e-12
1.24648e-12
2.63929e-15
1.0756e-15
1.79389e-18
7.23787e-19
9.1289e-22
4.86798e-22
4.07954e-25
2.85727e-25
1.19889e-28
1.45312e-28
0
5.79195e-32
-2.44707e-35
1.277e-35
-1.09469e-38
-4.08557e-39
5.05004e-42
-5.7611e-42
9.75645e-45
-2.12057e-45
4.59707e-48
1.06282e-48
-2.60192e-51
1.77878e-51
-5.27782e-54
6.42917e-55
-2.28873e-57
-6.88072e-58
2.51527e-60
-9.9283e-61
4.23888e-63
-2.40939e-64
1.29841e-66
6.5557e-67
-3.21922e-69
7.82306e-70
-4.45623e-72
6.15833e-74
-6.38145e-76
-7.35945e-76
4.69071e-78
-7.98567e-79
5.78327e-81
-6.00874e-83
5.38602e-85
8.44307e-85
-6.97612e-87
1.24555e-87
-1.00844e-89
7.93056e-91
-4.96813e-93
-7.79127e-94
8.07801e-96
-3.54594e-96
2.73529e-98
-5.87983e-99
4.5338e-101
-1.77014e-102
2.18952e-104
1.79966e-104
-1.35672e-106
4.63247e-107
-4.27047e-109
1.93513e-110
-3.13964e-112
-1.61491e-112
1.34291e-114
-3.76323e-115
4.01584e-117
5.30743e-119
1.12088e-120
1.72542e-120
-1.63925e-122
2.54175e-123
-3.29301e-125
-3.53519e-126
1.97298e-128
-1.66099e-128
1.82191e-130
-9.98719e-132
2.0742e-133
5.8103e-134
-4.94908e-136
1.33447e-136
-1.75865e-138
-5.47014e-140
-5.97895e-142
7.17721e-144
-6.86091e-142
74.3138
1.11375
-74.5383
74.0858
1.08969
73.8543
1.06515
73.6192
1.04016
73.3806
1.01472
73.1385
0.988864
72.8929
0.962597
72.6436
0.935938
72.3906
0.908907
72.134
0.881521
71.8735
0.853798
71.6092
0.825757
71.3409
0.797417
71.0685
0.768798
70.7917
0.73992
70.5107
0.7108
70.2257
0.681466
69.9347
0.651937
69.6372
0.6222
69.3437
0.592331
69.0428
0.562475
68.6825
0.5322
68.3938
0.501395
68.334
0.472719
67.5201
0.443926
66.1018
0.403432
69.9177
0.375569
71.2681
0.396674
44.1567
0.298216
10.3756
0.0649298
0.32806
0.00152241
0.000307181
1.15633e-06
2.65612e-07
9.36487e-10
2.28138e-10
6.5992e-13
1.85454e-13
4.58006e-16
1.40992e-16
2.74462e-19
1.00795e-19
1.48212e-22
6.5782e-23
6.44609e-26
3.89329e-26
1.91601e-29
2.00825e-29
0
8.3071e-33
-4.12625e-36
2.02759e-36
-2.03326e-39
-4.8596e-40
7.05325e-43
-8.49713e-43
1.68443e-45
-3.67961e-46
9.27825e-49
1.18859e-49
-3.35092e-52
2.70851e-52
-9.36946e-55
1.32683e-55
-5.43661e-58
-7.66643e-59
3.199e-61
-1.64247e-61
8.10947e-64
-7.86719e-65
4.55021e-67
8.21951e-68
-4.51562e-70
1.57717e-70
-1.01237e-72
5.99901e-74
-4.799e-76
-1.28315e-76
8.69564e-79
-1.9862e-79
1.60977e-81
-2.58791e-83
4.32711e-85
2.31978e-85
-1.93924e-87
2.38165e-88
-2.60945e-90
-8.3184e-92
2.36705e-94
-2.98325e-94
3.60598e-96
-1.48474e-98
2.1099e-99
2.00194e-100
-2.40688e-102
-7.88676e-103
2.67658e-105
-2.06628e-105
1.91355e-107
1.44542e-108
-2.51511e-112
1.35563e-110
-1.28011e-112
1.85883e-113
-2.52435e-115
-3.11952e-116
2.08182e-118
-1.51567e-118
1.77529e-120
-1.30535e-121
2.33702e-123
5.16219e-124
-4.92487e-126
1.59193e-126
-2.15351e-128
2.42984e-130
-1.40977e-131
-7.59472e-132
8.66291e-134
-1.44483e-134
2.31115e-136
1.34111e-137
-3.24028e-140
9.63602e-140
-1.26275e-141
-2.11785e-144
9.82734e-143
71.9889
1.25267
-72.2113
71.7633
1.22553
71.5346
1.19786
71.3029
1.16969
71.068
1.14103
70.8301
1.1119
70.589
1.08232
70.3447
1.0523
70.0972
1.02187
69.8465
0.99105
69.5923
0.959856
69.3348
0.92831
69.0737
0.896433
68.8089
0.864249
68.5403
0.831775
68.268
0.799037
67.992
0.766064
67.7098
0.732865
67.4237
0.699433
67.144
0.665915
66.842
0.632355
66.4894
0.598075
66.292
0.563813
66.1774
0.532616
64.9749
0.497249
64.4171
0.449488
69.781
0.436418
64.3643
0.453062
31.7614
0.258346
4.76134
0.0325891
0.0603789
0.000306379
2.61029e-05
1.15743e-07
4.11616e-08
1.62079e-10
2.4458e-11
8.1761e-14
2.4392e-14
6.8619e-17
1.62153e-17
3.65136e-20
1.22735e-20
2.08485e-23
7.95038e-24
9.02724e-27
4.87389e-27
2.77147e-30
2.60275e-30
0
1.12001e-33
-6.37578e-37
2.93445e-37
-3.36318e-40
-5.32555e-41
8.74673e-44
-1.14086e-43
2.58551e-46
-5.63631e-47
1.62752e-49
9.85795e-51
-3.0252e-53
3.65016e-53
-1.44289e-55
2.30966e-56
-1.07472e-58
-5.65399e-60
2.50257e-62
-2.28444e-62
1.28167e-64
-1.64658e-65
1.06142e-67
5.50372e-69
-3.09696e-71
2.30574e-71
-1.66456e-73
1.89711e-74
-1.56448e-76
-7.84697e-78
5.08806e-80
-3.63749e-80
3.16514e-82
-3.18311e-83
3.2395e-85
2.27658e-86
-1.67335e-88
8.33028e-89
-8.49363e-91
5.07169e-92
-7.05267e-94
-1.06804e-94
9.56072e-97
-2.01583e-97
2.55233e-99
4.95419e-101
4.28122e-103
4.80128e-103
-5.49298e-105
1.80928e-106
-5.2443e-108
-1.31378e-108
1.24663e-110
-1.69876e-111
2.82159e-113
3.52106e-114
-2.44514e-116
1.2232e-116
-1.64953e-118
2.63648e-120
-1.30659e-121
-5.53618e-122
6.4718e-124
-1.1526e-124
1.91285e-126
7.14776e-128
7.83992e-131
7.61274e-130
-1.06935e-131
1.09209e-132
-2.17152e-134
-2.12197e-135
1.84514e-137
-1.02763e-137
1.62852e-139
-7.84828e-141
2.17762e-142
-5.15003e-145
4.329e-143
69.7315
1.38692
-69.9514
69.5089
1.35679
69.2836
1.32609
69.0556
1.29483
68.8249
1.26305
68.5914
1.23075
68.3553
1.19796
68.1163
1.16469
67.8745
1.13098
67.6299
1.09684
67.3822
1.06229
67.1315
1.02736
66.8777
0.992063
66.6207
0.956434
66.3602
0.92049
66.0966
0.88426
65.8293
0.847774
65.5559
0.811027
65.2825
0.774043
65.0136
0.73703
64.7058
0.699799
64.382
0.661623
64.2784
0.624598
63.9756
0.59052
62.5124
0.54621
63.4944
0.496483
68.7878
0.506667
54.6771
0.481482
20.3853
0.189599
1.70621
0.0124068
0.00716175
3.98783e-05
2.62161e-06
1.38519e-08
4.6637e-09
2.05443e-11
2.50805e-12
9.7785e-15
2.71539e-15
8.67236e-18
1.8025e-18
4.65096e-21
1.42931e-21
2.74703e-24
9.44109e-25
1.20857e-27
5.85367e-28
3.73854e-31
3.12937e-31
0
1.35596e-34
-8.69935e-38
3.75464e-38
-4.86781e-41
-4.45197e-42
8.0791e-45
-1.34568e-44
3.4443e-47
-7.8048e-48
2.53115e-50
2.0857e-52
-3.72316e-55
4.30931e-54
-1.90764e-56
3.46879e-57
-1.79944e-59
6.20579e-62
-9.83395e-64
-2.66199e-63
1.65705e-65
-2.7049e-66
1.93552e-68
-2.65027e-70
3.13502e-72
2.60243e-72
-2.06722e-74
3.37422e-75
-3.06649e-77
8.64275e-79
-1.05783e-80
-3.63447e-81
3.44378e-83
-6.55166e-84
7.08445e-86
-3.39321e-87
4.46312e-89
8.02336e-90
-8.34982e-92
2.04097e-92
-2.48852e-94
1.14735e-95
-1.85328e-97
-3.69034e-98
4.07786e-100
-8.1919e-101
1.14666e-102
2.09087e-106
3.75631e-106
2.42228e-106
-3.07248e-108
2.76396e-109
-5.08068e-111
-4.86957e-112
4.29372e-114
-1.52951e-114
2.37963e-116
6.30077e-120
1.32406e-119
6.27574e-120
-8.37321e-122
9.16515e-123
-1.86709e-124
-1.4448e-125
1.05799e-127
-7.08379e-128
1.16855e-129
-5.90066e-131
1.6604e-132
2.70122e-133
-3.37299e-135
8.96447e-136
-1.6946e-137
2.96406e-139
-1.55744e-140
-4.81091e-141
7.20491e-143
2.55602e-145
-1.21497e-143
67.5403
1.5166
-67.7571
67.3211
1.48358
67.0996
1.44994
66.8757
1.41571
66.6495
1.3809
66.421
1.34553
66.19
1.30964
65.9566
1.27323
65.7207
1.23635
65.4822
1.19899
65.2412
1.16121
64.9975
1.123
64.7511
1.08441
64.5017
1.04546
64.2494
1.00617
63.9944
0.966568
63.7354
0.92669
63.4714
0.886514
63.2112
0.84613
62.9481
0.805748
62.6345
0.764822
62.3684
0.723055
62.3224
0.684022
61.6954
0.645533
60.3329
0.590805
63.3118
0.54963
65.7313
0.581536
43.0104
0.461115
11.216
0.113686
0.442257
0.00336932
0.000548672
3.39074e-06
3.78557e-07
2.2644e-09
4.24715e-10
2.08361e-12
3.10161e-13
1.3533e-15
2.8316e-16
9.99574e-19
2.05118e-19
5.85653e-22
1.51285e-22
3.21638e-25
9.85761e-26
1.40423e-28
5.96054e-29
4.25818e-32
3.2032e-32
0
1.44193e-35
-1.0355e-38
4.39555e-39
-6.32102e-42
-2.2582e-43
4.5193e-46
-1.42019e-45
4.02937e-48
-9.36578e-49
3.35658e-51
-8.91558e-53
4.43292e-55
4.17961e-55
-2.03279e-57
4.2943e-58
-2.46179e-60
1.17606e-61
-8.35947e-64
-2.29261e-64
1.5416e-66
-3.60091e-67
2.81243e-69
-1.78976e-70
1.66779e-72
1.93548e-73
-1.57065e-75
4.68179e-76
-4.59464e-78
3.5696e-79
-4.12537e-81
-1.89276e-82
1.54983e-84
-8.31093e-85
9.75271e-87
-9.68923e-88
1.30792e-89
-9.4932e-92
2.90708e-93
1.91378e-93
-2.5198e-95
4.1709e-96
-6.07326e-98
2.89227e-99
-5.03648e-101
-8.53627e-102
1.11485e-103
-2.67374e-104
4.15869e-106
-1.43133e-107
3.34292e-109
7.93873e-110
-1.0899e-111
1.76474e-112
-3.15447e-114
-5.72106e-116
-4.55866e-118
-8.01279e-118
1.27031e-119
-9.17847e-121
2.16188e-122
2.13097e-123
-2.37255e-125
7.50452e-126
-1.41746e-127
2.3862e-129
-1.28091e-130
-3.30228e-131
5.03858e-133
-7.57229e-134
1.69569e-135
2.66301e-137
6.32196e-139
4.95795e-139
-8.86724e-141
9.53635e-142
-2.41628e-143
1.67126e-147
-9.38854e-145
65.414
1.64186
-65.6273
65.1987
1.60604
64.9813
1.56956
64.7619
1.53243
64.5404
1.4947
64.3169
1.45637
64.0913
1.41748
63.8636
1.37804
63.6338
1.33809
63.4017
1.29764
63.1674
1.25672
62.9307
1.21536
62.6916
1.17359
62.4499
1.13143
62.2058
1.0889
61.9592
1.04606
61.7082
1.0029
61.4545
0.959417
61.2071
0.915795
60.9432
0.872107
60.6331
0.82746
60.4518
0.782723
60.3733
0.742073
59.3562
0.696294
58.7062
0.632987
63.4129
0.614847
59.6587
0.643973
30.6783
0.38366
5.00533
0.0532173
0.0755218
0.000603532
3.28483e-05
2.27707e-07
5.55186e-08
3.54478e-10
3.28694e-11
1.77918e-13
3.54322e-14
1.68849e-16
2.33876e-17
9.16953e-20
1.90664e-20
6.07366e-23
1.28445e-23
3.06371e-26
8.8269e-27
1.40625e-29
5.5014e-30
4.35975e-33
3.06837e-33
0
1.40588e-36
-1.10216e-39
4.34065e-40
-6.83016e-43
-7.06339e-45
8.98122e-48
-1.23259e-46
3.81345e-49
-9.16589e-50
3.61084e-52
-2.27401e-53
1.13483e-55
2.90923e-56
-1.52288e-58
4.36843e-59
-2.70953e-61
2.43341e-62
-1.78806e-64
-9.79968e-66
6.12763e-68
-3.53522e-68
2.94541e-70
-3.49969e-71
3.40163e-73
-3.88975e-75
7.39195e-77
4.34082e-77
-4.41914e-79
6.99718e-80
-8.34738e-82
3.32502e-83
-5.13708e-85
-7.18999e-86
8.20104e-88
-1.71515e-88
2.41951e-90
-1.36637e-91
2.36142e-93
9.70524e-95
-1.02303e-96
4.40028e-97
-7.15758e-99
7.3376e-100
-1.31381e-101
6.2149e-103
-1.18036e-104
-1.34226e-105
2.12688e-107
-6.93895e-108
1.20836e-109
-9.72125e-111
1.95164e-112
1.50604e-113
-2.00044e-115
7.77761e-116
-1.43738e-117
6.54636e-119
-1.75264e-120
-2.68592e-121
4.11031e-123
-7.77064e-124
1.64395e-125
9.98272e-129
8.55147e-129
3.92218e-129
-7.03949e-131
6.99442e-132
-1.79109e-133
-7.45645e-135
3.32949e-137
-5.28937e-137
1.08839e-138
-6.99429e-140
2.18984e-141
1.56169e-142
-1.67911e-144
-1.82942e-146
8.07178e-145
63.3512
1.76282
-63.5607
63.14
1.72428
62.927
1.68505
62.7123
1.64514
62.4959
1.60458
62.2776
1.56339
62.0576
1.5216
61.8358
1.47923
61.6121
1.43632
61.3864
1.39288
61.1588
1.34894
60.9292
1.30454
60.6974
1.2597
60.4634
1.21444
60.2274
1.1688
59.9889
1.12282
59.7459
1.07649
59.5036
1.02984
59.2663
0.983127
58.9961
0.936107
58.7106
0.887839
58.6214
0.841068
58.3708
0.798129
57.0698
0.741574
57.8762
0.677757
62.7561
0.694571
50.4379
0.663682
19.2031
0.266185
1.68292
0.0183323
0.00771563
6.55194e-05
2.11338e-06
1.73082e-08
5.41634e-09
3.7344e-11
2.12646e-12
1.32581e-14
3.18997e-15
1.67075e-17
1.78247e-18
7.82957e-21
1.73448e-21
6.02318e-24
1.13907e-24
2.93847e-27
7.95206e-28
1.35597e-30
4.65061e-31
3.94611e-34
2.39256e-34
0
1.03276e-37
-8.82404e-41
3.34504e-41
-5.74858e-44
2.61764e-45
-6.89437e-48
-7.63979e-48
2.56907e-50
-7.41636e-51
3.11171e-53
-3.11329e-54
1.61884e-56
9.57807e-58
-4.53586e-60
3.00962e-60
-1.95847e-62
2.98711e-63
-2.33314e-65
1.16443e-66
-1.17292e-68
-1.82644e-69
1.49783e-71
-4.24606e-72
4.30014e-74
-3.74308e-75
4.49519e-77
8.63454e-79
-3.41512e-81
7.74619e-81
-9.44628e-83
1.11396e-83
-1.59268e-85
3.23073e-87
-7.20408e-89
-1.81143e-89
2.47908e-91
-3.75596e-92
6.21616e-94
-2.18371e-95
4.88586e-97
4.65864e-98
-6.64487e-100
1.18863e-100
-2.29287e-102
1.11758e-103
-2.71373e-105
4.37552e-107
-1.21982e-108
-1.22126e-109
3.25337e-111
-1.19599e-111
2.43808e-113
-3.78052e-114
7.67494e-116
-1.47109e-117
4.8005e-119
2.27525e-119
-4.31927e-121
5.81818e-122
-1.33178e-123
-2.12389e-125
-1.47756e-127
-3.83965e-127
7.88559e-129
-6.14452e-130
1.70762e-131
1.01842e-132
-1.20606e-134
5.5357e-135
-1.27237e-136
5.3734e-138
-2.00644e-139
-2.11582e-140
3.32075e-142
-7.98978e-143
2.04235e-144
2.85426e-147
-5.72248e-146
61.3505
1.87959
-61.5558
61.1436
1.83844
60.9353
1.79655
60.7255
1.75394
60.5143
1.71065
60.3015
1.6667
60.0871
1.62212
59.8712
1.57692
59.6537
1.53115
59.4345
1.48482
59.2137
1.43798
58.9911
1.39063
58.7666
1.34283
58.5402
1.29458
58.3122
1.24595
58.0813
1.19694
57.8468
1.14754
57.6167
1.09787
57.3843
1.04818
57.1075
0.997733
56.8774
0.946259
56.8439
0.898422
56.273
0.850726
55.0645
0.781615
57.8503
0.733202
59.9126
0.779704
38.9423
0.609472
10.0369
0.146866
0.387371
0.00429744
0.000456069
4.16639e-06
2.75678e-07
2.50962e-09
3.82749e-10
2.83008e-12
2.20936e-13
1.50621e-15
2.58779e-16
1.43427e-18
1.55075e-19
7.27785e-22
1.28126e-22
4.72902e-25
7.26052e-26
2.03261e-28
4.35369e-29
8.17265e-32
2.31303e-32
2.18758e-35
1.21586e-35
0
5.83121e-39
-5.31295e-42
2.07915e-42
-3.67204e-45
2.12949e-46
-5.83043e-49
-3.26408e-49
1.05441e-51
-3.06198e-52
1.30833e-54
-2.29021e-55
1.29214e-57
-1.36743e-58
9.87082e-61
4.71331e-62
-2.12602e-64
2.39277e-64
-1.90769e-66
2.82849e-67
-2.72922e-69
1.04531e-70
-1.39154e-72
-2.49402e-73
2.45626e-75
-5.76131e-76
7.00258e-78
-5.09582e-79
7.37411e-81
2.35723e-82
-1.91705e-84
1.42292e-84
-2.03059e-86
2.0114e-87
-3.3737e-89
4.09866e-91
-1.3318e-92
-4.19732e-93
6.61646e-95
-8.9675e-96
1.70248e-97
-5.1134e-99
1.36139e-100
1.56211e-101
-2.54089e-103
3.94455e-104
-8.52988e-106
2.11698e-107
-7.39143e-109
-4.71005e-110
7.47864e-112
-4.57252e-113
1.69645e-114
-3.20851e-117
1.51499e-117
-7.47086e-118
1.56319e-119
-2.48573e-120
5.48507e-122
1.71863e-123
-2.01062e-125
2.55208e-125
-5.69777e-127
4.30285e-128
-1.21789e-129
-9.06278e-131
1.47628e-132
-4.86585e-133
1.20964e-134
-4.28914e-136
1.71469e-137
2.26997e-138
-4.33645e-140
7.82985e-141
-2.18189e-142
3.08893e-144
-2.33192e-145
9.26795e-148
-4.46942e-146
59.4103
1.99231
-59.6113
59.2081
1.94863
59.0046
1.90417
58.7999
1.85897
58.5939
1.81304
58.3867
1.76642
58.1781
1.71914
57.9682
1.67122
57.757
1.62269
57.5443
1.57358
57.3302
1.52392
57.1145
1.47375
56.8972
1.42309
56.6784
1.37197
56.4581
1.32044
56.2345
1.2685
56.0096
1.21616
55.7911
1.16364
55.5566
1.11097
55.2837
1.05702
55.1374
1.00323
55.0605
0.954597
54.1039
0.897785
53.6585
0.820039
58.0882
0.807676
53.7487
0.840636
26.7341
0.475272
4.08224
0.0607914
0.054215
0.000619031
1.67693e-05
1.65673e-07
3.84193e-08
3.61146e-10
1.71598e-11
1.34268e-13
2.1297e-14
1.56169e-16
1.08169e-17
6.49802e-20
8.79176e-21
4.67482e-23
4.99019e-24
2.06678e-26
3.58418e-27
1.11541e-29
2.37558e-30
4.67191e-33
1.43067e-33
1.33577e-36
6.33297e-37
0
1.48038e-40
-1.1043e-43
-8.32131e-45
3.1885e-47
5.5728e-48
-1.9932e-50
2.65991e-50
-1.1299e-52
9.61011e-54
-6.03376e-56
-1.37121e-56
7.00717e-59
-2.13534e-59
1.5335e-61
-1.5606e-62
1.43545e-64
1.70567e-66
1.55095e-69
2.60018e-68
-2.55333e-70
3.68005e-71
-4.21802e-73
1.3824e-74
-2.16239e-76
-3.87673e-77
4.4372e-79
-8.87828e-80
1.25433e-81
-8.10993e-83
1.38752e-84
4.24393e-86
-3.65589e-88
2.69597e-88
-4.39853e-90
4.15925e-91
-8.02229e-93
1.15381e-94
-3.96838e-96
-9.41146e-97
1.65307e-98
-2.3252e-99
4.96832e-101
-1.80923e-102
5.09661e-104
4.25186e-105
-7.30458e-107
1.44181e-107
-3.3759e-109
1.04643e-110
-3.64899e-112
-3.05546e-113
5.43277e-115
-6.08217e-116
1.73371e-117
6.21451e-119
-3.36697e-121
1.64802e-121
-3.92759e-123
-8.13583e-124
1.57473e-125
-2.58475e-126
6.5655e-128
3.91485e-129
-6.407e-131
3.19314e-131
-8.1355e-133
3.58124e-134
-1.32708e-135
-1.76944e-136
3.74598e-138
-6.77717e-139
1.98401e-140
-2.36736e-142
1.94505e-143
4.48485e-144
-1.04809e-145
-4.24251e-148
1.28398e-146
57.5294
2.10109
-57.7257
57.3319
2.05497
57.1334
2.00804
56.9339
1.96032
56.7333
1.91186
56.5317
1.86267
56.3289
1.81278
56.1251
1.76223
55.92
1.71104
55.7138
1.65925
55.5064
1.60689
55.2976
1.55398
55.0875
1.50057
54.8762
1.44668
54.6633
1.39236
54.447
1.33759
54.2328
1.28243
54.0227
1.2272
53.7807
1.17144
53.536
1.11417
53.4765
1.05934
53.202
1.00837
52.0069
0.93784
53.1242
0.865384
57.3058
0.9016
44.2063
0.829298
15.6298
0.29854
1.17419
0.0174927
0.00407602
4.87597e-05
4.49644e-07
5.80822e-09
2.99043e-09
2.97687e-11
2.24189e-13
2.22072e-15
1.65986e-15
1.29784e-17
3.51525e-19
2.2193e-21
8.00932e-22
4.30181e-24
3.16912e-25
1.22336e-27
2.31748e-28
6.707e-31
2.9255e-32
2.83737e-35
-5.10724e-35
-6.03727e-38
-6.01957e-38
0
-3.19968e-41
3.4629e-44
-7.53889e-45
1.8213e-47
1.21406e-48
-2.20554e-51
2.3701e-51
-1.09865e-53
2.63998e-54
-1.56278e-56
1.51078e-57
-1.0034e-59
-1.23999e-60
9.02321e-63
-2.78163e-63
2.33774e-65
-1.73091e-66
1.8104e-68
5.46694e-70
-2.59156e-72
2.95293e-72
-3.30464e-74
4.61755e-75
-6.23885e-77
2.74585e-78
-4.77927e-80
-4.97115e-81
6.14171e-83
-1.51102e-83
2.42355e-85
-1.68166e-86
3.26991e-88
4.49153e-90
9.92315e-94
5.38089e-92
-9.78108e-94
9.91338e-95
-2.15259e-96
5.04972e-98
-1.60204e-99
-2.03793e-100
3.81286e-102
-6.39269e-103
1.51064e-104
-7.42102e-106
2.16157e-107
8.41045e-109
-1.23024e-110
5.09513e-111
-1.27065e-112
7.01955e-114
-2.24415e-115
-9.36427e-117
1.36071e-118
-4.53388e-119
1.23332e-120
-1.33202e-122
1.03719e-123
2.07196e-124
-4.73723e-126
1.83889e-127
-7.6815e-129
-1.50445e-129
3.42056e-131
-3.47884e-132
1.10841e-133
8.31452e-135
-1.60293e-136
4.89382e-137
-1.44155e-138
3.29564e-140
-1.83382e-141
-3.50824e-142
8.74396e-144
-1.13286e-144
3.89436e-146
2.62656e-149
1.08168e-148
55.7061
2.20606
-55.8977
55.5135
2.15758
55.3201
2.10826
55.1259
2.05813
54.9308
2.00721
54.7348
1.95554
54.5379
1.90315
54.34
1.85006
54.1412
1.79632
53.9415
1.74194
53.7406
1.68697
53.5387
1.63143
53.3357
1.57536
53.1318
1.51881
52.9257
1.46179
52.7174
1.40429
52.5145
1.34648
52.3067
1.28859
52.0591
1.22956
51.8761
1.16966
51.851
1.11485
51.23
1.05725
50.2729
0.972517
53.3791
0.93009
53.8223
0.993064
32.4853
0.707363
7.27806
0.142122
0.210662
0.0031546
0.000149762
1.86894e-06
1.00158e-07
1.29537e-09
1.48343e-10
1.50895e-12
3.86342e-14
3.87246e-16
9.37998e-17
7.34299e-19
3.29401e-23
-4.80599e-24
1.34097e-23
7.44267e-26
-2.5342e-26
-1.13582e-28
-1.88603e-29
-6.14275e-32
-1.48093e-32
-3.28117e-35
-5.64756e-36
-6.67898e-39
-1.23458e-39
0
-7.00081e-43
1.14588e-45
-9.99504e-46
2.34158e-48
-4.80498e-49
1.45381e-51
2.17688e-52
-9.74462e-55
3.01739e-55
-1.55059e-57
6.95844e-59
-5.11159e-61
1.17645e-62
-2.83761e-64
-3.92016e-67
-1.03813e-67
-1.73078e-67
1.75636e-69
-2.76133e-70
3.3121e-72
-6.88955e-74
1.42558e-75
3.45353e-76
-4.17583e-78
7.29681e-79
-1.12992e-80
6.78653e-82
-1.29576e-83
-4.85682e-85
5.15224e-87
-2.78509e-87
4.98237e-89
-4.18838e-90
8.95362e-92
-6.46815e-94
3.64981e-95
1.10365e-95
-2.14947e-97
2.61126e-98
-6.23764e-100
2.23905e-101
-6.96876e-103
-3.88653e-104
6.82266e-106
-1.79035e-106
4.5871e-108
-3.01771e-109
9.22325e-111
1.39218e-113
3.04022e-114
1.56606e-114
-4.05961e-116
3.92449e-117
-1.24122e-118
3.94082e-121
-6.73949e-122
-2.15797e-122
5.77232e-124
-4.12668e-125
1.49307e-126
6.68451e-128
-1.07164e-129
3.60595e-130
-1.11413e-131
-3.56721e-134
-5.89045e-135
-3.07216e-135
8.71225e-137
-4.79022e-138
1.99044e-139
1.9812e-140
-4.74281e-142
8.88362e-143
-3.07607e-144
1.96265e-146
-2.81765e-147
2.31813e-149
-7.91046e-148
53.939
2.30734
-54.1258
53.7515
2.25659
53.5632
2.20497
53.3743
2.1525
53.1847
2.09922
52.9943
2.04516
52.8033
1.99035
52.6114
1.93482
52.4188
1.87861
52.2254
1.82174
52.0312
1.76426
51.8359
1.70618
51.64
1.64756
51.4431
1.58844
51.2436
1.52881
51.0445
1.46869
50.8516
1.4084
50.6388
1.34776
50.4012
1.28541
50.3048
1.22426
50.1876
1.16897
49.2045
1.09837
49.2791
1.00957
53.566
1.02329
46.5741
1.02699
20.5384
0.490701
2.45247
0.0474982
0.0201887
0.000309964
8.84881e-08
-1.68969e-09
1.29821e-08
1.69834e-10
-1.00309e-12
-1.61204e-14
3.63021e-15
4.16253e-17
-1.82289e-18
-1.77043e-20
-6.71113e-22
-3.09735e-24
-4.00636e-25
-3.49536e-27
5.00024e-28
1.77558e-30
9.15534e-31
2.49654e-33
4.62972e-34
7.40037e-37
-1.64956e-37
-2.66791e-40
-4.44738e-40
0
-2.79514e-43
2.92647e-46
-2.05719e-47
1.52619e-50
5.38615e-50
-1.82401e-52
-4.35394e-54
3.94783e-56
-2.85088e-56
1.77028e-58
4.65394e-60
-2.10912e-62
2.2137e-62
-1.81729e-64
1.08126e-65
-1.35922e-67
1.18972e-69
-4.99245e-71
-1.45356e-71
1.77978e-73
-4.20502e-74
5.97272e-76
-3.43682e-77
5.82938e-79
3.86823e-80
-4.76122e-82
1.33709e-82
-2.26359e-84
1.64744e-85
-3.42614e-87
-2.57277e-90
-8.73294e-91
-4.98984e-91
9.56296e-93
-1.08736e-93
2.52815e-95
-7.41268e-97
2.38403e-98
2.02866e-99
-3.85166e-101
7.23742e-102
-1.85628e-103
9.65127e-105
-3.06073e-106
-3.96663e-108