/*--------------------------------*- C++ -*----------------------------------*\
| =========                 |                                                 |
| \\      /  F ield         | OpenFOAM: The Open Source CFD Toolbox           |
|  \\    /   O peration     | Version:  2312                                  |
|   \\  /    A nd           | Website:  www.openfoam.com                      |
|    \\/     M anipulation  |                                                 |
\*---------------------------------------------------------------------------*/
FoamFile
{
    version     2.0;
    format      ascii;
    arch        "LSB;label=32;scalar=64";
    class       volVectorField;
    location    "2.3";
    object      flux;
}
// * * * * * * * * * * * * * * * * * * * * * * * * * * * * * * * * * * * * * //

dimensions      [0 1 -1 1 0 0 0];

internalField   nonuniform List<vector> 
100
(
(-3.38762 0 0)
(-3.48774 0 0)
(-3.57238 0 0)
(-3.64238 0 0)
(-3.6986 0 0)
(-3.74182 0 0)
(-3.77285 0 0)
(-3.79244 0 0)
(-3.80134 0 0)
(-3.80025 0 0)
(-3.78987 0 0)
(-3.77086 0 0)
(-3.74385 0 0)
(-3.70948 0 0)
(-3.66832 0 0)
(-3.62095 0 0)
(-3.56792 0 0)
(-3.50973 0 0)
(-3.4469 0 0)
(-3.3799 0 0)
(-3.30917 0 0)
(-3.23516 0 0)
(-3.15827 0 0)
(-3.07889 0 0)
(-2.9974 0 0)
(-2.91413 0 0)
(-2.82943 0 0)
(-2.74359 0 0)
(-2.65692 0 0)
(-2.5697 0 0)
(-2.48217 0 0)
(-2.39457 0 0)
(-2.30715 0 0)
(-2.22009 0 0)
(-2.13361 0 0)
(-2.04787 0 0)
(-1.96305 0 0)
(-1.8793 0 0)
(-1.79676 0 0)
(-1.71555 0 0)
(-1.6358 0 0)
(-1.5576 0 0)
(-1.48106 0 0)
(-1.40625 0 0)
(-1.33326 0 0)
(-1.26214 0 0)
(-1.19296 0 0)
(-1.12576 0 0)
(-1.06058 0 0)
(-0.997462 0 0)
(-0.936421 0 0)
(-0.87748 0 0)
(-0.820653 0 0)
(-0.765947 0 0)
(-0.713363 0 0)
(-0.662899 0 0)
(-0.614546 0 0)
(-0.568291 0 0)
(-0.524117 0 0)
(-0.482005 0 0)
(-0.441929 0 0)
(-0.403861 0 0)
(-0.367773 0 0)
(-0.333628 0 0)
(-0.301393 0 0)
(-0.271028 0 0)
(-0.242493 0 0)
(-0.215745 0 0)
(-0.19074 0 0)
(-0.167432 0 0)
(-0.145775 0 0)
(-0.125719 0 0)
(-0.107215 0 0)
(-0.0902128 0 0)
(-0.0746602 0 0)
(-0.0605052 0 0)
(-0.047695 0 0)
(-0.0361761 0 0)
(-0.0258947 0 0)
(-0.0167965 0 0)
(-0.00882691 0 0)
(-0.00193112 0 0)
(0.00394592 0 0)
(0.00885935 0 0)
(0.0128644 0 0)
(0.0160165 0 0)
(0.0183709 0 0)
(0.019983 0 0)
(0.0209081 0 0)
(0.0212015 0 0)
(0.0209183 0 0)
(0.0201139 0 0)
(0.0188433 0 0)
(0.0171616 0 0)
(0.0151237 0 0)
(0.0127845 0 0)
(0.0101989 0 0)
(0.00742175 0 0)
(0.00450777 0 0)
(0.00151171 0 0)
)
;

boundaryField
{
    movingWall
    {
        type            calculated;
        value           uniform (-3.33358 0 0);
    }
    fixedWalls
    {
        type            calculated;
        value           nonuniform List<vector> 
201
(
(-3.38762 0 0)
(-3.48774 0 0)
(-3.57238 0 0)
(-3.64238 0 0)
(-3.6986 0 0)
(-3.74182 0 0)
(-3.77285 0 0)
(-3.79244 0 0)
(-3.80134 0 0)
(-3.80025 0 0)
(-3.78987 0 0)
(-3.77086 0 0)
(-3.74385 0 0)
(-3.70948 0 0)
(-3.66832 0 0)
(-3.62095 0 0)
(-3.56792 0 0)
(-3.50973 0 0)
(-3.4469 0 0)
(-3.3799 0 0)
(-3.30917 0 0)
(-3.23516 0 0)
(-3.15827 0 0)
(-3.07889 0 0)
(-2.9974 0 0)
(-2.91413 0 0)
(-2.82943 0 0)
(-2.74359 0 0)
(-2.65692 0 0)
(-2.5697 0 0)
(-2.48217 0 0)
(-2.39457 0 0)
(-2.30715 0 0)
(-2.22009 0 0)
(-2.13361 0 0)
(-2.04787 0 0)
(-1.96305 0 0)
(-1.8793 0 0)
(-1.79676 0 0)
(-1.71555 0 0)
(-1.6358 0 0)
(-1.5576 0 0)
(-1.48106 0 0)
(-1.40625 0 0)
(-1.33326 0 0)
(-1.26214 0 0)
(-1.19296 0 0)
(-1.12576 0 0)
(-1.06058 0 0)
(-0.997462 0 0)
(-0.936421 0 0)
(-0.87748 0 0)
(-0.820653 0 0)
(-0.765947 0 0)
(-0.713363 0 0)
(-0.662899 0 0)
(-0.614546 0 0)
(-0.568291 0 0)
(-0.524117 0 0)
(-0.482005 0 0)
(-0.441929 0 0)
(-0.403861 0 0)
(-0.367773 0 0)
(-0.333628 0 0)
(-0.301393 0 0)
(-0.271028 0 0)
(-0.242493 0 0)
(-0.215745 0 0)
(-0.19074 0 0)
(-0.167432 0 0)
(-0.145775 0 0)
(-0.125719 0 0)
(-0.107215 0 0)
(-0.0902128 0 0)
(-0.0746602 0 0)
(-0.0605052 0 0)
(-0.047695 0 0)
(-0.0361761 0 0)
(-0.0258947 0 0)
(-0.0167965 0 0)
(-0.00882691 0 0)
(-0.00193112 0 0)
(0.00394592 0 0)
(0.00885935 0 0)
(0.0128644 0 0)
(0.0160165 0 0)
(0.0183709 0 0)
(0.019983 0 0)
(0.0209081 0 0)
(0.0212015 0 0)
(0.0209183 0 0)
(0.0201139 0 0)
(0.0188433 0 0)
(0.0171616 0 0)
(0.0151237 0 0)
(0.0127845 0 0)
(0.0101989 0 0)
(0.00742175 0 0)
(0.00450777 0 0)
(0.00151171 0 0)
(0 0 0)
(-3.38762 0 0)
(-3.48774 0 0)
(-3.57238 0 0)
(-3.64238 0 0)
(-3.6986 0 0)
(-3.74182 0 0)
(-3.77285 0 0)
(-3.79244 0 0)
(-3.80134 0 0)
(-3.80025 0 0)
(-3.78987 0 0)
(-3.77086 0 0)
(-3.74385 0 0)
(-3.70948 0 0)
(-3.66832 0 0)
(-3.62095 0 0)
(-3.56792 0 0)
(-3.50973 0 0)
(-3.4469 0 0)
(-3.3799 0 0)
(-3.30917 0 0)
(-3.23516 0 0)
(-3.15827 0 0)
(-3.07889 0 0)
(-2.9974 0 0)
(-2.91413 0 0)
(-2.82943 0 0)
(-2.74359 0 0)
(-2.65692 0 0)
(-2.5697 0 0)
(-2.48217 0 0)
(-2.39457 0 0)
(-2.30715 0 0)
(-2.22009 0 0)
(-2.13361 0 0)
(-2.04787 0 0)
(-1.96305 0 0)
(-1.8793 0 0)
(-1.79676 0 0)
(-1.71555 0 0)
(-1.6358 0 0)
(-1.5576 0 0)
(-1.48106 0 0)
(-1.40625 0 0)
(-1.33326 0 0)
(-1.26214 0 0)
(-1.19296 0 0)
(-1.12576 0 0)
(-1.06058 0 0)
(-0.997462 0 0)
(-0.936421 0 0)
(-0.87748 0 0)
(-0.820653 0 0)
(-0.765947 0 0)
(-0.713363 0 0)
(-0.662899 0 0)
(-0.614546 0 0)
(-0.568291 0 0)
(-0.524117 0 0)
(-0.482005 0 0)
(-0.441929 0 0)
(-0.403861 0 0)
(-0.367773 0 0)
(-0.333628 0 0)
(-0.301393 0 0)
(-0.271028 0 0)
(-0.242493 0 0)
(-0.215745 0 0)
(-0.19074 0 0)
(-0.167432 0 0)
(-0.145775 0 0)
(-0.125719 0 0)
(-0.107215 0 0)
(-0.0902128 0 0)
(-0.0746602 0 0)
(-0.0605052 0 0)
(-0.047695 0 0)
(-0.0361761 0 0)
(-0.0258947 0 0)
(-0.0167965 0 0)
(-0.00882691 0 0)
(-0.00193112 0 0)
(0.00394592 0 0)
(0.00885935 0 0)
(0.0128644 0 0)
(0.0160165 0 0)
(0.0183709 0 0)
(0.019983 0 0)
(0.0209081 0 0)
(0.0212015 0 0)
(0.0209183 0 0)
(0.0201139 0 0)
(0.0188433 0 0)
(0.0171616 0 0)
(0.0151237 0 0)
(0.0127845 0 0)
(0.0101989 0 0)
(0.00742175 0 0)
(0.00450777 0 0)
(0.00151171 0 0)
)
;
    }
    frontAndBack
    {
        type            empty;
    }
}


// ************************************************************************* //
