/*--------------------------------*- C++ -*----------------------------------*\
| =========                 |                                                 |
| \\      /  F ield         | OpenFOAM: The Open Source CFD Toolbox           |
|  \\    /   O peration     | Version:  2312                                  |
|   \\  /    A nd           | Website:  www.openfoam.com                      |
|    \\/     M anipulation  |                                                 |
\*---------------------------------------------------------------------------*/
FoamFile
{
    version     2.0;
    format      ascii;
    arch        "LSB;label=32;scalar=64";
    class       volScalarField;
    location    "2.3";
    object      gradTx;
}
// * * * * * * * * * * * * * * * * * * * * * * * * * * * * * * * * * * * * * //

dimensions      [0 -1 0 1 0 0 0];

internalField   nonuniform List<scalar> 
100
(
-3.38762
-3.48774
-3.57238
-3.64238
-3.6986
-3.74182
-3.77285
-3.79244
-3.80134
-3.80025
-3.78987
-3.77086
-3.74385
-3.70948
-3.66832
-3.62095
-3.56792
-3.50973
-3.4469
-3.3799
-3.30917
-3.23516
-3.15827
-3.07889
-2.9974
-2.91413
-2.82943
-2.74359
-2.65692
-2.5697
-2.48217
-2.39457
-2.30715
-2.22009
-2.13361
-2.04787
-1.96305
-1.8793
-1.79676
-1.71555
-1.6358
-1.5576
-1.48106
-1.40625
-1.33326
-1.26214
-1.19296
-1.12576
-1.06058
-0.997462
-0.936421
-0.87748
-0.820653
-0.765947
-0.713363
-0.662899
-0.614546
-0.568291
-0.524117
-0.482005
-0.441929
-0.403861
-0.367773
-0.333628
-0.301393
-0.271028
-0.242493
-0.215745
-0.19074
-0.167432
-0.145775
-0.125719
-0.107215
-0.0902128
-0.0746602
-0.0605052
-0.047695
-0.0361761
-0.0258947
-0.0167965
-0.00882691
-0.00193112
0.00394592
0.00885935
0.0128644
0.0160165
0.0183709
0.019983
0.0209081
0.0212015
0.0209183
0.0201139
0.0188433
0.0171616
0.0151237
0.0127845
0.0101989
0.00742175
0.00450777
0.00151171
)
;

boundaryField
{
    movingWall
    {
        type            calculated;
        value           uniform -3.33358;
    }
    fixedWalls
    {
        type            calculated;
        value           nonuniform List<scalar> 
201
(
-3.38762
-3.48774
-3.57238
-3.64238
-3.6986
-3.74182
-3.77285
-3.79244
-3.80134
-3.80025
-3.78987
-3.77086
-3.74385
-3.70948
-3.66832
-3.62095
-3.56792
-3.50973
-3.4469
-3.3799
-3.30917
-3.23516
-3.15827
-3.07889
-2.9974
-2.91413
-2.82943
-2.74359
-2.65692
-2.5697
-2.48217
-2.39457
-2.30715
-2.22009
-2.13361
-2.04787
-1.96305
-1.8793
-1.79676
-1.71555
-1.6358
-1.5576
-1.48106
-1.40625
-1.33326
-1.26214
-1.19296
-1.12576
-1.06058
-0.997462
-0.936421
-0.87748
-0.820653
-0.765947
-0.713363
-0.662899
-0.614546
-0.568291
-0.524117
-0.482005
-0.441929
-0.403861
-0.367773
-0.333628
-0.301393
-0.271028
-0.242493
-0.215745
-0.19074
-0.167432
-0.145775
-0.125719
-0.107215
-0.0902128
-0.0746602
-0.0605052
-0.047695
-0.0361761
-0.0258947
-0.0167965
-0.00882691
-0.00193112
0.00394592
0.00885935
0.0128644
0.0160165
0.0183709
0.019983
0.0209081
0.0212015
0.0209183
0.0201139
0.0188433
0.0171616
0.0151237
0.0127845
0.0101989
0.00742175
0.00450777
0.00151171
0
-3.38762
-3.48774
-3.57238
-3.64238
-3.6986
-3.74182
-3.77285
-3.79244
-3.80134
-3.80025
-3.78987
-3.77086
-3.74385
-3.70948
-3.66832
-3.62095
-3.56792
-3.50973
-3.4469
-3.3799
-3.30917
-3.23516
-3.15827
-3.07889
-2.9974
-2.91413
-2.82943
-2.74359
-2.65692
-2.5697
-2.48217
-2.39457
-2.30715
-2.22009
-2.13361
-2.04787
-1.96305
-1.8793
-1.79676
-1.71555
-1.6358
-1.5576
-1.48106
-1.40625
-1.33326
-1.26214
-1.19296
-1.12576
-1.06058
-0.997462
-0.936421
-0.87748
-0.820653
-0.765947
-0.713363
-0.662899
-0.614546
-0.568291
-0.524117
-0.482005
-0.441929
-0.403861
-0.367773
-0.333628
-0.301393
-0.271028
-0.242493
-0.215745
-0.19074
-0.167432
-0.145775
-0.125719
-0.107215
-0.0902128
-0.0746602
-0.0605052
-0.047695
-0.0361761
-0.0258947
-0.0167965
-0.00882691
-0.00193112
0.00394592
0.00885935
0.0128644
0.0160165
0.0183709
0.019983
0.0209081
0.0212015
0.0209183
0.0201139
0.0188433
0.0171616
0.0151237
0.0127845
0.0101989
0.00742175
0.00450777
0.00151171
)
;
    }
    frontAndBack
    {
        type            empty;
    }
}


// ************************************************************************* //
