/*--------------------------------*- C++ -*----------------------------------*\
| =========                 |                                                 |
| \\      /  F ield         | OpenFOAM: The Open Source CFD Toolbox           |
|  \\    /   O peration     | Version:  2312                                  |
|   \\  /    A nd           | Website:  www.openfoam.com                      |
|    \\/     M anipulation  |                                                 |
\*---------------------------------------------------------------------------*/
FoamFile
{
    version     2.0;
    format      ascii;
    arch        "LSB;label=32;scalar=64";
    class       volVectorField;
    location    "0.475";
    object      U;
}
// * * * * * * * * * * * * * * * * * * * * * * * * * * * * * * * * * * * * * //

dimensions      [0 1 -1 0 0 0 0];

internalField   nonuniform List<vector> 
31205
(
(195.462 0 0)
(198.307 0 0)
(201.077 0 0)
(203.775 0 0)
(206.405 0 0)
(208.97 0 0)
(211.473 0 0)
(213.917 0 0)
(216.305 0 0)
(218.638 0 0)
(220.918 0 0)
(223.148 0 0)
(225.329 0 0)
(227.463 0 0)
(229.552 0 0)
(231.597 0 0)
(233.599 0 0)
(235.56 0 0)
(237.481 0 0)
(239.362 0 0)
(241.206 0 0)
(243.012 0 0)
(244.783 0 0)
(246.517 0 0)
(248.218 0 0)
(249.884 0 0)
(251.518 0 0)
(253.119 0 0)
(254.688 0 0)
(256.226 0 0)
(257.734 0 0)
(259.211 0 0)
(260.658 0 0)
(262.077 0 0)
(263.466 0 0)
(264.827 0 0)
(266.161 0 0)
(267.466 0 0)
(268.744 0 0)
(269.995 0 0)
(271.219 0 0)
(272.417 0 0)
(273.588 0 0)
(274.734 0 0)
(275.853 0 0)
(276.947 0 0)
(278.015 0 0)
(279.057 0 0)
(280.074 0 0)
(281.066 0 0)
(282.033 0 0)
(282.975 0 0)
(283.892 0 0)
(284.783 0 0)
(285.65 0 0)
(286.492 0 0)
(287.308 0 0)
(288.1 0 0)
(288.866 0 0)
(289.607 0 0)
(290.323 0 0)
(291.014 0 0)
(291.678 0 0)
(292.318 0 0)
(292.931 0 0)
(293.518 0 0)
(294.078 0 0)
(294.612 0 0)
(295.12 0 0)
(295.6 0 0)
(296.052 0 0)
(296.476 0 0)
(296.872 0 0)
(297.24 0 0)
(297.577 0 0)
(297.885 0 0)
(298.165 0 0)
(298.401 0 0)
(298.662 0 0)
(198.047 0 0)
(200.751 0 0)
(203.387 0 0)
(205.958 0 0)
(208.467 0 0)
(210.917 0 0)
(213.311 0 0)
(215.65 0 0)
(217.938 0 0)
(220.175 0 0)
(222.364 0 0)
(224.506 0 0)
(226.603 0 0)
(228.657 0 0)
(230.668 0 0)
(232.639 0 0)
(234.57 0 0)
(236.462 0 0)
(238.316 0 0)
(240.134 0 0)
(241.916 0 0)
(243.664 0 0)
(245.377 0 0)
(247.058 0 0)
(248.705 0 0)
(250.321 0 0)
(251.906 0 0)
(253.46 0 0)
(254.983 0 0)
(256.478 0 0)
(257.943 0 0)
(259.38 0 0)
(260.788 0 0)
(262.169 0 0)
(263.523 0 0)
(264.849 0 0)
(266.149 0 0)
(267.423 0 0)
(268.67 0 0)
(269.892 0 0)
(271.088 0 0)
(272.259 0 0)
(273.405 0 0)
(274.527 0 0)
(275.623 0 0)
(276.695 0 0)
(277.742 0 0)
(278.766 0 0)
(279.765 0 0)
(280.74 0 0)
(281.691 0 0)
(282.618 0 0)
(283.522 0 0)
(284.401 0 0)
(285.257 0 0)
(286.089 0 0)
(286.898 0 0)
(287.682 0 0)
(288.443 0 0)
(289.179 0 0)
(289.892 0 0)
(290.58 0 0)
(291.245 0 0)
(291.884 0 0)
(292.5 0 0)
(293.091 0 0)
(293.657 0 0)
(294.197 0 0)
(294.713 0 0)
(295.203 0 0)
(295.667 0 0)
(296.105 0 0)
(296.516 0 0)
(296.901 0 0)
(297.258 0 0)
(297.586 0 0)
(297.891 0 0)
(298.149 0 0)
(298.448 0 0)
(200.621 0 0)
(203.189 0 0)
(205.696 0 0)
(208.144 0 0)
(210.536 0 0)
(212.874 0 0)
(215.161 0 0)
(217.399 0 0)
(219.589 0 0)
(221.733 0 0)
(223.832 0 0)
(225.888 0 0)
(227.903 0 0)
(229.878 0 0)
(231.813 0 0)
(233.711 0 0)
(235.571 0 0)
(237.395 0 0)
(239.185 0 0)
(240.94 0 0)
(242.662 0 0)
(244.351 0 0)
(246.008 0 0)
(247.634 0 0)
(249.23 0 0)
(250.795 0 0)
(252.331 0 0)
(253.838 0 0)
(255.317 0 0)
(256.768 0 0)
(258.191 0 0)
(259.588 0 0)
(260.957 0 0)
(262.301 0 0)
(263.618 0 0)
(264.91 0 0)
(266.177 0 0)
(267.418 0 0)
(268.635 0 0)
(269.828 0 0)
(270.996 0 0)
(272.14 0 0)
(273.26 0 0)
(274.357 0 0)
(275.43 0 0)
(276.48 0 0)
(277.506 0 0)
(278.51 0 0)
(279.49 0 0)
(280.448 0 0)
(281.383 0 0)
(282.295 0 0)
(283.184 0 0)
(284.051 0 0)
(284.895 0 0)
(285.716 0 0)
(286.515 0 0)
(287.291 0 0)
(288.045 0 0)
(288.775 0 0)
(289.483 0 0)
(290.169 0 0)
(290.831 0 0)
(291.47 0 0)
(292.086 0 0)
(292.678 0 0)
(293.247 0 0)
(293.793 0 0)
(294.315 0 0)
(294.812 0 0)
(295.285 0 0)
(295.734 0 0)
(296.158 0 0)
(296.556 0 0)
(296.93 0 0)
(297.276 0 0)
(297.601 0 0)
(297.878 0 0)
(298.209 0 0)
(203.116 0 0)
(205.556 0 0)
(207.941 0 0)
(210.274 0 0)
(212.555 0 0)
(214.788 0 0)
(216.974 0 0)
(219.115 0 0)
(221.212 0 0)
(223.266 0 0)
(225.28 0 0)
(227.255 0 0)
(229.19 0 0)
(231.089 0 0)
(232.951 0 0)
(234.778 0 0)
(236.571 0 0)
(238.33 0 0)
(240.056 0 0)
(241.751 0 0)
(243.414 0 0)
(245.047 0 0)
(246.65 0 0)
(248.223 0 0)
(249.768 0 0)
(251.284 0 0)
(252.773 0 0)
(254.234 0 0)
(255.669 0 0)
(257.077 0 0)
(258.46 0 0)
(259.817 0 0)
(261.148 0 0)
(262.455 0 0)
(263.737 0 0)
(264.995 0 0)
(266.229 0 0)
(267.439 0 0)
(268.626 0 0)
(269.789 0 0)
(270.929 0 0)
(272.047 0 0)
(273.141 0 0)
(274.214 0 0)
(275.263 0 0)
(276.291 0 0)
(277.297 0 0)
(278.28 0 0)
(279.242 0 0)
(280.182 0 0)
(281.1 0 0)
(281.996 0 0)
(282.871 0 0)
(283.724 0 0)
(284.556 0 0)
(285.366 0 0)
(286.155 0 0)
(286.922 0 0)
(287.667 0 0)
(288.391 0 0)
(289.093 0 0)
(289.774 0 0)
(290.433 0 0)
(291.07 0 0)
(291.685 0 0)
(292.278 0 0)
(292.849 0 0)
(293.397 0 0)
(293.923 0 0)
(294.426 0 0)
(294.906 0 0)
(295.364 0 0)
(295.797 0 0)
(296.207 0 0)
(296.594 0 0)
(296.955 0 0)
(297.298 0 0)
(297.59 0 0)
(297.949 0 0)
(205.503 0 0)
(207.825 0 0)
(210.097 0 0)
(212.32 0 0)
(214.498 0 0)
(216.632 0 0)
(218.723 0 0)
(220.772 0 0)
(222.781 0 0)
(224.752 0 0)
(226.685 0 0)
(228.581 0 0)
(230.442 0 0)
(232.268 0 0)
(234.061 0 0)
(235.821 0 0)
(237.549 0 0)
(239.245 0 0)
(240.911 0 0)
(242.547 0 0)
(244.154 0 0)
(245.733 0 0)
(247.283 0 0)
(248.806 0 0)
(250.302 0 0)
(251.771 0 0)
(253.214 0 0)
(254.631 0 0)
(256.024 0 0)
(257.391 0 0)
(258.733 0 0)
(260.052 0 0)
(261.347 0 0)
(262.618 0 0)
(263.865 0 0)
(265.09 0 0)
(266.292 0 0)
(267.471 0 0)
(268.628 0 0)
(269.763 0 0)
(270.876 0 0)
(271.967 0 0)
(273.037 0 0)
(274.085 0 0)
(275.112 0 0)
(276.118 0 0)
(277.102 0 0)
(278.066 0 0)
(279.009 0 0)
(279.931 0 0)
(280.832 0 0)
(281.713 0 0)
(282.573 0 0)
(283.413 0 0)
(284.232 0 0)
(285.03 0 0)
(285.808 0 0)
(286.566 0 0)
(287.303 0 0)
(288.019 0 0)
(288.715 0 0)
(289.39 0 0)
(290.045 0 0)
(290.679 0 0)
(291.292 0 0)
(291.884 0 0)
(292.456 0 0)
(293.006 0 0)
(293.534 0 0)
(294.042 0 0)
(294.527 0 0)
(294.991 0 0)
(295.433 0 0)
(295.853 0 0)
(296.251 0 0)
(296.624 0 0)
(296.982 0 0)
(297.288 0 0)
(297.671 0 0)
(207.776 0 0)
(209.987 0 0)
(212.153 0 0)
(214.276 0 0)
(216.357 0 0)
(218.398 0 0)
(220.399 0 0)
(222.362 0 0)
(224.289 0 0)
(226.18 0 0)
(228.036 0 0)
(229.859 0 0)
(231.648 0 0)
(233.406 0 0)
(235.132 0 0)
(236.828 0 0)
(238.494 0 0)
(240.131 0 0)
(241.74 0 0)
(243.32 0 0)
(244.874 0 0)
(246.4 0 0)
(247.9 0 0)
(249.374 0 0)
(250.823 0 0)
(252.247 0 0)
(253.646 0 0)
(255.021 0 0)
(256.372 0 0)
(257.7 0 0)
(259.004 0 0)
(260.285 0 0)
(261.544 0 0)
(262.781 0 0)
(263.995 0 0)
(265.188 0 0)
(266.358 0 0)
(267.508 0 0)
(268.636 0 0)
(269.743 0 0)
(270.83 0 0)
(271.895 0 0)
(272.94 0 0)
(273.965 0 0)
(274.969 0 0)
(275.953 0 0)
(276.917 0 0)
(277.862 0 0)
(278.786 0 0)
(279.69 0 0)
(280.575 0 0)
(281.44 0 0)
(282.285 0 0)
(283.111 0 0)
(283.917 0 0)
(284.704 0 0)
(285.471 0 0)
(286.219 0 0)
(286.947 0 0)
(287.656 0 0)
(288.345 0 0)
(289.014 0 0)
(289.664 0 0)
(290.294 0 0)
(290.905 0 0)
(291.495 0 0)
(292.066 0 0)
(292.616 0 0)
(293.147 0 0)
(293.657 0 0)
(294.147 0 0)
(294.616 0 0)
(295.065 0 0)
(295.492 0 0)
(295.9 0 0)
(296.283 0 0)
(296.654 0 0)
(296.971 0 0)
(297.375 0 0)
(209.936 0 0)
(212.045 0 0)
(214.112 0 0)
(216.141 0 0)
(218.131 0 0)
(220.084 0 0)
(222.001 0 0)
(223.884 0 0)
(225.732 0 0)
(227.548 0 0)
(229.332 0 0)
(231.085 0 0)
(232.807 0 0)
(234.499 0 0)
(236.163 0 0)
(237.798 0 0)
(239.405 0 0)
(240.985 0 0)
(242.539 0 0)
(244.067 0 0)
(245.568 0 0)
(247.045 0 0)
(248.497 0 0)
(249.925 0 0)
(251.328 0 0)
(252.708 0 0)
(254.065 0 0)
(255.4 0 0)
(256.711 0 0)
(258.001 0 0)
(259.268 0 0)
(260.514 0 0)
(261.738 0 0)
(262.941 0 0)
(264.123 0 0)
(265.284 0 0)
(266.425 0 0)
(267.546 0 0)
(268.646 0 0)
(269.726 0 0)
(270.786 0 0)
(271.827 0 0)
(272.848 0 0)
(273.85 0 0)
(274.832 0 0)
(275.795 0 0)
(276.739 0 0)
(277.664 0 0)
(278.57 0 0)
(279.457 0 0)
(280.325 0 0)
(281.175 0 0)
(282.005 0 0)
(282.818 0 0)
(283.611 0 0)
(284.386 0 0)
(285.142 0 0)
(285.88 0 0)
(286.599 0 0)
(287.299 0 0)
(287.981 0 0)
(288.644 0 0)
(289.288 0 0)
(289.914 0 0)
(290.521 0 0)
(291.109 0 0)
(291.678 0 0)
(292.229 0 0)
(292.76 0 0)
(293.272 0 0)
(293.765 0 0)
(294.238 0 0)
(294.692 0 0)
(295.126 0 0)
(295.541 0 0)
(295.933 0 0)
(296.315 0 0)
(296.642 0 0)
(297.064 0 0)
(211.99 0 0)
(214.003 0 0)
(215.978 0 0)
(217.918 0 0)
(219.823 0 0)
(221.694 0 0)
(223.532 0 0)
(225.338 0 0)
(227.113 0 0)
(228.858 0 0)
(230.573 0 0)
(232.26 0 0)
(233.918 0 0)
(235.549 0 0)
(237.152 0 0)
(238.73 0 0)
(240.281 0 0)
(241.807 0 0)
(243.308 0 0)
(244.785 0 0)
(246.238 0 0)
(247.667 0 0)
(249.073 0 0)
(250.456 0 0)
(251.816 0 0)
(253.155 0 0)
(254.471 0 0)
(255.766 0 0)
(257.039 0 0)
(258.292 0 0)
(259.524 0 0)
(260.735 0 0)
(261.926 0 0)
(263.097 0 0)
(264.248 0 0)
(265.379 0 0)
(266.49 0 0)
(267.583 0 0)
(268.656 0 0)
(269.71 0 0)
(270.745 0 0)
(271.762 0 0)
(272.759 0 0)
(273.739 0 0)
(274.699 0 0)
(275.642 0 0)
(276.566 0 0)
(277.472 0 0)
(278.36 0 0)
(279.23 0 0)
(280.082 0 0)
(280.916 0 0)
(281.732 0 0)
(282.531 0 0)
(283.311 0 0)
(284.074 0 0)
(284.819 0 0)
(285.547 0 0)
(286.256 0 0)
(286.948 0 0)
(287.622 0 0)
(288.279 0 0)
(288.917 0 0)
(289.538 0 0)
(290.141 0 0)
(290.726 0 0)
(291.294 0 0)
(291.843 0 0)
(292.374 0 0)
(292.887 0 0)
(293.382 0 0)
(293.858 0 0)
(294.316 0 0)
(294.755 0 0)
(295.176 0 0)
(295.576 0 0)
(295.967 0 0)
(296.303 0 0)
(296.739 0 0)
(213.944 0 0)
(215.867 0 0)
(217.757 0 0)
(219.613 0 0)
(221.438 0 0)
(223.231 0 0)
(224.995 0 0)
(226.729 0 0)
(228.435 0 0)
(230.112 0 0)
(231.763 0 0)
(233.386 0 0)
(234.984 0 0)
(236.556 0 0)
(238.103 0 0)
(239.625 0 0)
(241.123 0 0)
(242.597 0 0)
(244.048 0 0)
(245.477 0 0)
(246.882 0 0)
(248.266 0 0)
(249.628 0 0)
(250.968 0 0)
(252.287 0 0)
(253.585 0 0)
(254.863 0 0)
(256.12 0 0)
(257.357 0 0)
(258.574 0 0)
(259.771 0 0)
(260.949 0 0)
(262.108 0 0)
(263.248 0 0)
(264.368 0 0)
(265.47 0 0)
(266.554 0 0)
(267.619 0 0)
(268.666 0 0)
(269.695 0 0)
(270.705 0 0)
(271.698 0 0)
(272.673 0 0)
(273.631 0 0)
(274.57 0 0)
(275.493 0 0)
(276.398 0 0)
(277.285 0 0)
(278.155 0 0)
(279.009 0 0)
(279.845 0 0)
(280.663 0 0)
(281.465 0 0)
(282.25 0 0)
(283.018 0 0)
(283.769 0 0)
(284.503 0 0)
(285.22 0 0)
(285.92 0 0)
(286.603 0 0)
(287.269 0 0)
(287.919 0 0)
(288.551 0 0)
(289.167 0 0)
(289.765 0 0)
(290.347 0 0)
(290.911 0 0)
(291.459 0 0)
(291.989 0 0)
(292.502 0 0)
(292.998 0 0)
(293.476 0 0)
(293.937 0 0)
(294.38 0 0)
(294.807 0 0)
(295.212 0 0)
(295.611 0 0)
(295.954 0 0)
(296.403 0 0)
(215.805 0 0)
(217.644 0 0)
(219.453 0 0)
(221.231 0 0)
(222.98 0 0)
(224.701 0 0)
(226.394 0 0)
(228.06 0 0)
(229.7 0 0)
(231.314 0 0)
(232.903 0 0)
(234.467 0 0)
(236.006 0 0)
(237.522 0 0)
(239.015 0 0)
(240.485 0 0)
(241.932 0 0)
(243.357 0 0)
(244.76 0 0)
(246.142 0 0)
(247.503 0 0)
(248.843 0 0)
(250.162 0 0)
(251.462 0 0)
(252.741 0 0)
(254.001 0 0)
(255.241 0 0)
(256.461 0 0)
(257.663 0 0)
(258.846 0 0)
(260.011 0 0)
(261.157 0 0)
(262.284 0 0)
(263.394 0 0)
(264.485 0 0)
(265.559 0 0)
(266.616 0 0)
(267.654 0 0)
(268.676 0 0)
(269.68 0 0)
(270.667 0 0)
(271.636 0 0)
(272.589 0 0)
(273.526 0 0)
(274.445 0 0)
(275.347 0 0)
(276.233 0 0)
(277.103 0 0)
(277.956 0 0)
(278.792 0 0)
(279.613 0 0)
(280.417 0 0)
(281.204 0 0)
(281.976 0 0)
(282.731 0 0)
(283.47 0 0)
(284.192 0 0)
(284.899 0 0)
(285.59 0 0)
(286.264 0 0)
(286.922 0 0)
(287.564 0 0)
(288.19 0 0)
(288.8 0 0)
(289.394 0 0)
(289.971 0 0)
(290.532 0 0)
(291.077 0 0)
(291.606 0 0)
(292.119 0 0)
(292.614 0 0)
(293.094 0 0)
(293.557 0 0)
(294.003 0 0)
(294.434 0 0)
(294.844 0 0)
(295.249 0 0)
(295.598 0 0)
(296.058 0 0)
(217.579 0 0)
(219.339 0 0)
(221.071 0 0)
(222.776 0 0)
(224.454 0 0)
(226.106 0 0)
(227.733 0 0)
(229.335 0 0)
(230.912 0 0)
(232.466 0 0)
(233.996 0 0)
(235.503 0 0)
(236.988 0 0)
(238.451 0 0)
(239.892 0 0)
(241.312 0 0)
(242.71 0 0)
(244.088 0 0)
(245.446 0 0)
(246.783 0 0)
(248.101 0 0)
(249.399 0 0)
(250.678 0 0)
(251.938 0 0)
(253.179 0 0)
(254.402 0 0)
(255.606 0 0)
(256.792 0 0)
(257.96 0 0)
(259.11 0 0)
(260.242 0 0)
(261.357 0 0)
(262.455 0 0)
(263.535 0 0)
(264.599 0 0)
(265.645 0 0)
(266.675 0 0)
(267.688 0 0)
(268.685 0 0)
(269.665 0 0)
(270.629 0 0)
(271.577 0 0)
(272.508 0 0)
(273.423 0 0)
(274.323 0 0)
(275.206 0 0)
(276.074 0 0)
(276.925 0 0)
(277.761 0 0)
(278.582 0 0)
(279.386 0 0)
(280.176 0 0)
(280.949 0 0)
(281.707 0 0)
(282.45 0 0)
(283.177 0 0)
(283.888 0 0)
(284.584 0 0)
(285.265 0 0)
(285.931 0 0)
(286.581 0 0)
(287.215 0 0)
(287.834 0 0)
(288.438 0 0)
(289.027 0 0)
(289.6 0 0)
(290.157 0 0)
(290.699 0 0)
(291.226 0 0)
(291.737 0 0)
(292.232 0 0)
(292.712 0 0)
(293.176 0 0)
(293.624 0 0)
(294.058 0 0)
(294.471 0 0)
(294.882 0 0)
(295.235 0 0)
(295.704 0 0)
(219.271 0 0)
(220.957 0 0)
(222.618 0 0)
(224.253 0 0)
(225.864 0 0)
(227.451 0 0)
(229.014 0 0)
(230.555 0 0)
(232.074 0 0)
(233.57 0 0)
(235.045 0 0)
(236.498 0 0)
(237.931 0 0)
(239.343 0 0)
(240.735 0 0)
(242.106 0 0)
(243.459 0 0)
(244.792 0 0)
(246.106 0 0)
(247.401 0 0)
(248.677 0 0)
(249.935 0 0)
(251.175 0 0)
(252.397 0 0)
(253.602 0 0)
(254.789 0 0)
(255.958 0 0)
(257.111 0 0)
(258.246 0 0)
(259.364 0 0)
(260.466 0 0)
(261.551 0 0)
(262.62 0 0)
(263.672 0 0)
(264.709 0 0)
(265.729 0 0)
(266.733 0 0)
(267.722 0 0)
(268.694 0 0)
(269.651 0 0)
(270.593 0 0)
(271.518 0 0)
(272.429 0 0)
(273.324 0 0)
(274.204 0 0)
(275.069 0 0)
(275.918 0 0)
(276.753 0 0)
(277.572 0 0)
(278.376 0 0)
(279.166 0 0)
(279.94 0 0)
(280.7 0 0)
(281.445 0 0)
(282.175 0 0)
(282.89 0 0)
(283.59 0 0)
(284.276 0 0)
(284.947 0 0)
(285.603 0 0)
(286.245 0 0)
(286.872 0 0)
(287.484 0 0)
(288.082 0 0)
(288.664 0 0)
(289.232 0 0)
(289.786 0 0)
(290.324 0 0)
(290.848 0 0)
(291.357 0 0)
(291.851 0 0)
(292.331 0 0)
(292.795 0 0)
(293.245 0 0)
(293.68 0 0)
(294.097 0 0)
(294.511 0 0)
(294.869 0 0)
(295.345 0 0)
(220.887 0 0)
(222.503 0 0)
(224.095 0 0)
(225.665 0 0)
(227.213 0 0)
(228.738 0 0)
(230.242 0 0)
(231.725 0 0)
(233.187 0 0)
(234.629 0 0)
(236.051 0 0)
(237.453 0 0)
(238.836 0 0)
(240.2 0 0)
(241.545 0 0)
(242.871 0 0)
(244.179 0 0)
(245.469 0 0)
(246.741 0 0)
(247.995 0 0)
(249.232 0 0)
(250.452 0 0)
(251.655 0 0)
(252.841 0 0)
(254.01 0 0)
(255.163 0 0)
(256.299 0 0)
(257.419 0 0)
(258.523 0 0)
(259.611 0 0)
(260.683 0 0)
(261.739 0 0)
(262.78 0 0)
(263.805 0 0)
(264.815 0 0)
(265.81 0 0)
(266.789 0 0)
(267.754 0 0)
(268.703 0 0)
(269.638 0 0)
(270.557 0 0)
(271.462 0 0)
(272.352 0 0)
(273.228 0 0)
(274.088 0 0)
(274.935 0 0)
(275.767 0 0)
(276.584 0 0)
(277.387 0 0)
(278.176 0 0)
(278.95 0 0)
(279.711 0 0)
(280.457 0 0)
(281.188 0 0)
(281.906 0 0)
(282.609 0 0)
(283.299 0 0)
(283.974 0 0)
(284.635 0 0)
(285.282 0 0)
(285.915 0 0)
(286.534 0 0)
(287.139 0 0)
(287.73 0 0)
(288.307 0 0)
(288.87 0 0)
(289.419 0 0)
(289.953 0 0)
(290.474 0 0)
(290.981 0 0)
(291.473 0 0)
(291.951 0 0)
(292.416 0 0)
(292.865 0 0)
(293.302 0 0)
(293.72 0 0)
(294.138 0 0)
(294.498 0 0)
(294.98 0 0)
(222.43 0 0)
(223.98 0 0)
(225.509 0 0)
(227.017 0 0)
(228.504 0 0)
(229.971 0 0)
(231.419 0 0)
(232.847 0 0)
(234.256 0 0)
(235.646 0 0)
(237.018 0 0)
(238.371 0 0)
(239.706 0 0)
(241.024 0 0)
(242.324 0 0)
(243.607 0 0)
(244.872 0 0)
(246.121 0 0)
(247.353 0 0)
(248.569 0 0)
(249.768 0 0)
(250.951 0 0)
(252.118 0 0)
(253.269 0 0)
(254.404 0 0)
(255.524 0 0)
(256.628 0 0)
(257.717 0 0)
(258.79 0 0)
(259.849 0 0)
(260.892 0 0)
(261.921 0 0)
(262.935 0 0)
(263.934 0 0)
(264.918 0 0)
(265.888 0 0)
(266.844 0 0)
(267.785 0 0)
(268.712 0 0)
(269.624 0 0)
(270.523 0 0)
(271.407 0 0)
(272.278 0 0)
(273.134 0 0)
(273.976 0 0)
(274.805 0 0)
(275.619 0 0)
(276.42 0 0)
(277.207 0 0)
(277.981 0 0)
(278.74 0 0)
(279.487 0 0)
(280.219 0 0)
(280.938 0 0)
(281.643 0 0)
(282.335 0 0)
(283.013 0 0)
(283.678 0 0)
(284.329 0 0)
(284.967 0 0)
(285.592 0 0)
(286.203 0 0)
(286.8 0 0)
(287.384 0 0)
(287.955 0 0)
(288.512 0 0)
(289.056 0 0)
(289.587 0 0)
(290.104 0 0)
(290.607 0 0)
(291.098 0 0)
(291.574 0 0)
(292.038 0 0)
(292.487 0 0)
(292.924 0 0)
(293.344 0 0)
(293.763 0 0)
(294.126 0 0)
(294.611 0 0)
(223.904 0 0)
(225.393 0 0)
(226.861 0 0)
(228.31 0 0)
(229.741 0 0)
(231.153 0 0)
(232.547 0 0)
(233.923 0 0)
(235.281 0 0)
(236.622 0 0)
(237.946 0 0)
(239.253 0 0)
(240.543 0 0)
(241.816 0 0)
(243.074 0 0)
(244.315 0 0)
(245.54 0 0)
(246.749 0 0)
(247.943 0 0)
(249.121 0 0)
(250.284 0 0)
(251.432 0 0)
(252.564 0 0)
(253.682 0 0)
(254.784 0 0)
(255.872 0 0)
(256.946 0 0)
(258.005 0 0)
(259.049 0 0)
(260.079 0 0)
(261.095 0 0)
(262.097 0 0)
(263.085 0 0)
(264.059 0 0)
(265.018 0 0)
(265.965 0 0)
(266.897 0 0)
(267.815 0 0)
(268.72 0 0)
(269.612 0 0)
(270.49 0 0)
(271.354 0 0)
(272.205 0 0)
(273.043 0 0)
(273.867 0 0)
(274.678 0 0)
(275.476 0 0)
(276.261 0 0)
(277.032 0 0)
(277.79 0 0)
(278.536 0 0)
(279.268 0 0)
(279.987 0 0)
(280.693 0 0)
(281.386 0 0)
(282.067 0 0)
(282.734 0 0)
(283.388 0 0)
(284.03 0 0)
(284.658 0 0)
(285.274 0 0)
(285.877 0 0)
(286.467 0 0)
(287.044 0 0)
(287.608 0 0)
(288.16 0 0)
(288.699 0 0)
(289.225 0 0)
(289.738 0 0)
(290.238 0 0)
(290.725 0 0)
(291.2 0 0)
(291.662 0 0)
(292.11 0 0)
(292.547 0 0)
(292.967 0 0)
(293.388 0 0)
(293.752 0 0)
(294.24 0 0)
(225.315 0 0)
(226.744 0 0)
(228.155 0 0)
(229.549 0 0)
(230.926 0 0)
(232.286 0 0)
(233.629 0 0)
(234.955 0 0)
(236.265 0 0)
(237.56 0 0)
(238.838 0 0)
(240.1 0 0)
(241.347 0 0)
(242.579 0 0)
(243.795 0 0)
(244.997 0 0)
(246.183 0 0)
(247.355 0 0)
(248.511 0 0)
(249.654 0 0)
(250.782 0 0)
(251.896 0 0)
(252.995 0 0)
(254.081 0 0)
(255.152 0 0)
(256.209 0 0)
(257.253 0 0)
(258.283 0 0)
(259.3 0 0)
(260.302 0 0)
(261.292 0 0)
(262.268 0 0)
(263.23 0 0)
(264.179 0 0)
(265.115 0 0)
(266.038 0 0)
(266.948 0 0)
(267.845 0 0)
(268.729 0 0)
(269.6 0 0)
(270.457 0 0)
(271.303 0 0)
(272.135 0 0)
(272.954 0 0)
(273.761 0 0)
(274.555 0 0)
(275.337 0 0)
(276.105 0 0)
(276.862 0 0)
(277.605 0 0)
(278.336 0 0)
(279.055 0 0)
(279.761 0 0)
(280.455 0 0)
(281.136 0 0)
(281.805 0 0)
(282.461 0 0)
(283.105 0 0)
(283.737 0 0)
(284.356 0 0)
(284.963 0 0)
(285.557 0 0)
(286.14 0 0)
(286.71 0 0)
(287.268 0 0)
(287.813 0 0)
(288.346 0 0)
(288.867 0 0)
(289.376 0 0)
(289.872 0 0)
(290.357 0 0)
(290.828 0 0)
(291.288 0 0)
(291.735 0 0)
(292.172 0 0)
(292.591 0 0)
(293.012 0 0)
(293.378 0 0)
(293.868 0 0)
(226.664 0 0)
(228.038 0 0)
(229.395 0 0)
(230.737 0 0)
(232.062 0 0)
(233.372 0 0)
(234.667 0 0)
(235.946 0 0)
(237.211 0 0)
(238.46 0 0)
(239.695 0 0)
(240.915 0 0)
(242.121 0 0)
(243.312 0 0)
(244.49 0 0)
(245.653 0 0)
(246.802 0 0)
(247.938 0 0)
(249.059 0 0)
(250.168 0 0)
(251.262 0 0)
(252.343 0 0)
(253.411 0 0)
(254.466 0 0)
(255.507 0 0)
(256.535 0 0)
(257.55 0 0)
(258.552 0 0)
(259.542 0 0)
(260.518 0 0)
(261.482 0 0)
(262.433 0 0)
(263.371 0 0)
(264.297 0 0)
(265.21 0 0)
(266.11 0 0)
(266.998 0 0)
(267.874 0 0)
(268.737 0 0)
(269.588 0 0)
(270.426 0 0)
(271.253 0 0)
(272.067 0 0)
(272.868 0 0)
(273.658 0 0)
(274.436 0 0)
(275.201 0 0)
(275.954 0 0)
(276.695 0 0)
(277.425 0 0)
(278.142 0 0)
(278.847 0 0)
(279.54 0 0)
(280.222 0 0)
(280.891 0 0)
(281.548 0 0)
(282.194 0 0)
(282.828 0 0)
(283.449 0 0)
(284.059 0 0)
(284.658 0 0)
(285.244 0 0)
(285.819 0 0)
(286.381 0 0)
(286.932 0 0)
(287.472 0 0)
(287.999 0 0)
(288.515 0 0)
(289.019 0 0)
(289.511 0 0)
(289.992 0 0)
(290.461 0 0)
(290.918 0 0)
(291.363 0 0)
(291.798 0 0)
(292.217 0 0)
(292.638 0 0)
(293.004 0 0)
(293.494 0 0)
(227.956 0 0)
(229.277 0 0)
(230.584 0 0)
(231.875 0 0)
(233.152 0 0)
(234.415 0 0)
(235.663 0 0)
(236.898 0 0)
(238.119 0 0)
(239.326 0 0)
(240.519 0 0)
(241.699 0 0)
(242.865 0 0)
(244.018 0 0)
(245.158 0 0)
(246.285 0 0)
(247.399 0 0)
(248.5 0 0)
(249.588 0 0)
(250.663 0 0)
(251.725 0 0)
(252.775 0 0)
(253.813 0 0)
(254.837 0 0)
(255.85 0 0)
(256.85 0 0)
(257.837 0 0)
(258.813 0 0)
(259.776 0 0)
(260.727 0 0)
(261.666 0 0)
(262.593 0 0)
(263.507 0 0)
(264.41 0 0)
(265.301 0 0)
(266.18 0 0)
(267.047 0 0)
(267.902 0 0)
(268.745 0 0)
(269.576 0 0)
(270.396 0 0)
(271.204 0 0)
(272 0 0)
(272.785 0 0)
(273.558 0 0)
(274.319 0 0)
(275.069 0 0)
(275.807 0 0)
(276.534 0 0)
(277.249 0 0)
(277.952 0 0)
(278.644 0 0)
(279.325 0 0)
(279.994 0 0)
(280.652 0 0)
(281.298 0 0)
(281.933 0 0)
(282.556 0 0)
(283.168 0 0)
(283.769 0 0)
(284.359 0 0)
(284.937 0 0)
(285.503 0 0)
(286.059 0 0)
(286.603 0 0)
(287.136 0 0)
(287.658 0 0)
(288.168 0 0)
(288.667 0 0)
(289.155 0 0)
(289.632 0 0)
(290.097 0 0)
(290.552 0 0)
(290.994 0 0)
(291.427 0 0)
(291.845 0 0)
(292.265 0 0)
(292.631 0 0)
(293.121 0 0)
(229.194 0 0)
(230.465 0 0)
(231.723 0 0)
(232.967 0 0)
(234.198 0 0)
(235.415 0 0)
(236.62 0 0)
(237.812 0 0)
(238.991 0 0)
(240.158 0 0)
(241.311 0 0)
(242.453 0 0)
(243.582 0 0)
(244.698 0 0)
(245.802 0 0)
(246.894 0 0)
(247.974 0 0)
(249.041 0 0)
(250.097 0 0)
(251.141 0 0)
(252.172 0 0)
(253.192 0 0)
(254.2 0 0)
(255.197 0 0)
(256.181 0 0)
(257.154 0 0)
(258.115 0 0)
(259.065 0 0)
(260.003 0 0)
(260.929 0 0)
(261.844 0 0)
(262.747 0 0)
(263.639 0 0)
(264.52 0 0)
(265.389 0 0)
(266.247 0 0)
(267.094 0 0)
(267.929 0 0)
(268.753 0 0)
(269.565 0 0)
(270.367 0 0)
(271.157 0 0)
(271.936 0 0)
(272.704 0 0)
(273.461 0 0)
(274.206 0 0)
(274.941 0 0)
(275.664 0 0)
(276.376 0 0)
(277.078 0 0)
(277.768 0 0)
(278.447 0 0)
(279.115 0 0)
(279.772 0 0)
(280.419 0 0)
(281.054 0 0)
(281.678 0 0)
(282.291 0 0)
(282.894 0 0)
(283.485 0 0)
(284.066 0 0)
(284.636 0 0)
(285.194 0 0)
(285.742 0 0)
(286.28 0 0)
(286.806 0 0)
(287.322 0 0)
(287.826 0 0)
(288.32 0 0)
(288.804 0 0)
(289.276 0 0)
(289.738 0 0)
(290.189 0 0)
(290.629 0 0)
(291.06 0 0)
(291.475 0 0)
(291.894 0 0)
(292.259 0 0)
(292.749 0 0)
(230.38 0 0)
(231.604 0 0)
(232.815 0 0)
(234.014 0 0)
(235.201 0 0)
(236.376 0 0)
(237.539 0 0)
(238.691 0 0)
(239.83 0 0)
(240.958 0 0)
(242.074 0 0)
(243.178 0 0)
(244.271 0 0)
(245.352 0 0)
(246.422 0 0)
(247.481 0 0)
(248.528 0 0)
(249.564 0 0)
(250.588 0 0)
(251.602 0 0)
(252.604 0 0)
(253.595 0 0)
(254.575 0 0)
(255.544 0 0)
(256.501 0 0)
(257.448 0 0)
(258.384 0 0)
(259.308 0 0)
(260.222 0 0)
(261.125 0 0)
(262.016 0 0)
(262.897 0 0)
(263.767 0 0)
(264.627 0 0)
(265.475 0 0)
(266.313 0 0)
(267.139 0 0)
(267.955 0 0)
(268.76 0 0)
(269.555 0 0)
(270.339 0 0)
(271.112 0 0)
(271.874 0 0)
(272.625 0 0)
(273.366 0 0)
(274.097 0 0)
(274.816 0 0)
(275.525 0 0)
(276.223 0 0)
(276.911 0 0)
(277.588 0 0)
(278.255 0 0)
(278.911 0 0)
(279.556 0 0)
(280.191 0 0)
(280.815 0 0)
(281.429 0 0)
(282.032 0 0)
(282.625 0 0)
(283.207 0 0)
(283.779 0 0)
(284.341 0 0)
(284.892 0 0)
(285.432 0 0)
(285.962 0 0)
(286.482 0 0)
(286.991 0 0)
(287.49 0 0)
(287.979 0 0)
(288.457 0 0)
(288.925 0 0)
(289.383 0 0)
(289.831 0 0)
(290.268 0 0)
(290.696 0 0)
(291.109 0 0)
(291.526 0 0)
(291.89 0 0)
(292.378 0 0)
(231.516 0 0)
(232.696 0 0)
(233.863 0 0)
(235.019 0 0)
(236.165 0 0)
(237.299 0 0)
(238.422 0 0)
(239.535 0 0)
(240.637 0 0)
(241.727 0 0)
(242.807 0 0)
(243.876 0 0)
(244.935 0 0)
(245.983 0 0)
(247.02 0 0)
(248.046 0 0)
(249.062 0 0)
(250.068 0 0)
(251.062 0 0)
(252.047 0 0)
(253.02 0 0)
(253.984 0 0)
(254.936 0 0)
(255.879 0 0)
(256.811 0 0)
(257.732 0 0)
(258.643 0 0)
(259.544 0 0)
(260.434 0 0)
(261.314 0 0)
(262.183 0 0)
(263.043 0 0)
(263.892 0 0)
(264.73 0 0)
(265.558 0 0)
(266.376 0 0)
(267.184 0 0)
(267.981 0 0)
(268.768 0 0)
(269.545 0 0)
(270.311 0 0)
(271.067 0 0)
(271.813 0 0)
(272.549 0 0)
(273.275 0 0)
(273.99 0 0)
(274.695 0 0)
(275.39 0 0)
(276.074 0 0)
(276.749 0 0)
(277.413 0 0)
(278.067 0 0)
(278.711 0 0)
(279.345 0 0)
(279.969 0 0)
(280.582 0 0)
(281.186 0 0)
(281.779 0 0)
(282.362 0 0)
(282.935 0 0)
(283.499 0 0)
(284.052 0 0)
(284.595 0 0)
(285.128 0 0)
(285.651 0 0)
(286.164 0 0)
(286.667 0 0)
(287.16 0 0)
(287.643 0 0)
(288.116 0 0)
(288.58 0 0)
(289.033 0 0)
(289.477 0 0)
(289.91 0 0)
(290.335 0 0)
(290.746 0 0)
(291.161 0 0)
(291.523 0 0)
(292.009 0 0)
(232.607 0 0)
(233.743 0 0)
(234.869 0 0)
(235.985 0 0)
(237.09 0 0)
(238.186 0 0)
(239.271 0 0)
(240.347 0 0)
(241.412 0 0)
(242.468 0 0)
(243.513 0 0)
(244.549 0 0)
(245.574 0 0)
(246.59 0 0)
(247.596 0 0)
(248.591 0 0)
(249.577 0 0)
(250.553 0 0)
(251.52 0 0)
(252.476 0 0)
(253.422 0 0)
(254.359 0 0)
(255.286 0 0)
(256.203 0 0)
(257.11 0 0)
(258.007 0 0)
(258.894 0 0)
(259.772 0 0)
(260.639 0 0)
(261.497 0 0)
(262.345 0 0)
(263.183 0 0)
(264.012 0 0)
(264.83 0 0)
(265.639 0 0)
(266.438 0 0)
(267.227 0 0)
(268.006 0 0)
(268.775 0 0)
(269.535 0 0)
(270.285 0 0)
(271.025 0 0)
(271.755 0 0)
(272.475 0 0)
(273.185 0 0)
(273.886 0 0)
(274.577 0 0)
(275.258 0 0)
(275.929 0 0)
(276.591 0 0)
(277.243 0 0)
(277.885 0 0)
(278.517 0 0)
(279.139 0 0)
(279.752 0 0)
(280.355 0 0)
(280.948 0 0)
(281.532 0 0)
(282.106 0 0)
(282.67 0 0)
(283.224 0 0)
(283.769 0 0)
(284.304 0 0)
(284.83 0 0)
(285.345 0 0)
(285.852 0 0)
(286.348 0 0)
(286.835 0 0)
(287.313 0 0)
(287.781 0 0)
(288.239 0 0)
(288.688 0 0)
(289.128 0 0)
(289.558 0 0)
(289.979 0 0)
(290.387 0 0)
(290.799 0 0)
(291.16 0 0)
(291.642 0 0)
(233.653 0 0)
(234.749 0 0)
(235.835 0 0)
(236.912 0 0)
(237.98 0 0)
(239.038 0 0)
(240.088 0 0)
(241.128 0 0)
(242.159 0 0)
(243.18 0 0)
(244.193 0 0)
(245.196 0 0)
(246.19 0 0)
(247.175 0 0)
(248.151 0 0)
(249.117 0 0)
(250.074 0 0)
(251.022 0 0)
(251.961 0 0)
(252.89 0 0)
(253.811 0 0)
(254.722 0 0)
(255.623 0 0)
(256.516 0 0)
(257.399 0 0)
(258.272 0 0)
(259.137 0 0)
(259.992 0 0)
(260.838 0 0)
(261.675 0 0)
(262.502 0 0)
(263.32 0 0)
(264.128 0 0)
(264.927 0 0)
(265.717 0 0)
(266.498 0 0)
(267.269 0 0)
(268.03 0 0)
(268.783 0 0)
(269.525 0 0)
(270.259 0 0)
(270.983 0 0)
(271.698 0 0)
(272.403 0 0)
(273.099 0 0)
(273.785 0 0)
(274.462 0 0)
(275.13 0 0)
(275.788 0 0)
(276.437 0 0)
(277.077 0 0)
(277.707 0 0)
(278.327 0 0)
(278.939 0 0)
(279.541 0 0)
(280.133 0 0)
(280.716 0 0)
(281.29 0 0)
(281.855 0 0)
(282.41 0 0)
(282.956 0 0)
(283.492 0 0)
(284.02 0 0)
(284.537 0 0)
(285.046 0 0)
(285.546 0 0)
(286.036 0 0)
(286.517 0 0)
(286.989 0 0)
(287.451 0 0)
(287.905 0 0)
(288.349 0 0)
(288.784 0 0)
(289.21 0 0)
(289.628 0 0)
(290.033 0 0)
(290.441 0 0)
(290.8 0 0)
(291.279 0 0)
(234.657 0 0)
(235.714 0 0)
(236.763 0 0)
(237.803 0 0)
(238.834 0 0)
(239.858 0 0)
(240.872 0 0)
(241.879 0 0)
(242.877 0 0)
(243.866 0 0)
(244.847 0 0)
(245.82 0 0)
(246.783 0 0)
(247.739 0 0)
(248.686 0 0)
(249.624 0 0)
(250.553 0 0)
(251.474 0 0)
(252.387 0 0)
(253.29 0 0)
(254.185 0 0)
(255.072 0 0)
(255.949 0 0)
(256.818 0 0)
(257.678 0 0)
(258.529 0 0)
(259.372 0 0)
(260.206 0 0)
(261.03 0 0)
(261.846 0 0)
(262.653 0 0)
(263.452 0 0)
(264.241 0 0)
(265.021 0 0)
(265.793 0 0)
(266.556 0 0)
(267.309 0 0)
(268.054 0 0)
(268.79 0 0)
(269.516 0 0)
(270.234 0 0)
(270.943 0 0)
(271.642 0 0)
(272.333 0 0)
(273.015 0 0)
(273.687 0 0)
(274.351 0 0)
(275.006 0 0)
(275.651 0 0)
(276.288 0 0)
(276.915 0 0)
(277.534 0 0)
(278.143 0 0)
(278.743 0 0)
(279.335 0 0)
(279.917 0 0)
(280.49 0 0)
(281.055 0 0)
(281.61 0 0)
(282.156 0 0)
(282.693 0 0)
(283.222 0 0)
(283.741 0 0)
(284.252 0 0)
(284.753 0 0)
(285.246 0 0)
(285.729 0 0)
(286.204 0 0)
(286.67 0 0)
(287.127 0 0)
(287.575 0 0)
(288.015 0 0)
(288.445 0 0)
(288.867 0 0)
(289.281 0 0)
(289.682 0 0)
(290.088 0 0)
(290.445 0 0)
(290.919 0 0)
(235.621 0 0)
(236.641 0 0)
(237.654 0 0)
(238.659 0 0)
(239.656 0 0)
(240.646 0 0)
(241.628 0 0)
(242.602 0 0)
(243.568 0 0)
(244.527 0 0)
(245.477 0 0)
(246.42 0 0)
(247.355 0 0)
(248.282 0 0)
(249.202 0 0)
(250.113 0 0)
(251.016 0 0)
(251.911 0 0)
(252.798 0 0)
(253.677 0 0)
(254.547 0 0)
(255.41 0 0)
(256.264 0 0)
(257.11 0 0)
(257.948 0 0)
(258.778 0 0)
(259.599 0 0)
(260.412 0 0)
(261.216 0 0)
(262.013 0 0)
(262.8 0 0)
(263.58 0 0)
(264.35 0 0)
(265.113 0 0)
(265.867 0 0)
(266.612 0 0)
(267.349 0 0)
(268.077 0 0)
(268.796 0 0)
(269.507 0 0)
(270.21 0 0)
(270.904 0 0)
(271.589 0 0)
(272.265 0 0)
(272.933 0 0)
(273.592 0 0)
(274.243 0 0)
(274.885 0 0)
(275.518 0 0)
(276.142 0 0)
(276.758 0 0)
(277.365 0 0)
(277.963 0 0)
(278.553 0 0)
(279.134 0 0)
(279.706 0 0)
(280.27 0 0)
(280.824 0 0)
(281.371 0 0)
(281.908 0 0)
(282.437 0 0)
(282.957 0 0)
(283.469 0 0)
(283.972 0 0)
(284.466 0 0)
(284.952 0 0)
(285.429 0 0)
(285.897 0 0)
(286.357 0 0)
(286.809 0 0)
(287.251 0 0)
(287.686 0 0)
(288.112 0 0)
(288.529 0 0)
(288.939 0 0)
(289.337 0 0)
(289.739 0 0)
(290.093 0 0)
(290.563 0 0)
(236.547 0 0)
(237.532 0 0)
(238.511 0 0)
(239.482 0 0)
(240.446 0 0)
(241.404 0 0)
(242.354 0 0)
(243.297 0 0)
(244.234 0 0)
(245.163 0 0)
(246.085 0 0)
(246.999 0 0)
(247.906 0 0)
(248.806 0 0)
(249.699 0 0)
(250.584 0 0)
(251.462 0 0)
(252.332 0 0)
(253.195 0 0)
(254.05 0 0)
(254.897 0 0)
(255.737 0 0)
(256.569 0 0)
(257.393 0 0)
(258.209 0 0)
(259.018 0 0)
(259.819 0 0)
(260.612 0 0)
(261.397 0 0)
(262.174 0 0)
(262.943 0 0)
(263.703 0 0)
(264.456 0 0)
(265.201 0 0)
(265.938 0 0)
(266.666 0 0)
(267.387 0 0)
(268.099 0 0)
(268.803 0 0)
(269.499 0 0)
(270.186 0 0)
(270.866 0 0)
(271.537 0 0)
(272.199 0 0)
(272.854 0 0)
(273.5 0 0)
(274.138 0 0)
(274.767 0 0)
(275.388 0 0)
(276.001 0 0)
(276.605 0 0)
(277.201 0 0)
(277.788 0 0)
(278.367 0 0)
(278.938 0 0)
(279.5 0 0)
(280.054 0 0)
(280.6 0 0)
(281.137 0 0)
(281.666 0 0)
(282.186 0 0)
(282.699 0 0)
(283.202 0 0)
(283.698 0 0)
(284.185 0 0)
(284.664 0 0)
(285.134 0 0)
(285.596 0 0)
(286.05 0 0)
(286.496 0 0)
(286.934 0 0)
(287.363 0 0)
(287.784 0 0)
(288.197 0 0)
(288.603 0 0)
(288.996 0 0)
(289.395 0 0)
(289.746 0 0)
(290.211 0 0)
(237.437 0 0)
(238.389 0 0)
(239.334 0 0)
(240.274 0 0)
(241.207 0 0)
(242.133 0 0)
(243.054 0 0)
(243.967 0 0)
(244.875 0 0)
(245.775 0 0)
(246.67 0 0)
(247.557 0 0)
(248.438 0 0)
(249.312 0 0)
(250.179 0 0)
(251.039 0 0)
(251.892 0 0)
(252.739 0 0)
(253.578 0 0)
(254.41 0 0)
(255.235 0 0)
(256.053 0 0)
(256.863 0 0)
(257.666 0 0)
(258.462 0 0)
(259.25 0 0)
(260.031 0 0)
(260.805 0 0)
(261.571 0 0)
(262.329 0 0)
(263.08 0 0)
(263.824 0 0)
(264.559 0 0)
(265.287 0 0)
(266.007 0 0)
(266.719 0 0)
(267.424 0 0)
(268.121 0 0)
(268.81 0 0)
(269.491 0 0)