/*--------------------------------*- C++ -*----------------------------------*\
| =========                 |                                                 |
| \\      /  F ield         | OpenFOAM: The Open Source CFD Toolbox           |
|  \\    /   O peration     | Version:  2312                                  |
|   \\  /    A nd           | Website:  www.openfoam.com                      |
|    \\/     M anipulation  |                                                 |
\*---------------------------------------------------------------------------*/
FoamFile
{
    version     2.0;
    format      ascii;
    arch        "LSB;label=32;scalar=64";
    class       volVectorField;
    location    "0.721";
    object      U;
}
// * * * * * * * * * * * * * * * * * * * * * * * * * * * * * * * * * * * * * //

dimensions      [0 1 -1 0 0 0 0];

internalField   nonuniform List<vector> 
31205
(
(287.588 0 0)
(288.526 0 0)
(289.424 0 0)
(290.281 0 0)
(291.099 0 0)
(291.878 0 0)
(292.618 0 0)
(293.321 0 0)
(293.986 0 0)
(294.614 0 0)
(295.205 0 0)
(295.76 0 0)
(296.278 0 0)
(296.76 0 0)
(297.206 0 0)
(297.616 0 0)
(297.99 0 0)
(298.328 0 0)
(298.631 0 0)
(298.898 0 0)
(299.128 0 0)
(299.323 0 0)
(299.481 0 0)
(299.603 0 0)
(299.688 0 0)
(299.736 0 0)
(299.747 0 0)
(299.719 0 0)
(299.654 0 0)
(299.55 0 0)
(299.407 0 0)
(299.224 0 0)
(299 0 0)
(298.735 0 0)
(298.428 0 0)
(298.078 0 0)
(297.684 0 0)
(297.245 0 0)
(296.759 0 0)
(296.226 0 0)
(295.644 0 0)
(295.011 0 0)
(294.326 0 0)
(293.587 0 0)
(292.791 0 0)
(291.936 0 0)
(291.02 0 0)
(290.04 0 0)
(288.992 0 0)
(287.874 0 0)
(286.68 0 0)
(285.406 0 0)
(284.047 0 0)
(282.596 0 0)
(281.047 0 0)
(279.392 0 0)
(277.621 0 0)
(275.717 0 0)
(273.671 0 0)
(271.49 0 0)
(269.149 0 0)
(266.468 0 0)
(263.267 0 0)
(260.234 0 0)
(259.081 0 0)
(257.875 0 0)
(243.435 0 0)
(203.299 0 0)
(155.05 0 0)
(124.663 0 0)
(112.458 0 0)
(108.766 0 0)
(108.049 0 0)
(108.299 0 0)
(108.884 0 0)
(109.581 0 0)
(110.377 0 0)
(111.079 0 0)
(112.192 0 0)
(288.442 0 0)
(289.319 0 0)
(290.159 0 0)
(290.962 0 0)
(291.727 0 0)
(292.457 0 0)
(293.15 0 0)
(293.807 0 0)
(294.43 0 0)
(295.017 0 0)
(295.57 0 0)
(296.088 0 0)
(296.571 0 0)
(297.021 0 0)
(297.436 0 0)
(297.818 0 0)
(298.165 0 0)
(298.478 0 0)
(298.757 0 0)
(299.003 0 0)
(299.214 0 0)
(299.39 0 0)
(299.532 0 0)
(299.64 0 0)
(299.712 0 0)
(299.749 0 0)
(299.751 0 0)
(299.716 0 0)
(299.646 0 0)
(299.538 0 0)
(299.393 0 0)
(299.21 0 0)
(298.988 0 0)
(298.727 0 0)
(298.426 0 0)
(298.084 0 0)
(297.7 0 0)
(297.274 0 0)
(296.803 0 0)
(296.287 0 0)
(295.725 0 0)
(295.115 0 0)
(294.456 0 0)
(293.745 0 0)
(292.981 0 0)
(292.162 0 0)
(291.285 0 0)
(290.348 0 0)
(289.348 0 0)
(288.281 0 0)
(287.145 0 0)
(285.934 0 0)
(284.645 0 0)
(283.272 0 0)
(281.808 0 0)
(280.248 0 0)
(278.583 0 0)
(276.801 0 0)
(274.888 0 0)
(272.838 0 0)
(270.659 0 0)
(268.306 0 0)
(265.567 0 0)
(262.34 0 0)
(259.579 0 0)
(258.918 0 0)
(256.845 0 0)
(238.313 0 0)
(194.45 0 0)
(147.936 0 0)
(121.329 0 0)
(111.275 0 0)
(108.378 0 0)
(107.912 0 0)
(108.238 0 0)
(108.822 0 0)
(109.551 0 0)
(110.208 0 0)
(111.264 0 0)
(289.277 0 0)
(290.097 0 0)
(290.881 0 0)
(291.63 0 0)
(292.345 0 0)
(293.025 0 0)
(293.672 0 0)
(294.286 0 0)
(294.866 0 0)
(295.414 0 0)
(295.929 0 0)
(296.411 0 0)
(296.861 0 0)
(297.278 0 0)
(297.663 0 0)
(298.016 0 0)
(298.337 0 0)
(298.625 0 0)
(298.881 0 0)
(299.105 0 0)
(299.296 0 0)
(299.455 0 0)
(299.581 0 0)
(299.673 0 0)
(299.733 0 0)
(299.759 0 0)
(299.751 0 0)
(299.708 0 0)
(299.631 0 0)
(299.519 0 0)
(299.371 0 0)
(299.187 0 0)
(298.967 0 0)
(298.708 0 0)
(298.412 0 0)
(298.077 0 0)
(297.702 0 0)
(297.286 0 0)
(296.829 0 0)
(296.328 0 0)
(295.784 0 0)
(295.194 0 0)
(294.558 0 0)
(293.873 0 0)
(293.137 0 0)
(292.35 0 0)
(291.509 0 0)
(290.611 0 0)
(289.654 0 0)
(288.634 0 0)
(287.55 0 0)
(286.397 0 0)
(285.171 0 0)
(283.867 0 0)
(282.48 0 0)
(281.004 0 0)
(279.433 0 0)
(277.758 0 0)
(275.966 0 0)
(274.045 0 0)
(271.991 0 0)
(269.813 0 0)
(267.442 0 0)
(264.641 0 0)
(261.42 0 0)
(259.002 0 0)
(258.749 0 0)
(255.264 0 0)
(232.15 0 0)
(185.314 0 0)
(141.397 0 0)
(118.472 0 0)
(110.287 0 0)
(108.051 0 0)
(107.794 0 0)
(108.164 0 0)
(108.793 0 0)
(109.396 0 0)
(110.39 0 0)
(290.073 0 0)
(290.837 0 0)
(291.568 0 0)
(292.267 0 0)
(292.934 0 0)
(293.568 0 0)
(294.172 0 0)
(294.743 0 0)
(295.284 0 0)
(295.793 0 0)
(296.272 0 0)
(296.72 0 0)
(297.137 0 0)
(297.524 0 0)
(297.88 0 0)
(298.206 0 0)
(298.501 0 0)
(298.765 0 0)
(298.999 0 0)
(299.202 0 0)
(299.374 0 0)
(299.515 0 0)
(299.625 0 0)
(299.703 0 0)
(299.75 0 0)
(299.764 0 0)
(299.747 0 0)
(299.696 0 0)
(299.613 0 0)
(299.496 0 0)
(299.345 0 0)
(299.16 0 0)
(298.94 0 0)
(298.684 0 0)
(298.391 0 0)
(298.062 0 0)
(297.695 0 0)
(297.289 0 0)
(296.843 0 0)
(296.357 0 0)
(295.828 0 0)
(295.257 0 0)
(294.641 0 0)
(293.98 0 0)
(293.271 0 0)
(292.513 0 0)
(291.704 0 0)
(290.842 0 0)
(289.924 0 0)
(288.948 0 0)
(287.912 0 0)
(286.811 0 0)
(285.642 0 0)
(284.401 0 0)
(283.084 0 0)
(281.685 0 0)
(280.198 0 0)
(278.616 0 0)
(276.932 0 0)
(275.132 0 0)
(273.203 0 0)
(271.148 0 0)
(268.971 0 0)
(266.573 0 0)
(263.708 0 0)
(260.537 0 0)
(258.536 0 0)
(258.562 0 0)
(253.048 0 0)
(225.028 0 0)
(176.176 0 0)
(135.54 0 0)
(116.072 0 0)
(109.476 0 0)
(107.787 0 0)
(107.684 0 0)
(108.133 0 0)
(108.655 0 0)
(109.579 0 0)
(290.82 0 0)
(291.533 0 0)
(292.215 0 0)
(292.866 0 0)
(293.488 0 0)
(294.079 0 0)
(294.641 0 0)
(295.173 0 0)
(295.676 0 0)
(296.15 0 0)
(296.594 0 0)
(297.01 0 0)
(297.396 0 0)
(297.754 0 0)
(298.083 0 0)
(298.382 0 0)
(298.653 0 0)
(298.895 0 0)
(299.107 0 0)
(299.291 0 0)
(299.445 0 0)
(299.569 0 0)
(299.664 0 0)
(299.728 0 0)
(299.763 0 0)
(299.767 0 0)
(299.74 0 0)
(299.682 0 0)
(299.593 0 0)
(299.471 0 0)
(299.317 0 0)
(299.131 0 0)
(298.91 0 0)
(298.656 0 0)
(298.368 0 0)
(298.044 0 0)
(297.684 0 0)
(297.287 0 0)
(296.852 0 0)
(296.379 0 0)
(295.865 0 0)
(295.312 0 0)
(294.716 0 0)
(294.076 0 0)
(293.392 0 0)
(292.661 0 0)
(291.883 0 0)
(291.054 0 0)
(290.173 0 0)
(289.237 0 0)
(288.245 0 0)
(287.192 0 0)
(286.076 0 0)
(284.894 0 0)
(283.641 0 0)
(282.312 0 0)
(280.902 0 0)
(279.406 0 0)
(277.817 0 0)
(276.125 0 0)
(274.319 0 0)
(272.386 0 0)
(270.332 0 0)
(268.157 0 0)
(265.729 0 0)
(262.806 0 0)
(259.736 0 0)
(258.196 0 0)
(258.297 0 0)
(250.253 0 0)
(217.499 0 0)
(167.743 0 0)
(130.648 0 0)
(114.168 0 0)
(108.845 0 0)
(107.564 0 0)
(107.619 0 0)
(107.994 0 0)
(108.829 0 0)
(291.518 0 0)
(292.183 0 0)
(292.818 0 0)
(293.425 0 0)
(294.004 0 0)
(294.555 0 0)
(295.078 0 0)
(295.574 0 0)
(296.041 0 0)
(296.481 0 0)
(296.894 0 0)
(297.279 0 0)
(297.637 0 0)
(297.967 0 0)
(298.27 0 0)
(298.546 0 0)
(298.794 0 0)
(299.014 0 0)
(299.207 0 0)
(299.371 0 0)
(299.508 0 0)
(299.617 0 0)
(299.697 0 0)
(299.749 0 0)
(299.772 0 0)
(299.766 0 0)
(299.731 0 0)
(299.666 0 0)
(299.57 0 0)
(299.445 0 0)
(299.288 0 0)
(299.1 0 0)
(298.88 0 0)
(298.628 0 0)
(298.343 0 0)
(298.024 0 0)
(297.671 0 0)
(297.283 0 0)
(296.859 0 0)
(296.398 0 0)
(295.899 0 0)
(295.361 0 0)
(294.784 0 0)
(294.166 0 0)
(293.505 0 0)
(292.8 0 0)
(292.05 0 0)
(291.252 0 0)
(290.406 0 0)
(289.508 0 0)
(288.557 0 0)
(287.55 0 0)
(286.484 0 0)
(285.356 0 0)
(284.162 0 0)
(282.898 0 0)
(281.561 0 0)
(280.143 0 0)
(278.64 0 0)
(277.046 0 0)
(275.35 0 0)
(273.54 0 0)
(271.606 0 0)
(269.558 0 0)
(267.385 0 0)
(264.926 0 0)
(261.962 0 0)
(259.04 0 0)
(257.962 0 0)
(257.912 0 0)
(247.04 0 0)
(210.098 0 0)
(160.403 0 0)
(126.735 0 0)
(112.706 0 0)
(108.348 0 0)
(107.413 0 0)
(107.46 0 0)
(108.148 0 0)
(292.168 0 0)
(292.787 0 0)
(293.38 0 0)
(293.946 0 0)
(294.485 0 0)
(294.998 0 0)
(295.485 0 0)
(295.946 0 0)
(296.38 0 0)
(296.789 0 0)
(297.172 0 0)
(297.528 0 0)
(297.859 0 0)
(298.164 0 0)
(298.442 0 0)
(298.695 0 0)
(298.922 0 0)
(299.122 0 0)
(299.296 0 0)
(299.444 0 0)
(299.564 0 0)
(299.658 0 0)
(299.726 0 0)
(299.765 0 0)
(299.778 0 0)
(299.762 0 0)
(299.719 0 0)
(299.647 0 0)
(299.547 0 0)
(299.417 0 0)
(299.258 0 0)
(299.07 0 0)
(298.85 0 0)
(298.6 0 0)
(298.318 0 0)
(298.005 0 0)
(297.658 0 0)
(297.278 0 0)
(296.864 0 0)
(296.415 0 0)
(295.93 0 0)
(295.409 0 0)
(294.849 0 0)
(294.251 0 0)
(293.612 0 0)
(292.932 0 0)
(292.209 0 0)
(291.441 0 0)
(290.627 0 0)
(289.765 0 0)
(288.853 0 0)
(287.889 0 0)
(286.869 0 0)
(285.792 0 0)
(284.654 0 0)
(283.451 0 0)
(282.18 0 0)
(280.835 0 0)
(279.413 0 0)
(277.906 0 0)
(276.309 0 0)
(274.612 0 0)
(272.801 0 0)
(270.871 0 0)
(268.833 0 0)
(266.664 0 0)
(264.175 0 0)
(261.189 0 0)
(258.45 0 0)
(257.803 0 0)
(257.399 0 0)
(243.633 0 0)
(203.24 0 0)
(154.277 0 0)
(123.691 0 0)
(111.587 0 0)
(107.992 0 0)
(107.195 0 0)
(107.578 0 0)
(292.771 0 0)
(293.349 0 0)
(293.901 0 0)
(294.429 0 0)
(294.931 0 0)
(295.409 0 0)
(295.862 0 0)
(296.29 0 0)
(296.694 0 0)
(297.073 0 0)
(297.428 0 0)
(297.758 0 0)
(298.063 0 0)
(298.344 0 0)
(298.6 0 0)
(298.832 0 0)
(299.038 0 0)
(299.22 0 0)
(299.376 0 0)
(299.508 0 0)
(299.614 0 0)
(299.694 0 0)
(299.749 0 0)
(299.777 0 0)
(299.78 0 0)
(299.756 0 0)
(299.705 0 0)
(299.627 0 0)
(299.522 0 0)
(299.389 0 0)
(299.228 0 0)
(299.039 0 0)
(298.82 0 0)
(298.572 0 0)
(298.294 0 0)
(297.985 0 0)
(297.645 0 0)
(297.274 0 0)
(296.87 0 0)
(296.432 0 0)
(295.96 0 0)
(295.454 0 0)
(294.911 0 0)
(294.332 0 0)
(293.714 0 0)
(293.058 0 0)
(292.36 0 0)
(291.621 0 0)
(290.838 0 0)
(290.01 0 0)
(289.135 0 0)
(288.211 0 0)
(287.235 0 0)
(286.205 0 0)
(285.119 0 0)
(283.973 0 0)
(282.764 0 0)
(281.487 0 0)
(280.139 0 0)
(278.714 0 0)
(277.206 0 0)
(275.609 0 0)
(273.914 0 0)
(272.107 0 0)
(270.184 0 0)
(268.159 0 0)
(265.996 0 0)
(263.484 0 0)
(260.496 0 0)
(257.958 0 0)
(257.688 0 0)
(256.79 0 0)
(240.28 0 0)
(197.206 0 0)
(149.342 0 0)
(121.356 0 0)
(110.768 0 0)
(107.63 0 0)
(107.242 0 0)
(293.333 0 0)
(293.871 0 0)
(294.386 0 0)
(294.877 0 0)
(295.345 0 0)
(295.79 0 0)
(296.211 0 0)
(296.609 0 0)
(296.984 0 0)
(297.336 0 0)
(297.664 0 0)
(297.969 0 0)
(298.251 0 0)
(298.51 0 0)
(298.744 0 0)
(298.956 0 0)
(299.144 0 0)
(299.308 0 0)
(299.448 0 0)
(299.564 0 0)
(299.656 0 0)
(299.724 0 0)
(299.767 0 0)
(299.785 0 0)
(299.779 0 0)
(299.747 0 0)
(299.689 0 0)
(299.606 0 0)
(299.497 0 0)
(299.361 0 0)
(299.198 0 0)
(299.008 0 0)
(298.79 0 0)
(298.544 0 0)
(298.27 0 0)
(297.966 0 0)
(297.633 0 0)
(297.269 0 0)
(296.875 0 0)
(296.448 0 0)
(295.989 0 0)
(295.497 0 0)
(294.971 0 0)
(294.41 0 0)
(293.813 0 0)
(293.178 0 0)
(292.506 0 0)
(291.793 0 0)
(291.04 0 0)
(290.244 0 0)
(289.404 0 0)
(288.517 0 0)
(287.583 0 0)
(286.598 0 0)
(285.561 0 0)
(284.468 0 0)
(283.316 0 0)
(282.103 0 0)
(280.823 0 0)
(279.474 0 0)
(278.048 0 0)
(276.542 0 0)
(274.949 0 0)
(273.258 0 0)
(271.458 0 0)
(269.546 0 0)
(267.538 0 0)
(265.383 0 0)
(262.856 0 0)
(259.884 0 0)
(257.55 0 0)
(257.592 0 0)
(256.144 0 0)
(237.213 0 0)
(192.177 0 0)
(145.494 0 0)
(119.632 0 0)
(110.079 0 0)
(107.523 0 0)
(293.854 0 0)
(294.356 0 0)
(294.836 0 0)
(295.294 0 0)
(295.73 0 0)
(296.143 0 0)
(296.535 0 0)
(296.905 0 0)
(297.252 0 0)
(297.578 0 0)
(297.882 0 0)
(298.164 0 0)
(298.423 0 0)
(298.661 0 0)
(298.876 0 0)
(299.069 0 0)
(299.239 0 0)
(299.387 0 0)
(299.512 0 0)
(299.614 0 0)
(299.693 0 0)
(299.749 0 0)
(299.781 0 0)
(299.79 0 0)
(299.775 0 0)
(299.735 0 0)
(299.672 0 0)
(299.583 0 0)
(299.47 0 0)
(299.332 0 0)
(299.167 0 0)
(298.977 0 0)
(298.761 0 0)
(298.517 0 0)
(298.246 0 0)
(297.948 0 0)
(297.621 0 0)
(297.265 0 0)
(296.879 0 0)
(296.464 0 0)
(296.017 0 0)
(295.539 0 0)
(295.029 0 0)
(294.485 0 0)
(293.907 0 0)
(293.294 0 0)
(292.645 0 0)
(291.958 0 0)
(291.233 0 0)
(290.467 0 0)
(289.66 0 0)
(288.809 0 0)
(287.914 0 0)
(286.972 0 0)
(285.98 0 0)
(284.937 0 0)
(283.839 0 0)
(282.684 0 0)
(281.469 0 0)
(280.189 0 0)
(278.84 0 0)
(277.417 0 0)
(275.916 0 0)
(274.329 0 0)
(272.646 0 0)
(270.855 0 0)
(268.958 0 0)
(266.969 0 0)
(264.827 0 0)
(262.295 0 0)
(259.352 0 0)
(257.207 0 0)
(257.5 0 0)
(255.533 0 0)
(234.646 0 0)
(188.243 0 0)
(142.667 0 0)
(118.325 0 0)
(109.614 0 0)
(294.339 0 0)
(294.807 0 0)
(295.254 0 0)
(295.68 0 0)
(296.086 0 0)
(296.47 0 0)
(296.834 0 0)
(297.178 0 0)
(297.5 0 0)
(297.802 0 0)
(298.082 0 0)
(298.342 0 0)
(298.581 0 0)
(298.799 0 0)
(298.995 0 0)
(299.171 0 0)
(299.325 0 0)
(299.457 0 0)
(299.568 0 0)
(299.657 0 0)
(299.724 0 0)
(299.768 0 0)
(299.791 0 0)
(299.791 0 0)
(299.768 0 0)
(299.722 0 0)
(299.653 0 0)
(299.56 0 0)
(299.443 0 0)
(299.302 0 0)
(299.137 0 0)
(298.947 0 0)
(298.731 0 0)
(298.49 0 0)
(298.223 0 0)
(297.929 0 0)
(297.608 0 0)
(297.26 0 0)
(296.884 0 0)
(296.479 0 0)
(296.044 0 0)
(295.579 0 0)
(295.084 0 0)
(294.557 0 0)
(293.998 0 0)
(293.405 0 0)
(292.778 0 0)
(292.116 0 0)
(291.417 0 0)
(290.68 0 0)
(289.904 0 0)
(289.088 0 0)
(288.229 0 0)
(287.327 0 0)
(286.378 0 0)
(285.382 0 0)
(284.335 0 0)
(283.235 0 0)
(282.079 0 0)
(280.863 0 0)
(279.585 0 0)
(278.24 0 0)
(276.822 0 0)
(275.327 0 0)
(273.749 0 0)
(272.077 0 0)
(270.3 0 0)
(268.421 0 0)
(266.454 0 0)
(264.329 0 0)
(261.804 0 0)
(258.898 0 0)
(256.915 0 0)
(257.401 0 0)
(255.039 0 0)
(232.738 0 0)
(185.492 0 0)
(140.736 0 0)
(117.056 0 0)
(294.79 0 0)
(295.226 0 0)
(295.642 0 0)
(296.039 0 0)
(296.416 0 0)
(296.773 0 0)
(297.111 0 0)
(297.43 0 0)
(297.728 0 0)
(298.007 0 0)
(298.267 0 0)
(298.506 0 0)
(298.725 0 0)
(298.925 0 0)
(299.104 0 0)
(299.263 0 0)
(299.401 0 0)
(299.52 0 0)
(299.617 0 0)
(299.694 0 0)
(299.749 0 0)
(299.784 0 0)
(299.797 0 0)
(299.789 0 0)
(299.758 0 0)
(299.706 0 0)
(299.632 0 0)
(299.535 0 0)
(299.415 0 0)
(299.272 0 0)
(299.106 0 0)
(298.916 0 0)
(298.702 0 0)
(298.463 0 0)
(298.2 0 0)
(297.911 0 0)
(297.597 0 0)
(297.256 0 0)
(296.888 0 0)
(296.493 0 0)
(296.07 0 0)
(295.618 0 0)
(295.137 0 0)
(294.627 0 0)
(294.085 0 0)
(293.512 0 0)
(292.906 0 0)
(292.267 0 0)
(291.593 0 0)
(290.884 0 0)
(290.138 0 0)
(289.354 0 0)
(288.53 0 0)
(287.665 0 0)
(286.757 0 0)
(285.804 0 0)
(284.804 0 0)
(283.756 0 0)
(282.655 0 0)
(281.5 0 0)
(280.287 0 0)
(279.012 0 0)
(277.672 0 0)
(276.262 0 0)
(274.777 0 0)
(273.21 0 0)
(271.552 0 0)
(269.791 0 0)
(267.933 0 0)
(265.991 0 0)
(263.89 0 0)
(261.382 0 0)
(258.518 0 0)
(256.658 0 0)
(257.292 0 0)
(254.719 0 0)
(231.614 0 0)
(184.144 0 0)
(137.814 0 0)
(295.208 0 0)
(295.614 0 0)
(296.002 0 0)
(296.371 0 0)
(296.721 0 0)
(297.054 0 0)
(297.367 0 0)
(297.662 0 0)
(297.939 0 0)
(298.197 0 0)
(298.436 0 0)
(298.656 0 0)
(298.857 0 0)
(299.039 0 0)
(299.202 0 0)
(299.346 0 0)
(299.47 0 0)
(299.575 0 0)
(299.66 0 0)
(299.725 0 0)
(299.77 0 0)
(299.795 0 0)
(299.8 0 0)
(299.784 0 0)
(299.747 0 0)
(299.689 0 0)
(299.61 0 0)
(299.509 0 0)
(299.387 0 0)
(299.242 0 0)
(299.075 0 0)
(298.886 0 0)
(298.673 0 0)
(298.437 0 0)
(298.177 0 0)
(297.893 0 0)
(297.585 0 0)
(297.251 0 0)
(296.892 0 0)
(296.507 0 0)
(296.095 0 0)
(295.656 0 0)
(295.189 0 0)
(294.693 0 0)
(294.169 0 0)
(293.614 0 0)
(293.029 0 0)
(292.412 0 0)
(291.762 0 0)
(291.079 0 0)
(290.361 0 0)
(289.607 0 0)
(288.816 0 0)
(287.986 0 0)
(287.117 0 0)
(286.205 0 0)
(285.25 0 0)
(284.249 0 0)
(283.2 0 0)
(282.101 0 0)
(280.949 0 0)
(279.74 0 0)
(278.472 0 0)
(277.139 0 0)
(275.739 0 0)
(274.265 0 0)
(272.713 0 0)
(271.071 0 0)
(269.33 0 0)
(267.495 0 0)
(265.58 0 0)
(263.509 0 0)
(261.031 0 0)
(258.209 0 0)
(256.424 0 0)
(257.185 0 0)
(254.468 0 0)
(232.37 0 0)
(177.982 0 0)
(295.596 0 0)
(295.975 0 0)
(296.335 0 0)
(296.679 0 0)
(297.004 0 0)
(297.313 0 0)
(297.604 0 0)
(297.877 0 0)
(298.133 0 0)
(298.371 0 0)
(298.591 0 0)
(298.793 0 0)
(298.977 0 0)
(299.143 0 0)
(299.291 0 0)
(299.42 0 0)
(299.531 0 0)
(299.623 0 0)
(299.697 0 0)
(299.751 0 0)
(299.786 0 0)
(299.802 0 0)
(299.799 0 0)
(299.776 0 0)
(299.733 0 0)
(299.67 0 0)
(299.587 0 0)
(299.483 0 0)
(299.358 0 0)
(299.212 0 0)
(299.045 0 0)
(298.856 0 0)
(298.645 0 0)
(298.411 0 0)
(298.155 0 0)
(297.876 0 0)
(297.573 0 0)
(297.247 0 0)
(296.896 0 0)
(296.52 0 0)
(296.119 0 0)
(295.692 0 0)
(295.238 0 0)
(294.757 0 0)
(294.249 0 0)
(293.712 0 0)
(293.146 0 0)
(292.55 0 0)
(291.924 0 0)
(291.265 0 0)
(290.574 0 0)
(289.849 0 0)
(289.089 0 0)
(288.293 0 0)
(287.459 0 0)
(286.586 0 0)
(285.673 0 0)
(284.717 0 0)
(283.717 0 0)
(282.67 0 0)
(281.573 0 0)
(280.426 0 0)
(279.223 0 0)
(277.963 0 0)
(276.641 0 0)
(275.252 0 0)
(273.792 0 0)
(272.256 0 0)
(270.634 0 0)
(268.915 0 0)
(267.105 0 0)
(265.222 0 0)
(263.186 0 0)
(260.753 0 0)
(257.954 0 0)
(256.302 0 0)
(256.527 0 0)
(257.169 0 0)
(221.815 0 0)
(295.957 0 0)
(296.309 0 0)
(296.644 0 0)
(296.964 0 0)
(297.266 0 0)
(297.552 0 0)
(297.822 0 0)
(298.075 0 0)
(298.311 0 0)
(298.53 0 0)
(298.733 0 0)
(298.918 0 0)
(299.086 0 0)
(299.237 0 0)
(299.37 0 0)
(299.486 0 0)
(299.585 0 0)
(299.665 0 0)
(299.728 0 0)
(299.772 0 0)
(299.799 0 0)
(299.806 0 0)
(299.796 0 0)
(299.766 0 0)
(299.718 0 0)
(299.65 0 0)
(299.562 0 0)
(299.456 0 0)
(299.329 0 0)
(299.182 0 0)
(299.014 0 0)
(298.826 0 0)
(298.616 0 0)
(298.386 0 0)
(298.133 0 0)
(297.859 0 0)
(297.562 0 0)
(297.242 0 0)
(296.899 0 0)
(296.533 0 0)
(296.142 0 0)
(295.726 0 0)
(295.285 0 0)
(294.819 0 0)
(294.326 0 0)
(293.806 0 0)
(293.259 0 0)
(292.683 0 0)
(292.078 0 0)
(291.443 0 0)
(290.778 0 0)
(290.08 0 0)
(289.349 0 0)
(288.585 0 0)
(287.785 0 0)
(286.949 0 0)
(286.075 0 0)
(285.161 0 0)
(284.206 0 0)
(283.207 0 0)
(282.164 0 0)
(281.073 0 0)
(279.932 0 0)
(278.737 0 0)
(277.487 0 0)
(276.176 0 0)
(274.802 0 0)
(273.358 0 0)
(271.841 0 0)
(270.24 0 0)
(268.546 0 0)
(266.765 0 0)
(264.912 0 0)
(262.929 0 0)
(260.496 0 0)
(258.001 0 0)
(255.153 0 0)
(259.976 0 0)
(246.411 0 0)
(296.291 0 0)
(296.619 0 0)
(296.931 0 0)
(297.227 0 0)
(297.508 0 0)
(297.773 0 0)
(298.023 0 0)
(298.257 0 0)
(298.475 0 0)
(298.676 0 0)
(298.862 0 0)
(299.032 0 0)
(299.185 0 0)
(299.322 0 0)
(299.442 0 0)
(299.545 0 0)
(299.632 0 0)
(299.701 0 0)
(299.754 0 0)
(299.789 0 0)
(299.807 0 0)
(299.807 0 0)
(299.79 0 0)
(299.754 0 0)
(299.7 0 0)
(299.628 0 0)
(299.537 0 0)
(299.428 0 0)
(299.299 0 0)
(299.151 0 0)
(298.984 0 0)
(298.796 0 0)
(298.589 0 0)
(298.361 0 0)
(298.112 0 0)
(297.842 0 0)
(297.551 0 0)
(297.238 0 0)
(296.903 0 0)
(296.545 0 0)
(296.164 0 0)
(295.759 0 0)
(295.331 0 0)
(294.878 0 0)
(294.4 0 0)
(293.897 0 0)
(293.367 0 0)
(292.811 0 0)
(292.226 0 0)
(291.614 0 0)
(290.972 0 0)
(290.301 0 0)
(289.598 0 0)
(288.863 0 0)
(288.096 0 0)
(287.294 0 0)
(286.456 0 0)
(285.582 0 0)
(284.67 0 0)
(283.717 0 0)
(282.723 0 0)
(281.684 0 0)
(280.6 0 0)
(279.467 0 0)
(278.282 0 0)
(277.043 0 0)
(275.747 0 0)
(274.388 0 0)
(272.963 0 0)
(271.467 0 0)
(269.89 0 0)
(268.225 0 0)
(266.468 0 0)
(264.674 0 0)
(262.634 0 0)
(260.675 0 0)
(256.834 0 0)
(257.876 0 0)
(253.926 0 0)
(296.601 0 0)
(296.906 0 0)
(297.196 0 0)
(297.471 0 0)
(297.732 0 0)
(297.977 0 0)
(298.208 0 0)
(298.424 0 0)
(298.625 0 0)
(298.81 0 0)
(298.98 0 0)
(299.135 0 0)
(299.274 0 0)
(299.398 0 0)
(299.505 0 0)
(299.597 0 0)
(299.673 0 0)
(299.732 0 0)
(299.775 0 0)
(299.802 0 0)
(299.812 0 0)
(299.805 0 0)
(299.781 0 0)
(299.74 0 0)
(299.682 0 0)
(299.605 0 0)
(299.511 0 0)
(299.4 0 0)
(299.269 0 0)
(299.121 0 0)
(298.953 0 0)
(298.767 0 0)
(298.561 0 0)
(298.336 0 0)
(298.091 0 0)
(297.826 0 0)
(297.54 0 0)
(297.233 0 0)
(296.906 0 0)
(296.556 0 0)
(296.185 0 0)
(295.792 0 0)
(295.375 0 0)
(294.935 0 0)
(294.472 0 0)
(293.984 0 0)
(293.471 0 0)
(292.933 0 0)
(292.368 0 0)
(291.777 0 0)
(291.158 0 0)
(290.511 0 0)
(289.835 0 0)
(289.129 0 0)
(288.392 0 0)
(287.622 0 0)
(286.82 0 0)
(285.983 0 0)
(285.11 0 0)
(284.2 0 0)
(283.251 0 0)
(282.262 0 0)
(281.23 0 0)
(280.154 0 0)
(279.031 0 0)
(277.858 0 0)
(276.633 0 0)
(275.351 0 0)
(274.01 0 0)
(272.606 0 0)
(271.132 0 0)
(269.585 0 0)
(267.939 0 0)
(266.253 0 0)
(264.363 0 0)
(262.776 0 0)
(259.857 0 0)
(258.204 0 0)
(255.879 0 0)
(296.889 0 0)
(297.172 0 0)
(297.441 0 0)
(297.696 0 0)
(297.938 0 0)
(298.165 0 0)
(298.378 0 0)
(298.577 0 0)
(298.762 0 0)
(298.932 0 0)
(299.088 0 0)
(299.229 0 0)
(299.355 0 0)
(299.466 0 0)
(299.562 0 0)
(299.643 0 0)
(299.708 0 0)
(299.758 0 0)
(299.793 0 0)
(299.811 0 0)
(299.814 0 0)
(299.8 0 0)
(299.771 0 0)
(299.724 0 0)
(299.661 0 0)
(299.582 0 0)
(299.485 0 0)
(299.371 0 0)
(299.239 0 0)
(299.09 0 0)
(298.923 0 0)
(298.738 0 0)
(298.534 0 0)
(298.311 0 0)
(298.07 0 0)
(297.809 0 0)
(297.529 0 0)
(297.229 0 0)
(296.909 0 0)
(296.568 0 0)
(296.206 0 0)
(295.822 0 0)
(295.417 0 0)
(294.99 0 0)
(294.54 0 0)
(294.067 0 0)
(293.571 0 0)
(293.05 0 0)
(292.504 0 0)
(291.934 0 0)
(291.337 0 0)
(290.713 0 0)
(290.062 0 0)
(289.382 0 0)
(288.674 0 0)
(287.935 0 0)
(287.165 0 0)
(286.363 0 0)
(285.528 0 0)
(284.658 0 0)
(283.752 0 0)
(282.809 0 0)
(281.826 0 0)
(280.803 0 0)
(279.736 0 0)
(278.625 0 0)
(277.465 0 0)
(276.255 0 0)
(274.991 0 0)
(273.669 0 0)
(272.286 0 0)
(270.841 0 0)
(269.309 0 0)
(267.736 0 0)
(265.973 0 0)
(264.382 0 0)
(262.34 0 0)
(260.291 0 0)
(257.643 0 0)
(297.155 0 0)
(297.418 0 0)
(297.668 0 0)
(297.904 0 0)
(298.128 0 0)
(298.338 0 0)
(298.535 0 0)
(298.718 0 0)
(298.887 0 0)
(299.043 0 0)
(299.185 0 0)
(299.313 0 0)
(299.427 0 0)
(299.526 0 0)
(299.612 0 0)
(299.682 0 0)
(299.738 0 0)
(299.779 0 0)
(299.806 0 0)
(299.817 0 0)
(299.813 0 0)
(299.793 0 0)
(299.758 0 0)
(299.707 0 0)
(299.64 0 0)
(299.557 0 0)
(299.458 0 0)
(299.342 0 0)
(299.209 0 0)
(299.06 0 0)
(298.893 0 0)
(298.709 0 0)
(298.507 0 0)
(298.288 0 0)
(298.05 0 0)
(297.793 0 0)
(297.519 0 0)
(297.225 0 0)
(296.911 0 0)
(296.578 0 0)
(296.225 0 0)
(295.852 0 0)
(295.458 0 0)
(295.043 0 0)
(294.606 0 0)
(294.148 0 0)
(293.666 0 0)
(293.162 0 0)
(292.635 0 0)
(292.083 0 0)
(291.507 0 0)
(290.906 0 0)
(290.278 0 0)
(289.624 0 0)
(288.943 0 0)
(288.233 0 0)
(287.494 0 0)
(286.725 0 0)
(285.925 0 0)
(285.093 0 0)
(284.227 0 0)
(283.327 0 0)
(282.39 0 0)
(281.416 0 0)
(280.402 0 0)
(279.346 0 0)
(278.247 0 0)
(277.102 0 0)
(275.909 0 0)
(274.664 0 0)
(273.363 0 0)
(272.007 0 0)
(270.578 0 0)
(269.105 0 0)
(267.503 0 0)
(265.893 0 0)
(264.157 0 0)
(262.46 0 0)
(259.8 0 0)
(297.401 0 0)
(297.645 0 0)
(297.877 0 0)
(298.096 0 0)
(298.303 0 0)
(298.497 0 0)
(298.678 0 0)
(298.847 0 0)
(299.002 0 0)
(299.144 0 0)
(299.274 0 0)
(299.389 0 0)
(299.492 0 0)
(299.58 0 0)
(299.655 0 0)
(299.716 0 0)
(299.763 0 0)
(299.796 0 0)
(299.815 0 0)
(299.819 0 0)
(299.809 0 0)
(299.784 0 0)
(299.743 0 0)
(299.688 0 0)
(299.618 0 0)
(299.532 0 0)
(299.43 0 0)
(299.313 0 0)
(299.179 0 0)
(299.03 0 0)
(298.863 0 0)
(298.681 0 0)
(298.481 0 0)
(298.264 0 0)
(298.03 0 0)
(297.778 0 0)
(297.508 0 0)
(297.22 0 0)
(296.914 0 0)
(296.589 0 0)
(296.244 0 0)
(295.881 0 0)
(295.497 0 0)
(295.094 0 0)
(294.67 0 0)
(294.225 0 0)
(293.758 0 0)
(293.27 0 0)
(292.76 0 0)
(292.227 0 0)
(291.67 0 0)
(291.09 0 0)
(290.485 0 0)
(289.855 0 0)
(289.2 0 0)
(288.517 0 0)
(287.808 0 0)
(287.07 0 0)
(286.303 0 0)
(285.506 0 0)
(284.678 0 0)
(283.818 0 0)
(282.924 0 0)
(281.996 0 0)
(281.031 0 0)
(280.027 0 0)
(278.984 0 0)
(277.9 0 0)
(276.771 0 0)
(275.595 0 0)
(274.37 0 0)
(273.094 0 0)
(271.757 0 0)
(270.371 0 0)
(268.904 0 0)
(267.381 0 0)
(265.727 0 0)
(264.26 0 0)
(261.863 0 0)
(297.628 0 0)
(297.855 0 0)
(298.07 0 0)
(298.273 0 0)
(298.464 0 0)
(298.643 0 0)
(298.809 0 0)
(298.964 0 0)
(299.106 0 0)
(299.236 0 0)
(299.353 0 0)
(299.458 0 0)
(299.549 0 0)
(299.628 0 0)
(299.693 0 0)
(299.745 0 0)
(299.784 0 0)
(299.809 0 0)
(299.821 0 0)
(299.819 0 0)
(299.802 0 0)
(299.772 0 0)
(299.727 0 0)
(299.668 0 0)
(299.594 0 0)
(299.506 0 0)
(299.402 0 0)
(299.283 0 0)
(299.149 0 0)
(298.999 0 0)
(298.834 0 0)
(298.653 0 0)
(298.455 0 0)
(298.241 0 0)
(298.01 0 0)
(297.763 0 0)
(297.498 0 0)
(297.216 0 0)
(296.916 0 0)
(296.599 0 0)
(296.263 0 0)
(295.908 0 0)
(295.535 0 0)
(295.143 0 0)
(294.731 0 0)
(294.299 0 0)
(293.847 0 0)
(293.374 0 0)
(292.88 0 0)
(292.364 0 0)
(291.827 0 0)
(291.266 0 0)
(290.683 0 0)
(290.076 0 0)
(289.445 0 0)
(288.788 0 0)
(288.107 0 0)
(287.398 0 0)
(286.663 0 0)
(285.899 0 0)
(285.107 0 0)
(284.284 0 0)
(283.43 0 0)
(282.544 0 0)
(281.625 0 0)
(280.67 0 0)
(279.679 0 0)
(278.65 0 0)
(277.581 0 0)
(276.469 0 0)
(275.313 0 0)
(274.111 0 0)
(272.856 0 0)
(271.551 0 0)
(270.184 0 0)
(268.776 0 0)
(267.216 0 0)
(265.843 0 0)
(263.682 0 0)
(297.839 0 0)
(298.049 0 0)
(298.247 0 0)
(298.435 0 0)
(298.611 0 0)
(298.776 0 0)
(298.929 0 0)
(299.071 0 0)
(299.201 0 0)
(299.319 0 0)
(299.425 0 0)
(299.519 0 0)
(299.6 0 0)
(299.669 0 0)
(299.726 0 0)
(299.77 0 0)
(299.801 0 0)
(299.819 0 0)
(299.824 0 0)
(299.816 0 0)
(299.794 0 0)
(299.759 0 0)
(299.71 0 0)
(299.647 0 0)
(299.57 0 0)
(299.479 0 0)
(299.374 0 0)
(299.254 0 0)
(299.119 0 0)
(298.97 0 0)
(298.805 0 0)
(298.625 0 0)
(298.429 0 0)
(298.218 0 0)
(297.991 0 0)
(297.748 0 0)
(297.488 0 0)
(297.212 0 0)
(296.918 0 0)
(296.608 0 0)
(296.28 0 0)
(295.935 0 0)
(295.571 0 0)
(295.19 0 0)
(294.789 0 0)
(294.37 0 0)
(293.931 0 0)
(293.473 0 0)
(292.995 0 0)
(292.496 0 0)
(291.976 0 0)
(291.435 0 0)
(290.872 0 0)
(290.287 0 0)
(289.679 0 0)
(289.047 0 0)
(288.392 0 0)
(287.711 0 0)
(287.005 0 0)
(286.273 0 0)
(285.513 0 0)
(284.726 0 0)
(283.91 0 0)
(283.064 0 0)
(282.187 0 0)
(281.278 0 0)
(280.335 0 0)
(279.358 0 0)
(278.343 0 0)
(277.291 0 0)
(276.198 0 0)
(275.063 0 0)
(273.882 0 0)
(272.656 0 0)
(271.371 0 0)
(270.06 0 0)
(268.61 0 0)
(267.317 0 0)
(265.327 0 0)
(298.033 0 0)
(298.227 0 0)
(298.411 0 0)
(298.584 0 0)
(298.747 0 0)
(298.898 0 0)
(299.039 0 0)
(299.168 0 0)
(299.287 0 0)
(299.394 0 0)
(299.489 0 0)
(299.573 0 0)
(299.645 0 0)
(299.705 0 0)
(299.754 0 0)
(299.79 0 0)
(299.813 0 0)
(299.825 0 0)
(299.824 0 0)
(299.81 0 0)
(299.783 0 0)
(299.744 0 0)
(299.691 0 0)
(299.625 0 0)
(299.545 0 0)
(299.452 0 0)
(299.345 0 0)
(299.224 0 0)
(299.089 0 0)
(298.94 0 0)
(298.776 0 0)
(298.598 0 0)
(298.404 0 0)
(298.196 0 0)
(297.972 0 0)
(297.733 0 0)
(297.478 0 0)
(297.207 0 0)
(296.921 0 0)
(296.617 0 0)
(296.297 0 0)
(295.96 0 0)
(295.606 0 0)
(295.235 0 0)
(294.846 0 0)
(294.439 0 0)
(294.013 0 0)
(293.569 0 0)
(293.105 0 0)
(292.623 0 0)
(292.12 0 0)
(291.597 0 0)
(291.054 0 0)
(290.489 0 0)
(289.903 0 0)
(289.294 0 0)
(288.663 0 0)
(288.009 0 0)
(287.331 0 0)
(286.628 0 0)
(285.9 0 0)
(285.146 0 0)
(284.366 0 0)
(283.557 0 0)
(282.72 0 0)
(281.853 0 0)
(280.955 0 0)
(280.025 0 0)
(279.062 0 0)
(278.063 0 0)
(277.029 0 0)
(275.956 0 0)
(274.842 0 0)
(273.688 0 0)
(272.48 0 0)
(271.249 0 0)
(269.899 0 0)
(268.69 0 0)
(266.845 0 0)
(298.212 0 0)
(298.392 0 0)
(298.562 0 0)
(298.721 0 0)
(298.871 0 0)
(299.01 0 0)
(299.139 0 0)
(299.257 0 0)
(299.364 0 0)
(299.461 0 0)
(299.546 0 0)
(299.621 0 0)
(299.684 0 0)
(299.736 0 0)
(299.777 0 0)
(299.806 0 0)
(299.823 0 0)
(299.828 0 0)
(299.821 0 0)
(299.802 0 0)
(299.771 0 0)
(299.727 0 0)
(299.671 0 0)
(299.602 0 0)
(299.52 0 0)
(299.425 0 0)
(299.316 0 0)
(299.195 0 0)
(299.059 0 0)
(298.91 0 0)
(298.748 0 0)
(298.571 0 0)
(298.38 0 0)
(298.174 0 0)
(297.954 0 0)
(297.719 0 0)
(297.469 0 0)
(297.203 0 0)
(296.922 0 0)
(296.626 0 0)
(296.314 0 0)
(295.985 0 0)
(295.64 0 0)
(295.279 0 0)
(294.9 0 0)
(294.505 0 0)
(294.091 0 0)
(293.66 0 0)
(293.211 0 0)
(292.744 0 0)
(292.258 0 0)
(291.752 0 0)
(291.227 0 0)
(290.682 0 0)
(290.117 0 0)
(289.53 0 0)
(288.923 0 0)
(288.293 0 0)
(287.642 0 0)
(286.967 0 0)
(286.268 0 0)
(285.546 0 0)
(284.798 0 0)
(284.025 0 0)
(283.225 0 0)
(282.397 0 0)
(281.541 0 0)
(280.656 0 0)
(279.74 0 0)
(278.792 0 0)
(277.81 0 0)
(276.795 0 0)
(275.742 0 0)
(274.653 0 0)
(273.517 0 0)
(272.359 0 0)
(271.095 0 0)
(269.962 0 0)
(268.25 0 0)
(298.377 0 0)
(298.543 0 0)
(298.7 0 0)
(298.847 0 0)
(298.984 0 0)
(299.112 0 0)
(299.229 0 0)
(299.337 0 0)
(299.434 0 0)
(299.521 0 0)
(299.597 0 0)
(299.663 0 0)
(299.718 0 0)
(299.762 0 0)
(299.796 0 0)
(299.818 0 0)
(299.829 0 0)
(299.828 0 0)
(299.816 0 0)
(299.792 0 0)
(299.757 0 0)
(299.709 0 0)
(299.65 0 0)
(299.578 0 0)
(299.494 0 0)
(299.397 0 0)
(299.287 0 0)
(299.165 0 0)
(299.03 0 0)
(298.881 0 0)
(298.72 0 0)
(298.544 0 0)
(298.355 0 0)
(298.152 0 0)
(297.936 0 0)
(297.705 0 0)
(297.459 0 0)
(297.199 0 0)
(296.924 0 0)
(296.634 0 0)
(296.329 0 0)
(296.009 0 0)
(295.673 0 0)
(295.321 0 0)
(294.953 0 0)
(294.568 0 0)
(294.167 0 0)
(293.749 0 0)
(293.313 0 0)
(292.86 0 0)
(292.39 0 0)
(291.901 0 0)
(291.393 0 0)
(290.867 0 0)
(290.321 0 0)
(289.756 0 0)
(289.171 0 0)
(288.565 0 0)
(287.938 0 0)
(287.289 0 0)
(286.619 0 0)
(285.926 0 0)
(285.209 0 0)
(284.469 0 0)
(283.703 0 0)
(282.913 0 0)
(282.096 0 0)
(281.252 0 0)
(280.38 0 0)
(279.479 0 0)
(278.547 0 0)
(277.584 0 0)
(276.587 0 0)
(275.558 0 0)
(274.487 0 0)
(273.396 0 0)
(272.21 0 0)
(271.145 0 0)
(269.551 0 0)
(298.529 0 0)
(298.682 0 0)
(298.826 0 0)
(298.962 0 0)
(299.088 0 0)
(299.204 0 0)
(299.311 0 0)
(299.409 0 0)
(299.496 0 0)
(299.574 0 0)
(299.642 0 0)
(299.7 0 0)
(299.747 0 0)
(299.784 0 0)
(299.811 0 0)
(299.826 0 0)
(299.831 0 0)
(299.826 0 0)
(299.809 0 0)
(299.781 0 0)
(299.741 0 0)
(299.69 0 0)
(299.628 0 0)
(299.553 0 0)
(299.467 0 0)
(299.369 0 0)
(299.258 0 0)
(299.136 0 0)
(299 0 0)
(298.853 0 0)
(298.692 0 0)
(298.518 0 0)
(298.331 0 0)
(298.131 0 0)
(297.918 0 0)
(297.691 0 0)
(297.45 0 0)
(297.195 0 0)
(296.926 0 0)
(296.643 0 0)
(296.345 0 0)
(296.032 0 0)
(295.704 0 0)
(295.361 0 0)
(295.003 0 0)
(294.629 0 0)
(294.239 0 0)
(293.833 0 0)
(293.411 0 0)
(292.972 0 0)
(292.516 0 0)
(292.043 0 0)
(291.552 0 0)
(291.044 0 0)
(290.517 0 0)
(289.972 0 0)
(289.407 0 0)
(288.824 0 0)
(288.22 0 0)
(287.597 0 0)
(286.953 0 0)
(286.287 0 0)
(285.6 0 0)
(284.89 0 0)
(284.158 0 0)
(283.402 0 0)
(282.622 0 0)
(281.817 0 0)
(280.985 0 0)
(280.128 0 0)
(279.242 0 0)
(278.328 0 0)
(277.383 0 0)
(276.409 0 0)
(275.396 0 0)
(274.367 0 0)
(273.251 0 0)
(272.248 0 0)
(270.76 0 0)
(298.668 0 0)
(298.81 0 0)
(298.942 0 0)
(299.066 0 0)
(299.182 0 0)
(299.288 0 0)
(299.385 0 0)
(299.473 0 0)
(299.552 0 0)
(299.621 0 0)
(299.681 0 0)
(299.731 0 0)
(299.772 0 0)
(299.802 0 0)
(299.822 0 0)
(299.832 0 0)
(299.832 0 0)
(299.821 0 0)
(299.799 0 0)
(299.767 0 0)
(299.724 0 0)
(299.67 0 0)
(299.605 0 0)
(299.528 0 0)
(299.44 0 0)
(299.341 0 0)
(299.229 0 0)
(299.106 0 0)
(298.971 0 0)
(298.824 0 0)
(298.665 0 0)
(298.493 0 0)
(298.308 0 0)
(298.111 0 0)
(297.901 0 0)
(297.677 0 0)
(297.441 0 0)
(297.191 0 0)
(296.928 0 0)
(296.65 0 0)
(296.359 0 0)
(296.054 0 0)
(295.734 0 0)