/*--------------------------------*- C++ -*----------------------------------*\
| =========                 |                                                 |
| \\      /  F ield         | OpenFOAM: The Open Source CFD Toolbox           |
|  \\    /   O peration     | Version:  2312                                  |
|   \\  /    A nd           | Website:  www.openfoam.com                      |
|    \\/     M anipulation  |                                                 |
\*---------------------------------------------------------------------------*/
FoamFile
{
    version     2.0;
    format      ascii;
    arch        "LSB;label=32;scalar=64";
    class       volScalarField;
    location    "2.5";
    object      wave;
}
// * * * * * * * * * * * * * * * * * * * * * * * * * * * * * * * * * * * * * //

dimensions      [0 0 0 0 0 0 0];

internalField   nonuniform List<scalar> 
100
(
0.533099
0.392725
0.242485
0.0861537
-0.0723424
-0.229021
-0.379946
-0.521326
-0.64961
-0.761573
-0.854404
-0.925771
-0.97388
-0.997523
-0.996107
-0.969665
-0.918864
-0.844979
-0.749866
-0.635914
-0.505987
-0.363349
-0.211582
-0.0545004
0.103951
0.25979
0.409104
0.548139
0.673404
0.781752
0.87046
0.937301
0.980594
0.999253
0.992808
0.961422
0.905882
0.827585
0.728497
0.611108
0.478366
0.333607
0.180466
0.0227922
-0.135454
-0.290298
-0.437849
-0.5744
-0.696521
-0.801144
-0.88564
-0.947887
-0.986321
-0.999976
-0.98851
-0.95221
-0.891989
-0.809358
-0.706395
-0.585686
-0.450263
-0.303528
-0.149168
0.00893887
0.166822
0.320514
0.466153
0.600082
0.718936
0.819728
0.899927
0.957518
0.991054
0.999692
0.983216
0.942039
0.877197
0.790317
0.683582
0.559675
0.421707
0.273145
0.11772
-0.040661
-0.198021
-0.350406
-0.493988
-0.625161
-0.740627
-0.837488
-0.913309
-0.966186
-0.99479
-0.998402
-0.976933
-0.93092
-0.861521
-0.770479
-0.660081
-0.533099
)
;

boundaryField
{
    movingWall
    {
        type            calculated;
        value           uniform 0;
    }
    fixedWalls
    {
        type            calculated;
        value           uniform 0;
    }
    frontAndBack
    {
        type            empty;
    }
}


// ************************************************************************* //
