/*--------------------------------*- C++ -*----------------------------------*\
| =========                 |                                                 |
| \\      /  F ield         | OpenFOAM: The Open Source CFD Toolbox           |
|  \\    /   O peration     | Version:  2312                                  |
|   \\  /    A nd           | Website:  www.openfoam.com                      |
|    \\/     M anipulation  |                                                 |
\*---------------------------------------------------------------------------*/
FoamFile
{
    version     2.0;
    format      ascii;
    arch        "LSB;label=32;scalar=64";
    class       surfaceScalarField;
    location    "0.676";
    object      phi;
}
// * * * * * * * * * * * * * * * * * * * * * * * * * * * * * * * * * * * * * //

dimensions      [0 3 -1 0 0 0 0];

oriented        oriented;

internalField   nonuniform List<scalar> 
62015
(
50.5562
0.266099
-51.6128
49.4884
0.256531
48.4081
0.246907
47.3137
0.237233
46.2035
0.227515
45.0754
0.217761
43.9272
0.207978
42.7566
0.198174
41.5608
0.188357
40.3371
0.178535
39.0827
0.16872
37.7955
0.158924
36.4742
0.149168
35.1204
0.13948
33.7404
0.129901
32.3492
0.120502
30.9727
0.111381
29.6481
0.102666
28.4182
0.0944915
27.3229
0.0869685
26.3903
0.0801538
25.6318
0.0740387
25.043
0.0685579
24.609
0.0636117
24.3088
0.0590892
24.1209
0.0548839
24.0249
0.0509033
24.0036
0.0470714
24.0426
0.0433279
24.1305
0.0396258
24.2582
0.0359292
24.4186
0.0322106
24.6061
0.0284496
24.8163
0.02463
25.0457
0.0207404
25.2917
0.0167715
25.5521
0.0127173
25.8252
0.00857253
26.1095
0.00433417
26.4041
0
26.708
-0.0044314
27.0204
-0.00896013
27.3409
-0.0135868
27.669
-0.0183102
28.0042
-0.0231297
28.3464
-0.0280436
28.6953
-0.0330507
29.0507
-0.0381484
29.4125
-0.0433352
29.7805
-0.0486081
30.1548
-0.0539648
30.5352
-0.0594026
30.9218
-0.0649187
31.3144
-0.0705099
31.7132
-0.076173
32.1181
-0.0819049
32.5292
-0.0877024
32.9464
-0.0935618
33.3699
-0.0994798
33.7995
-0.105452
34.2355
-0.111477
34.6777
-0.117548
35.1263
-0.123664
35.5813
-0.129819
36.0427
-0.13601
36.5106
-0.142233
36.9849
-0.148484
37.4659
-0.15476
37.9534
-0.161055
38.4474
-0.167366
38.9481
-0.173689
39.4555
-0.180019
39.9694
-0.186354
40.4906
-0.192685
41.0167
-0.199019
41.5548
-0.205319
42.0833
-0.211683
42.6687
-0.217786
-0.224629
43.1071
48.3385
0.516528
-49.3599
47.3054
0.497827
46.2601
0.479014
45.2007
0.460104
44.1257
0.44111
43.0331
0.422046
41.9207
0.402925
40.7862
0.383764
39.627
0.364579
38.4408
0.34539
37.2253
0.32622
35.9789
0.307101
34.7017
0.288079
33.3971
0.269222
32.0747
0.250636
30.7528
0.232479
29.4603
0.214967
28.2341
0.198355
27.1137
0.182884
26.1315
0.168723
25.3072
0.155928
24.6454
0.144435
24.1377
0.13409
23.7679
0.124694
23.5162
0.116037
23.3629
0.107928
23.2903
0.100201
23.2834
0.0927231
23.3298
0.0853874
23.4196
0.078112
23.545
0.0708331
23.6998
0.0635025
23.8792
0.056083
24.0792
0.0485469
24.297
0.0408726
24.5301
0.0330443
24.7765
0.0250502
25.0347
0.0168817
25.3036
0.00853303
25.5821
0
25.8694
-0.00871952
26.1649
-0.0176263
26.4681
-0.0267203
26.7785
-0.0360001
27.0959
-0.0454635
27.4199
-0.0551083
27.7504
-0.0649309
28.0871
-0.0749273
28.43
-0.0850938
28.779
-0.0954253
29.134
-0.105917
29.4949
-0.116563
29.8618
-0.127359
30.2346
-0.138298
30.6133
-0.149375
30.9979
-0.160582
31.3885
-0.171915
31.785
-0.183365
32.1875
-0.194926
32.5961
-0.206592
33.0107
-0.218355
33.4313
-0.230207
33.8581
-0.242143
34.2911
-0.254153
34.7302
-0.266231
35.1756
-0.278368
35.6272
-0.290559
36.0851
-0.302793
36.5494
-0.315064
37.0199
-0.327363
37.4969
-0.339683
37.9803
-0.352015
38.4699
-0.364353
38.9664
-0.376682
39.4678
-0.389015
39.9805
-0.40128
40.4845
-0.413664
41.0415
-0.425553
-0.438829
41.4636
46.1721
0.751446
-47.1603
45.1723
0.724027
44.1602
0.696447
43.1342
0.668723
42.0927
0.640877
41.0338
0.612928
39.9554
0.584899
38.8552
0.556813
37.7311
0.528697
36.581
0.500583
35.4031
0.472513
34.1969
0.444544
32.9642
0.416758
31.7109
0.389282
30.4498
0.362307
29.2028
0.336104
28.0002
0.311011
26.8779
0.287389
25.8693
0.265539
24.9995
0.245628
24.28
0.227657
23.7097
0.211475
23.2773
0.196831
22.9664
0.183433
22.7588
0.170992
22.6369
0.15925
22.5854
0.147989
22.5914
0.137035
22.6442
0.126247
22.7355
0.115518
22.8585
0.104765
23.0079
0.0939225
23.1795
0.0829425
23.3699
0.0717873
23.5766
0.0604284
23.7974
0.0488444
24.0306
0.0370195
24.2749
0.0249418
24.5291
0.0126039
24.7925
0
25.0641
-0.0128725
25.3436
-0.0260146
25.6304
-0.0394257
25.9242
-0.053104
26.2246
-0.0670465
26.5314
-0.0812489
26.8444
-0.0957069
27.1635
-0.110414
27.4886
-0.125366
27.8195
-0.140553
28.1562
-0.155971
28.4987
-0.17161
28.8469
-0.187463
29.2009
-0.203522
29.5606
-0.219776
29.926
-0.236218
30.2971
-0.252838
30.674
-0.269627
31.0567
-0.286573
31.4452
-0.303668
31.8395
-0.320901
32.2397
-0.338261
32.6458
-0.355738
33.0579
-0.373321
33.4759
-0.390999
33.8999
-0.408761
34.3299
-0.426595
34.766
-0.44449
35.2082
-0.462436
35.6565
-0.480419
36.1109
-0.49843
36.5714
-0.516454
37.038
-0.534484
37.5112
-0.552498
37.9891
-0.570513
38.4777
-0.588429
38.9585
-0.606508
39.4885
-0.623882
-0.643215
39.8937
44.0757
0.971322
-45.0323
43.1075
0.935583
42.127
0.899634
41.1328
0.8635
40.1232
0.827205
39.0963
0.79078
38.0502
0.754252
36.9828
0.717656
35.8923
0.681031
34.777
0.644425
33.6359
0.607904
32.4699
0.571561
31.2827
0.535532
30.0831
0.500025
28.8875
0.465337
27.7201
0.431861
26.6119
0.40005
25.5951
0.370328
24.6969
0.342999
23.9345
0.318172
23.3127
0.295754
22.8259
0.27549
22.4615
0.257036
22.2032
0.240021
22.0347
0.224097
21.9406
0.208958
21.9077
0.194351
21.9249
0.180073
21.9832
0.165961
22.0755
0.15189
22.1961
0.137764
22.3403
0.123506
22.5046
0.109059
22.686
0.094379
22.8823
0.0794317
23.0916
0.0641918
23.3124
0.0486404
23.5435
0.0327637
23.784
0.0165523
24.0331
0
24.2901
-0.0168965
24.5545
-0.0341379
24.8259
-0.0517236
25.1039
-0.0696506
25.3883
-0.087915
25.6789
-0.106512
25.9755
-0.125434
26.2779
-0.144675
26.5861
-0.164226
26.9
-0.18408
27.2194
-0.204225
27.5444
-0.224654
27.875
-0.245354
28.2111
-0.266315
28.5528
-0.287525
28.8999
-0.308974
29.2527
-0.330648
29.611
-0.352536
29.9748
-0.374624
30.3443
-0.396899
30.7195
-0.419348
31.1003
-0.441958
31.4867
-0.464714
31.879
-0.487603
32.2769
-0.51061
32.6807
-0.533721
33.0902
-0.556922
33.5056
-0.580198
33.9268
-0.603533
34.3539
-0.626914
34.7868
-0.650325
35.2257
-0.67375
35.6704
-0.697177
36.1214
-0.72058
36.577
-0.743979
37.0427
-0.767248
37.5013
-0.790716
38.0059
-0.813288
-0.838332
38.3943
42.0566
1.17672
-42.9829
41.1187
1.13304
40.1686
1.08911
39.2048
1.04495
38.2256
1.00059
37.2295
0.95608
36.2144
0.91145
35.1788
0.866746
34.1209
0.822025
33.0398
0.777356
31.9356
0.73284
30.8107
0.688617
29.6711
0.644902
28.5289
0.602001
27.4032
0.560336
26.3197
0.520419
25.308
0.482778
24.3957
0.447851
23.6032
0.415885
22.9405
0.386887
22.4071
0.360649
21.9946
0.336814
21.6897
0.314954
21.4772
0.294642
21.3424
0.275486
21.2721
0.257151
21.2549
0.23936
21.2815
0.221892
21.3442
0.204572
21.4369
0.187263
21.5548
0.169859
21.6939
0.152277
21.8511
0.134454
22.024
0.11634
22.2104
0.0978986
22.4089
0.0791
22.618
0.0599239
22.8368
0.0403549
23.0644
0.0203824
23.3
0
23.5432
-0.0207958
23.7934
-0.0420059
24.0502
-0.0636286
24.3135
-0.0856604
24.5828
-0.108096
24.8581
-0.13093
25.1392
-0.154153
25.4258
-0.177758
25.7181
-0.201734
26.0158
-0.22607
26.3189
-0.250755
26.6274
-0.275778
26.9413
-0.301125
27.2605
-0.326783
27.5851
-0.352739
27.915
-0.378977
28.2502
-0.405484
28.5909
-0.432244
28.9369
-0.459241
29.2884
-0.48646
29.6453
-0.513885
30.0077
-0.541499
30.3755
-0.569285
30.7489
-0.597226
31.1278
-0.625306
31.5123
-0.653507
31.9024
-0.68181
32.298
-0.710199
32.6993
-0.738656
33.1063
-0.767161
33.5188
-0.795698
33.9371
-0.824246
34.3609
-0.852792
34.7908
-0.881303
35.2252
-0.909802
35.6691
-0.938141
36.1065
-0.96671
36.5873
-0.994205
-1.02464
36.959
40.1165
1.3682
-41.0137
39.2077
1.31695
38.2868
1.2654
37.3522
1.21358
36.4025
1.16154
35.4359
1.10932
34.4511
1.05698
33.4463
1.00456
32.4207
0.952153
31.3739
0.899856
30.3073
0.847815
29.2252
0.796242
28.1364
0.745444
27.0557
0.69585
26.0041
0.648004
25.0076
0.60251
24.0927
0.559924
23.2814
0.520638
22.5876
0.484791
22.0155
0.452264
21.5607
0.422731
21.2131
0.395742
20.9594
0.370808
20.786
0.34746
20.6798
0.32528
20.6295
0.303916
20.6254
0.28308
20.6595
0.262542
20.7254
0.242119
20.8179
0.221667
20.9328
0.201076
21.0668
0.180259
21.2172
0.159147
21.3818
0.137688
21.5589
0.115843
21.7471
0.0935807
21.9453
0.0708791
22.1524
0.0477218
22.3678
0.0240977
22.5908
0
22.8209
-0.0245746
23.0577
-0.0496266
23.3009
-0.0751536
23.5501
-0.101152
23.8053
-0.127614
24.0661
-0.154534
24.3325
-0.181902
24.6043
-0.209707
24.8814
-0.237938
25.1639
-0.266583
25.4515
-0.295628
25.7444
-0.325059
26.0425
-0.354862
26.3457
-0.385021
26.6541
-0.415519
26.9676
-0.446341
27.2864
-0.477469
27.6103
-0.508885
27.9394
-0.540571
28.2738
-0.572509
28.6134
-0.60468
28.9583
-0.637065
29.3084
-0.669644
29.6639
-0.702398
30.0247
-0.735306
30.3909
-0.768349
30.7624
-0.801505
31.1394
-0.834754
31.5217
-0.868075
31.9095
-0.901446
32.3027
-0.934848
32.7014
-0.968256
33.1053
-1.00166
33.5152
-1.03501
33.9293
-1.06834
34.3525
-1.10148
34.7697
-1.13487
35.2277
-1.16703
-1.20254
35.5834
38.2541
1.54631
-39.1233
37.3734
1.48784
36.4805
1.42902
35.5742
1.3699
34.6529
1.31054
33.7152
1.25098
32.7598
1.1913
31.7856
1.13156
30.7921
1.07189
29.7802
1.01241
28.7527
0.953351
27.7161
0.895
26.6817
0.837785
25.6665
0.78226
24.6928
0.729074
23.7847
0.678878
22.9647
0.632196
22.2491
0.589319
21.646
0.550248
21.1548
0.51473
20.7689
0.48233
20.4772
0.452526
20.2673
0.424783
20.127
0.398611
20.0448
0.373579
20.0111
0.349329
20.0176
0.325569
20.0577
0.302067
20.1257
0.278636
20.2174
0.255132
20.3291
0.23144
20.4579
0.207471
20.6017
0.183155
20.7584
0.158438
20.9266
0.133278
21.1051
0.107645
21.2928
0.0815148
21.4889
0.0548706
21.6928
0.0277014
21.9038
0
22.1216
-0.0282364
22.3458
-0.0570075
22.5761
-0.0863109
22.8122
-0.116141
23.0539
-0.146491
23.3011
-0.177352
23.5536
-0.208713
23.8113
-0.240563
24.0742
-0.272887
24.3422
-0.305674
24.6153
-0.338906
24.8934
-0.372569
25.1764
-0.406645
25.4645
-0.441117
25.7576
-0.475966
26.0556
-0.511174
26.3587
-0.546721
26.6667
-0.582587
26.9798
-0.618752
27.2979
-0.655195
27.6211
-0.691895
27.9494
-0.728829
28.2827
-0.765976
28.6212
-0.803313
28.9649
-0.840818
29.3136
-0.878467
29.6676
-0.916238
30.0267
-0.954106
30.391
-0.992049
30.7606
-1.03004
31.1353
-1.06806
31.5154
-1.10608
31.9005
-1.14408
32.2912
-1.18202
32.686
-1.21993
33.0896
-1.25762
33.4876
-1.29558
33.924
-1.33215
-1.37245
34.2643
36.467
1.71155
-37.309
35.6133
1.64619
34.7477
1.58045
33.8687
1.51439
32.9751
1.44805
32.0656
1.38152
31.1392
1.31487
30.1954
1.24822
29.2345
1.18171
28.2586
1.11553
27.2723
1.04999
26.2843
0.985497
25.3081
0.922594
24.3624
0.861953
23.4688
0.804289
22.6488
0.750244
21.9201
0.700251
21.2935
0.654458
20.7723
0.612717
20.3527
0.574647
20.0264
0.539724
19.7827
0.507372
19.61
0.477036
19.4975
0.448212
19.4354
0.420471
19.4154
0.393457
19.4304
0.36688
19.4749
0.340508
19.5442
0.314159
19.6345
0.287686
19.7428
0.260974
19.8665
0.233934
20.0038
0.206496
20.1529
0.178605
20.3127
0.150218
20.4819
0.121304
20.6597
0.0918399
20.8454
0.0618077
21.0384
0.0311966
21.2382
0
21.4444
-0.0317847
21.6567
-0.0641567
21.8747
-0.0971125
22.0984
-0.130646
22.3274
-0.164749
22.5617
-0.199411
22.8011
-0.234621
23.0456
-0.270365
23.295
-0.306629
23.5493
-0.343397
23.8085
-0.380652
24.0726
-0.418376
24.3415
-0.456551
24.6152
-0.495156
24.8938
-0.534173
25.1771
-0.573579
25.4653
-0.613354
25.7583
-0.653474
26.0562
-0.693918
26.3589
-0.734663
26.6665
-0.775683
26.979
-0.816956
27.2964
-0.858456
27.6188
-0.90016
27.9461
-0.942041
28.2783
-0.984073
28.6155
-1.02623
28.9577
-1.06849
29.305
-1.11083
29.6572
-1.15321
30.0144
-1.19561
30.3767
-1.238
30.7439
-1.28037
31.1164
-1.32265
31.4929
-1.3649
31.8777
-1.40689
32.2574
-1.44917
32.6733
-1.48993
-1.53474
32.9989
34.7523
1.86441
-35.5682
33.9249
1.79248
33.0855
1.72015
32.2331
1.64748
31.3666
1.57452
30.4848
1.50138
29.5873
1.42815
28.6742
1.35499
27.7468
1.2821
26.8085
1.20974
25.866
1.13833
24.9301
1.06838
24.0161
1.00058
23.1427
0.935671
22.33
0.874384
21.596
0.817289
20.9535
0.764681
20.4084
0.716545
19.9602
0.672587
19.6032
0.632315
19.3284
0.595139
19.1256
0.560455
18.9843
0.527695
18.8951
0.496362
18.8496
0.466032
18.8407
0.436358
18.8626
0.407058
18.9104
0.377904
18.9802
0.348717
19.0687
0.319354
19.1733
0.289701
19.292
0.259669
19.423
0.229189
19.5648
0.198205
19.7165
0.166676
19.8769
0.13457
20.0454
0.101863
20.2212
0.0685391
20.404
0.0345868
20.5931
0
20.7884
-0.0352232
20.9894
-0.0710814
21.1959
-0.10757
21.4078
-0.144683
21.6248
-0.182409
21.8469
-0.220739
22.074
-0.259658
22.3059
-0.299153
22.5426
-0.339207
22.784
-0.379804
23.0301
-0.420923
23.2809
-0.462547
23.5364
-0.504654
23.7965
-0.547223
24.0613
-0.590232
24.3307
-0.633658
24.6048
-0.677477
24.8835
-0.721665
25.167
-0.766198
25.4551
-0.811049
25.7479
-0.856193
26.0454
-0.901604
26.3477
-0.947255
26.6547
-0.993118
26.9665
-1.03917
27.283
-1.08537
27.6044
-1.1317
27.9305
-1.17814
28.2614
-1.22464
28.5972
-1.27119
28.9377
-1.31775
29.2831
-1.3643
29.6333
-1.4108
29.9885
-1.45721
30.3476
-1.50356
30.7145
-1.54963
31.0768
-1.596
31.4732
-1.64072
-1.68978
31.7847
33.1073
2.00533
-33.898
32.3053
1.92717
31.4916
1.84858
30.6652
1.76962
29.8251
1.69039
28.9709
1.611
28.1024
1.53159
27.2206
1.45236
26.328
1.37358
25.4296
1.29561
24.534
1.21899
23.6538
1.14435
22.8049
1.07248
22.0055
1.00416
21.2731
0.940063
20.6215
0.880637
20.0589
0.82601
19.5873
0.776001
19.2037
0.730182
18.901
0.68798
18.6703
0.648763
18.5021
0.611913
18.3873
0.576868
18.3175
0.543142
18.2858
0.510326
18.286
0.478084
18.3132
0.446145
18.3633
0.414288
18.4329
0.382341
18.5192
0.350163
18.6202
0.317643
18.7338
0.284695
18.8587
0.25125
18.9936
0.217254
19.1375
0.182665
19.2896
0.147453
19.4492
0.111594
19.6158
0.075071
19.7888
0.037875
19.9679
0
20.1528
-0.0385554
20.3432
-0.0777891
20.5388
-0.117695
20.7396
-0.158267
20.9453
-0.199493
21.1559
-0.241361
21.3713
-0.283857
21.5913
-0.326965
21.8159
-0.370667
22.0451
-0.414945
22.2788
-0.459779
22.5171
-0.505146
22.7599
-0.551027
23.0071
-0.597396
23.2588
-0.644231
23.5151
-0.691506
23.7758
-0.739195
24.041
-0.787274
24.3107
-0.835714
24.585
-0.884488
24.8637
-0.933569
25.1471
-0.982927
25.435
-1.03253
25.7274
-1.08236
26.0245
-1.13238
26.3261
-1.18255
26.6323
-1.23286
26.9432
-1.28326
27.2586
-1.33373
27.5787
-1.38424
27.9034
-1.43475
28.2328
-1.48523
28.5667
-1.53565
28.9055
-1.58597
29.248
-1.63621
29.598
-1.68615
29.9437
-1.73638
30.3215
-1.78485
-1.83791
30.6196
31.5295
2.13479
-32.2956
30.7521
2.05069
29.9634
1.96615
29.1624
1.88124
28.3487
1.79609
27.522
1.71083
26.6829
1.62566
25.8335
1.54083
24.9775
1.4567
24.1217
1.37377
23.2762
1.29267
22.4548
1.21415
21.6734
1.13906
20.9484
1.06814
20.2939
1.00198
19.7197
0.940847
19.23
0.884689
18.824
0.833175
18.4968
0.785772
18.241
0.741848
18.0479
0.700751
17.909
0.661866
17.8164
0.624646
17.7629
0.588624
17.7424
0.553409
17.75
0.518681
17.7813
0.484178
17.8328
0.449693
17.9017
0.415057
17.9857
0.380136
18.0828
0.344823
18.1915
0.309032
18.3105
0.272698
18.4388
0.235767
18.5753
0.198199
18.7195
0.159964
18.8707
0.121039
19.0285
0.0814093
19.1923
0.0410644
19.3619
0
19.537
-0.0417847
19.7174
-0.0842867
19.9027
-0.1275
20.093
-0.171415
20.2881
-0.21602
20.4878
-0.261303
20.6921
-0.307247
20.9008
-0.353836
21.1141
-0.40105
21.3317
-0.44887
21.5537
-0.497273
21.7801
-0.546237
22.0108
-0.595739
22.2458
-0.645753
22.4852
-0.696254
22.7289
-0.747215
22.977
-0.79861
23.2294
-0.850409
23.4861
-0.902584
23.7472
-0.955106
24.0126
-1.00795
24.2825
-1.06107
24.5567
-1.11445
24.8353
-1.16806
25.1184
-1.22185
25.4059
-1.27581
25.6977
-1.32989
25.9941
-1.38407
26.2948
-1.4383
26.6
-1.49257
26.9097
-1.54683
27.2238
-1.60104
27.5422
-1.65519
27.8654
-1.70921
28.1921
-1.76314
28.5259
-1.81673
28.8558
-1.87061
29.216
-1.92265
-1.97946
29.5014
30.0163
2.2532
-30.7586
29.2629
2.16348
28.4987
2.0733
27.7229
1.98279
26.9354
1.89208
26.1365
1.80135
25.3278
1.71087
24.5122
1.62096
23.6951
1.5321
22.8847
1.44489
22.0925
1.3601
21.3325
1.27854
20.6196
1.20106
19.9677
1.12832
19.3874
1.06073
18.8847
0.998402
18.4608
0.941098
18.1126
0.888358
17.8344
0.839576
17.6187
0.794083
17.4576
0.751227
17.3435
0.71041
17.2694
0.671105
17.2294
0.632869
17.2182
0.595331
17.2316
0.558188
17.2659
0.521193
17.3182
0.484148
17.3861
0.446892
17.4675
0.409297
17.5608
0.37126
17.6647
0.332698
17.778
0.293547
17.8999
0.253758
18.0294
0.21329
18.1661
0.172114
18.3094
0.130209
18.4588
0.0875596
18.6139
0.0441582
18.7746
0
18.9404
-0.0449145
19.1113
-0.0905813
19.287
-0.136993
19.4673
-0.184141
19.6523
-0.232011
19.8417
-0.280589
20.0355
-0.329859
20.2337
-0.379801
20.4361
-0.430397
20.6428
-0.481623
20.8537
-0.533458
21.0689
-0.585878
21.2882
-0.638856
21.5116
-0.692367
21.7393
-0.746382
21.9712
-0.800875
22.2072
-0.855816
22.4474
-0.911175
22.6918
-0.966922
22.9404
-1.02302
23.1932
-1.07945
23.4503
-1.13617
23.7115
-1.19315
23.977
-1.25036
24.2468
-1.30775
24.5208
-1.36531
24.799
-1.42299
25.0816
-1.48075
25.3683
-1.53857
25.6594
-1.5964
25.9547
-1.65422
26.2543
-1.71198
26.5581
-1.76966
26.8664
-1.82719
27.1781
-1.88461
27.4965
-1.94166
27.8114
-1.999
28.1548
-2.0544
-2.11476
28.428
28.5654
2.361
-29.2846
27.8356
2.26596
27.0955
2.17048
26.3447
2.07471
25.5836
1.97882
24.8133
1.88306
24.0361
1.78776
23.2563
1.69335
22.4806
1.60043
21.7186
1.50972
20.9824
1.42205
20.2853
1.33829
19.6405
1.2592
19.0591
1.1853
18.5482
1.11684
18.1107
1.05371
17.7453
0.995549
17.4477
0.941788
17.2118
0.891771
17.0303
0.844821
16.8963
0.800298
16.803
0.757627
16.7445
0.71631
16.7156
0.675929
16.712
0.636134
16.73
0.596643
16.7665
0.557221
16.819
0.517681
16.8855
0.477871
16.9642
0.437668
17.0537
0.396974
17.1529
0.35571
17.2607
0.313816
17.3764
0.271241
17.4993
0.227949
17.6289
0.183912
17.7646
0.13911
17.9061
0.0935278
18.0531
0.0471589
18.2053
0
18.3624
-0.0479477
18.5243
-0.0966794
18.6908
-0.146187
18.8618
-0.196459
19.0372
-0.247483
19.2169
-0.299242
19.4009
-0.351719
19.589
-0.404894
19.7812
-0.458746
19.9775
-0.513251
20.1779
-0.568386
20.3824
-0.624125
20.5909
-0.680441
20.8034
-0.737307
21.02
-0.794693
21.2406
-0.85257
21.4652
-0.910906
21.6939
-0.969672
21.9266
-1.02883
22.1634
-1.08836
22.4042
-1.14821
22.6491
-1.20837
22.898
-1.26878
23.1511
-1.32941
23.4082
-1.39024
23.6694
-1.45122
23.9347
-1.51232
24.2041
-1.5735
24.4776
-1.63472
24.7552
-1.69595
25.0369
-1.75715
25.3227
-1.81827
25.6125
-1.87929
25.9066
-1.94015
26.204
-2.00088
26.5079
-2.06121
26.8085
-2.12182
27.1358
-2.18041
-2.2441
27.3974
27.1748
2.45862
-27.8713
26.4681
2.35857
25.752
2.25812
25.0264
2.15746
24.2922
2.05681
23.5514
1.95649
22.8074
1.85693
22.0657
1.75868
21.3341
1.66243
20.6232
1.56902
19.9447
1.47932
19.3109
1.39414
18.7327
1.31414
18.218
1.23966
17.771
1.17074
17.3919
1.10712
17.0781
1.0483
16.8244
0.993653
16.6247
0.942501
16.4724
0.894171
16.3613
0.848048
16.2855
0.803585
16.2399
0.760317
16.2202
0.71785
16.2227
0.67586
16.2442
0.63408
16.2822
0.592292
16.3345
0.550318
16.3993
0.508016
16.4752
0.465269
16.561
0.421984
16.6556
0.378087
16.7582
0.333518
16.8681
0.288231
16.9846
0.24219
17.1074
0.19537
17.236
0.14775
17.3701
0.0993189
17.5093
0.0500696
17.6534
0
17.8023
-0.0508877
17.9558
-0.102588
18.1136
-0.15509
18.2758
-0.208384
18.4422
-0.262455
18.6127
-0.317285
18.7873
-0.372856
18.9659
-0.429146
19.1484
-0.486134
19.335
-0.543796
19.5254
-0.602104
19.7198
-0.661034
19.9181
-0.720555
20.1202
-0.780641
20.3263
-0.841259
20.5362
-0.902379
20.75
-0.963968
20.9677
-1.02599
21.1894
-1.08842
21.4149
-1.15122
21.6443
-1.21435
21.8776
-1.27778
22.1149
-1.34146
22.3561
-1.40537
22.6012
-1.46947
22.8503
-1.53372
23.1032
-1.59807
23.3602
-1.6625
23.621
-1.72696
23.8858
-1.79141
24.1546
-1.85581
24.4273
-1.92013
24.7038
-1.98432
24.9844
-2.04833
25.2683
-2.11219
25.5583
-2.17563
25.8452
-2.23933
26.1574
-2.30095
-2.36777
26.4079
25.8425
2.54649
-26.5167
25.1588
2.44175
24.4667
2.33669
23.7666
2.23154
23.0603
2.12659
22.3504
2.02225
21.6415
1.91905
20.9403
1.81766
20.2554
1.71888
19.5975
1.6236
18.9777
1.53266
18.4063
1.44679
17.8918
1.36647
17.4391
1.29185
17.05
1.2228
16.7229
1.15889
16.454
1.09954
16.2382
1.0441
16.0694
0.99188
15.9419
0.942224
15.8501
0.894549
15.789
0.848344
15.7542
0.803174
15.742
0.758674
15.7494
0.714542
15.7736
0.670529
15.8124
0.626432
15.8641
0.582084
15.9272
0.53735
16.0002
0.492122
16.0823
0.44631
16.1724
0.399845
16.27
0.35267
16.3743
0.30474
16.4848
0.256024
16.6012
0.206496
16.7231
0.156138
16.8501
0.104938
16.982
0.052893
17.1186
0
17.2596
-0.0537372
17.4051
-0.108312
17.5548
-0.163713
17.7086
-0.219929
17.8664
-0.276944
18.0282
-0.334739
18.194
-0.393295
18.3636
-0.452589
18.537
-0.512598
18.7143
-0.573297
18.8953
-0.634659
19.0801
-0.696655
19.2687
-0.759256
19.461
-0.822432
19.6571
-0.88615
19.8569
-0.950379
20.0605
-1.01508
20.2678
-1.08023
20.4789
-1.14578
20.6938
-1.21171
20.9124
-1.27797
21.1347
-1.34452
21.3609
-1.41133
21.5908
-1.47837
21.8246
-1.54558
22.0621
-1.61293
22.3033
-1.68039
22.5484
-1.7479
22.7973
-1.81544
23.0499
-1.88295
23.3063
-1.95041
23.5665
-2.01775
23.8304
-2.08496
24.0983
-2.15196
24.3692
-2.21879
24.6459
-2.28516
24.9199
-2.35179
25.2177
-2.41626
-2.48603
25.4576
24.5667
2.62505
-25.2189
23.9061
2.51597
23.2382
2.40668
22.5645
2.29748
21.8871
2.18874
21.2099
2.08098
20.5384
1.97483
19.88
1.87108
19.2439
1.77059
18.6403
1.67423
18.0788
1.5828
17.5679
1.49687
17.1131
1.4167
16.7172
1.34228
16.3799
1.2733
16.0985
1.20923
15.8687
1.14945
15.6853
1.09326
15.5429
1.04
15.4363
0.989051
15.3607
0.93986
15.3119
0.891952
15.286
0.844924
15.28
0.798438
15.2912
0.752213
15.3174
0.70602
15.3567
0.659668
15.4075
0.613002
15.4685
0.565895
15.5387
0.518245
15.6171
0.469969
15.703
0.421
15.7957
0.371285
15.8947
0.320783
15.9996
0.269462
16.1099
0.217299
16.2253
0.164279
16.3457
0.110391
16.4706
0.0556316
16.6001
-1.12631e-07
16.7338
-0.0564991
16.8717
-0.113858
17.0136
-0.172065
17.1595
-0.231107
17.3093
-0.290966
17.4629
-0.351625
17.6203
-0.413061
17.7814
-0.475251
17.9462
-0.538171
18.1147
-0.601795
18.2868
-0.666094
18.4625
-0.731038
18.6419
-0.796598
18.8249
-0.862741
19.0115
-0.929434
19.2018
-0.996644
19.3956
-1.06433
19.5931
-1.13247
19.7942
-1.20101
19.9989
-1.26993
20.2072
-1.33918
20.4192
-1.40872
20.6348
-1.47852
20.8541
-1.54853
21.077
-1.61871
21.3035
-1.68902
21.5336
-1.75943
21.7674
-1.82989
22.0049
-1.90035
22.246
-1.97077
22.4906
-2.04112
22.739
-2.11134
22.9909
-2.1814
23.2465
-2.25124
23.5052
-2.32088
23.7693
-2.39004
24.031
-2.45943
24.315
-2.52661
-2.59916
24.5448
23.346
2.69476
-23.9761
22.7086
2.58171
22.0657
2.46862
21.4193
2.35586
20.7724
2.24392
20.1298
2.1334
19.4978
2.02506
18.8844
1.91975
18.2986
1.81834
17.7494
1.72168
17.2449
1.6304
16.7912
1.5449
16.3917
1.46525
16.047
1.39126
15.7556
1.32248
15.514
1.25833
15.3178
1.19813
15.1622
1.14122
15.0422
1.08694
14.9533
1.03471
14.8914
0.984032
14.8527
0.934453
14.8343
0.885604
14.8333
0.837174
14.8475
0.788903
14.875
0.740579
14.9143
0.692024
14.964
0.643094
15.023
0.593671
15.0903
0.543658
15.1652
0.492978
15.2469
0.441568
15.335
0.389378
15.429
0.33637
15.5284
0.282515
15.6329
0.22779
15.7423
0.172182
15.8564
0.115683
15.9748
0.0582881
16.0974
0
16.2242
-0.0591765
16.355
-0.119232
16.4896
-0.180155
16.628
-0.241929
16.7702
-0.304539
16.916
-0.367962
17.0655
-0.432177
17.2186
-0.497161
17.3752
-0.562887
17.5353
-0.629327
17.699
-0.696452
17.8662
-0.764232
18.0369
-0.832635
18.211
-0.901627
18.3887
-0.971175
18.5698
-1.04124
18.7544
-1.11179
18.9426
-1.18279
19.1342
-1.2542
19.3293
-1.32598
19.5279
-1.39808
19.7299
-1.47048
19.9355
-1.54312
20.1446
-1.61597
20.3572
-1.68899
20.5733
-1.76213
20.7929
-1.83534
21.016
-1.9086
21.2426
-1.98184
21.4726
-2.05503
21.7062
-2.12813
21.9432
-2.20108
22.1837
-2.27385
22.4277
-2.34637
22.6747
-2.41867
22.9269
-2.49047
23.1768
-2.56248
23.4477
-2.63223
-2.70738
23.6679
22.1791
2.75611
-22.787
21.5654
2.6395
20.9484
2.52309
20.3305
2.40734
19.7159
2.29284
19.11
2.1803
18.5196
2.07055
17.9527
1.96448
17.4176
1.86293
16.922
1.76662
16.4721
1.67603
16.0718
1.59134
15.7225
1.51245
15.4235
1.43902
15.1724
1.37052
14.9653
1.3063
14.798
1.24569
14.666
1.18804
14.565
1.13275
14.491
1.07926
14.4405
1.02711
14.4104
0.975884
14.3979
0.925248
14.4009
0.874913
14.4175
0.82464
14.4459
0.774231
14.4849
0.723523
14.5333
0.672382
14.5902
0.620698
14.6546
0.568379
14.726
0.515355
14.8038
0.461565
14.8875
0.406964
14.9766
0.351516
15.0709
0.295193
15.17
0.237976
15.2736
0.179854
15.3817
0.120817
15.4939
0.060865
15.6102
0
15.7304
-0.0617715
15.8544
-0.12444
15.9822
-0.187991
16.1135
-0.252409
16.2485
-0.317676
16.387
-0.38377
16.5289
-0.450668
16.6744
-0.518346
16.8232
-0.586775
16.9755
-0.655928
17.1312
-0.725773
17.2902
-0.796281
17.4527
-0.867416
17.6185
-0.939145
17.7876
-1.01143
17.9601
-1.08424
18.136
-1.15754
18.3153
-1.23128
18.4979
-1.30542
18.6838
-1.37994
18.8732
-1.45478
19.0659
-1.5299
19.2619
-1.60526
19.4614
-1.68082
19.6642
-1.75654
19.8704
-1.83237
20.0799
-1.90826
20.2928
-1.98418
20.5091
-2.06007
20.7287
-2.13589
20.9516
-2.2116
21.1779
-2.28714
21.4075
-2.36248
21.6405
-2.43755
21.8763
-2.51237
22.1171
-2.58667
22.3559
-2.66115
22.6144
-2.73334
-2.81093
22.8253
21.065
2.80963
-21.6502
20.4758
2.68993
19.8857
2.57074
19.298
2.45263
18.7175
2.33627
18.1502
2.22248
17.6029
2.11213
17.0833
2.00607
16.5986
1.90506
16.1548
1.80966
15.7561
1.72016
15.4047
1.63654
15.1006
1.55857
14.842
1.48576
14.6258
1.41753
14.4485
1.35323
14.3059
1.29219
14.194
1.2338
14.1091
1.17748
14.0476
1.12273
14.0067
1.06912
13.9836
1.01628
13.9762
0.963887
13.9824
0.911683
14.0006
0.859448
14.0296
0.807001
14.068
0.754188
14.115
0.700887
14.1696
0.646994
14.2313
0.592426
14.2993
0.537115
14.3733
0.481005
14.4527
0.424055
14.5373
0.366231
14.6267
0.307507
14.7206
0.247867
14.8189
0.1873
14.9213
0.125799
15.0276
0.0633646
15.1379
0
15.2519
-0.0642871
15.3695
-0.129486
15.4907
-0.195581
15.6154
-0.262557
15.7435
-0.330393
15.8751
-0.399067
16.01
-0.468555
16.1482
-0.538831
16.2897
-0.609867
16.4345
-0.681633
16.5826
-0.754097
16.734
-0.827228
16.8886
-0.90099
17.0464
-0.975349
17.2075
-1.05027
17.3719
-1.12571
17.5395
-1.20163
17.7103
-1.278
17.8843
-1.35477
18.0616
-1.4319
18.2422
-1.50935
18.426
-1.58708
18.613
-1.66504
18.8033
-1.74319
18.9968
-1.82148
19.1935
-1.89988
19.3935
-1.97832
19.5967
-2.05677
19.8031
-2.13518
20.0128
-2.2135
20.2257
-2.29169
20.4418
-2.36969
20.661
-2.44747
20.8835
-2.52496
21.1087
-2.60217
21.3387
-2.67883
21.5668
-2.75565
21.8135
-2.83014
-2.91004
22.0157
20.0028
2.85589
-20.5647
19.4391
2.73363
18.8774
2.61228
18.3217
2.49249
17.7771
2.37505
17.2498
2.2608
16.7467
2.15061
16.2743
2.04526
15.8385
1.94537
15.4437
1.85131
15.0925
1.76318
14.7853
1.68079
14.5213
1.60378
14.298
1.5316
14.1122
1.46362
13.9604
1.39919
13.8388
1.33769
13.744
1.27852
13.6726
1.22117
13.6217
1.16517
13.5888
1.11011
13.5716
1.05567
13.5681
1.00155
13.5768
0.94751
13.5963
0.893353
13.6254
0.83891
13.6631
0.78404
13.7085
0.728629
13.761
0.67258
13.8199
0.615816
13.8847
0.558274
13.955
0.499904
14.0304
0.440665
14.1106
0.380527
14.1954
0.319468
14.2844
0.257471
14.3775
0.194528
14.4746
0.130634
14.5755
0.0657893
14.68
0
14.7881
-0.0667256
14.8997
-0.134376
15.0147
-0.202934
15.1331
-0.272384
15.2548
-0.342703
15.3798
-0.41387
15.508
-0.485858
15.6394
-0.558642
15.774
-0.632191
15.9117
-0.706474
16.0526
-0.78146
16.1967
-0.857115
16.3439
-0.933404
16.4942
-1.01029
16.6476
-1.08773
16.8042
-1.1657
16.9639
-1.24414
17.1267
-1.32303
17.2927
-1.40231
17.4617
-1.48195
17.6339
-1.5619
17.8092
-1.64212
17.9877
-1.72256
18.1692
-1.80318
18.3539
-1.88393
18.5417
-1.96477
18.7326
-2.04564
18.9266
-2.12651
19.1237
-2.20731
19.3239
-2.28801
19.5272
-2.36856
19.7335
-2.4489
19.9429
-2.52899
20.1555
-2.60877
20.3706
-2.68825
20.5902
-2.76715
20.8082
-2.84618
21.0436
-2.92285
-3.00491
21.2374
18.992
2.89554
-19.5296
18.4551
2.77131
17.9233
2.64847
17.4011
2.52776
16.894
2.41001
16.4079
2.29607
15.949
2.18675
15.5229
2.08271
15.1338
1.98439
14.7847
1.89198
14.4766
1.80538
14.209
1.72429
13.9803
1.64824
13.7876
1.57663
13.628
1.50884
13.498
1.44424
13.3943
1.38223
13.3139
1.32226
13.254
1.26386
13.212
1.20659
13.1857
1.1501
13.1733
1.09408
13.1731
1.03826
13.1838
0.982418
13.2041
0.926378
13.2331
0.869981
13.2698
0.8131
13.3137
0.755626
13.364
0.697472
13.4202
0.638566
13.4819
0.578849
13.5487
0.518275
13.6202
0.456807
13.6963
0.394417
13.7766
0.331084
13.861
0.266796
13.9493
0.201543
14.0413
0.135325
14.1369
0.0681415
14.2361
-1.12531e-07
14.3386
-0.0690897
14.4446
-0.139114
14.5537
-0.210058
14.6661
-0.281901
14.7817
-0.354622
14.9005
-0.428197
15.0223
-0.502599
15.1473
-0.577802
15.2753
-0.653774
15.4063
-0.730484
15.5404
-0.807898
15.6776
-0.885982
15.8177
-0.9647
15.9609
-1.04401
16.1071
-1.12388
16.2563
-1.20427
16.4086
-1.28514
16.5638
-1.36644
16.722
-1.44813
16.8833
-1.53017
17.0475
-1.61251
17.2148
-1.69511
17.3851
-1.77792
17.5584
-1.8609
17.7346
-1.94399
17.9139
-2.02716
18.0962
-2.11035
18.2814
-2.19351
18.4696
-2.2766
18.6608
-2.35956
18.855
-2.44234
19.0521
-2.5249
19.2521
-2.60719
19.4551
-2.68914
19.6607
-2.77077
19.8705
-2.85179
20.0788
-2.93291
20.3035
-3.01165
-3.09574
20.4893
18.0322
2.92929
-18.5445
17.5236
2.80376
17.0233
2.68016
16.5361
2.55929
16.0674
2.44199
15.6229
2.32908
15.2076
2.22125
14.8258
2.11899
14.4806
2.02256
14.1733
1.93197
13.904
1.84697
13.6715
1.76717
13.4735
1.69202
13.3074
1.62092
13.1701
1.55324
13.0588
1.4884
12.9703
1.42583
12.9022
1.36503
12.8519
1.30556
12.8173
1.24703
12.7966
1.18912
12.7882
1.13153
12.7906
1.07403
12.8027
1.01643
12.8235
0.958543
12.8521
0.900235
12.8879
0.841386
12.93
0.781897
12.9782
0.721688
13.0318
0.660692
13.0904
0.598855
13.1539
0.536133
13.2218
0.472493
13.2939
0.40791
13.3701
0.342366
13.4501
0.275849
13.5338
0.208353
13.621
0.139876
13.7117
0.070423
13.8057
0
13.903
-0.0713815
14.0036
-0.143707
14.1072
-0.216959
14.214
-0.291118
14.3238
-0.366161
14.4366
-0.442064
14.5525
-0.518798
14.6713