/*--------------------------------*- C++ -*----------------------------------*\
| =========                 |                                                 |
| \\      /  F ield         | OpenFOAM: The Open Source CFD Toolbox           |
|  \\    /   O peration     | Version:  2312                                  |
|   \\  /    A nd           | Website:  www.openfoam.com                      |
|    \\/     M anipulation  |                                                 |
\*---------------------------------------------------------------------------*/
FoamFile
{
    version     2.0;
    format      ascii;
    arch        "LSB;label=32;scalar=64";
    class       surfaceScalarField;
    location    "0.942";
    object      phi;
}
// * * * * * * * * * * * * * * * * * * * * * * * * * * * * * * * * * * * * * //

dimensions      [0 3 -1 0 0 0 0];

oriented        oriented;

internalField   nonuniform List<scalar> 
62015
(
52.2379
0.101814
-53.3322
51.1185
0.097806
49.973
0.0937818
48.7995
0.089745
47.5964
0.0857003
46.362
0.0816521
45.0953
0.0776064
43.7958
0.07357
42.4644
0.0695528
41.1046
0.065567
39.7235
0.0616307
38.3345
0.0577683
36.9589
0.0540133
35.6263
0.0504067
34.3723
0.0469935
33.2334
0.0438142
32.24
0.0408966
31.4109
0.0382486
30.7516
0.0358586
30.256
0.0336991
29.9095
0.0317337
29.6934
0.0299228
29.5882
0.0282288
29.5755
0.0266184
29.639
0.0250633
29.7648
0.0235409
29.9416
0.0220325
30.16
0.0205239
30.4127
0.0190036
30.6935
0.0174628
30.9976
0.0158947
31.321
0.0142941
31.6607
0.0126571
32.0141
0.0109803
32.379
0.0092619
32.7537
0.00749976
33.1369
0.00569314
33.5274
0.00384127
33.9243
0.00194345
34.3266
0
34.7339
-0.00198915
35.1455
-0.00402385
35.5609
-0.00610319
35.9799
-0.00822684
36.402
-0.0103941
36.827
-0.0126037
37.2547
-0.0148551
37.6849
-0.0171469
38.1174
-0.0194782
38.5521
-0.0218478
38.9889
-0.0242543
39.4278
-0.0266964
39.8686
-0.0291727
40.3113
-0.031682
40.7559
-0.0342225
41.2022
-0.036793
41.6504
-0.0393918
42.1003
-0.0420173
42.552
-0.0446681
43.0055
-0.0473423
43.4607
-0.0500383
43.9177
-0.0527547
44.3764
-0.0554894
44.8368
-0.0582407
45.299
-0.0610072
45.763
-0.0637868
46.2288
-0.0665779
46.6964
-0.0693785
47.1657
-0.072187
47.6369
-0.0750014
48.1098
-0.07782
48.5846
-0.0806406
49.061
-0.0834623
49.5399
-0.0862811
50.0187
-0.0891003
50.5054
-0.0919032
50.9749
-0.094733
51.5049
-0.0974484
-0.100483
51.8572
49.6334
0.196358
-50.6935
48.5483
0.188541
47.4378
0.180695
46.3005
0.172827
45.1349
0.164947
43.9399
0.157065
42.7151
0.149195
41.4611
0.141353
40.1803
0.133563
38.8785
0.125856
37.5658
0.118275
36.2594
0.110877
34.9833
0.103736
33.7683
0.0969353
32.6475
0.0905538
31.6508
0.0846534
30.7998
0.0792636
30.1045
0.074377
29.5638
0.0699542
29.1674
0.0659329
28.9001
0.0622414
28.7444
0.0588072
28.6829
0.055564
28.6999
0.052454
28.7817
0.0494295
28.9167
0.0464515
29.0954
0.0434885
29.3102
0.0405163
29.5546
0.0375152
29.8237
0.0344705
30.1133
0.03137
30.4202
0.0282048
30.7415
0.0249678
31.0751
0.0216541
31.4192
0.0182593
31.7723
0.0147807
32.1332
0.0112164
32.5008
0.00756513
32.8743
0.0038264
33.253
0
33.6363
-0.00391373
34.0237
-0.0079141
34.4148
-0.0120002
34.8093
-0.0161707
35.2069
-0.0204241
35.6073
-0.0247587
36.0103
-0.0291724
36.4157
-0.0336637
36.8235
-0.0382298
37.2335
-0.0428689
37.6455
-0.047578
38.0596
-0.0523551
38.4756
-0.0571972
38.8935
-0.0621018
39.3133
-0.0670658
39.7349
-0.0720866
40.1583
-0.0771611
40.5835
-0.0822862
41.0104
-0.0874588
41.4391
-0.0926759
41.8696
-0.0979342
42.3018
-0.10323
42.7358
-0.108561
43.1715
-0.113923
43.6089
-0.119314
44.0482
-0.124728
44.4892
-0.130164
44.932
-0.135617
45.3765
-0.141085
45.8229
-0.146562
46.271
-0.152047
46.7209
-0.157536
47.1725
-0.163024
47.6265
-0.168507
48.0804
-0.173989
48.5419
-0.17944
48.9875
-0.184939
49.4894
-0.190221
-0.196104
49.8273
47.0853
0.283684
-48.1137
46.0326
0.272251
44.9556
0.26078
43.8529
0.249282
42.7236
0.237774
41.5672
0.226273
40.3843
0.214804
39.1769
0.203399
37.9495
0.192099
36.7106
0.180962
35.4739
0.170066
34.2596
0.159508
33.0938
0.149402
32.0059
0.139862
31.0239
0.130983
30.1702
0.122822
29.4573
0.115387
28.8878
0.108638
28.4555
0.102498
28.1482
0.0968719
27.951
0.0916576
27.848
0.0867584
27.8243
0.082088
27.8666
0.0775727
27.9636
0.073152
28.1059
0.0687763
28.2854
0.0644064
28.4959
0.060011
28.7322
0.0555656
28.9899
0.0510505
29.2657
0.0464508
29.5567
0.0417548
29.8607
0.0369532
30.1756
0.0320395
30.5001
0.0270082
30.8328
0.0218559
31.1725
0.0165802
31.5186
0.0111791
31.8701
0.00565244
32.2265
0
32.5872
-0.00577765
32.9518
-0.0116794
33.32
-0.017704
33.6914
-0.0238491
34.0658
-0.0301129
34.4429
-0.0364928
34.8225
-0.0429859
35.2046
-0.0495896
35.589
-0.0563002
35.9755
-0.0631149
36.3641
-0.0700298
36.7548
-0.0770413
37.1473
-0.0841454
37.5418
-0.0913385
37.9381
-0.0986162
38.3362
-0.105975
38.7362
-0.113409
39.1379
-0.120915
39.5414
-0.128489
39.9466
-0.136126
40.3536
-0.143821
40.7623
-0.151569
41.1728
-0.159366
41.585
-0.167207
41.999
-0.175086
42.4147
-0.183
42.8322
-0.190943
43.2515
-0.198909
43.6725
-0.206895
44.0953
-0.214894
44.5198
-0.222903
44.9462
-0.230914
45.3742
-0.238924
45.8045
-0.246925
46.2349
-0.254923
46.6724
-0.262874
47.0952
-0.270893
47.5704
-0.278602
-0.287161
47.8934
44.6221
0.364009
-45.6201
43.6006
0.349149
42.5559
0.334246
41.4871
0.319318
40.3938
0.304389
39.2764
0.289491
38.1367
0.274659
36.9785
0.259949
35.809
0.245428
34.6395
0.231189
33.4872
0.217352
32.3741
0.204051
31.3262
0.191433
30.3692
0.179622
29.5247
0.168705
28.8069
0.158709
28.2209
0.149603
27.7637
0.141306
27.426
0.133707
27.1952
0.126681
27.0572
0.120106
26.9983
0.113867
27.0058
0.107868
27.0688
0.102024
27.1778
0.0962677
27.3251
0.0905442
27.5043
0.0848092
27.71
0.0790273
27.938
0.073171
28.1847
0.0672179
28.4473
0.0611509
28.7233
0.0549566
29.0109
0.0486246
29.3083
0.0421471
29.6143
0.035518
29.9278
0.0287334
30.2478
0.0217904
30.5736
0.0146876
30.9044
0.00742402
31.2398
0
31.5793
-0.0075836
31.9225
-0.0153253
32.2691
-0.0232231
32.6188
-0.0312743
32.9714
-0.0394767
33.3266
-0.0478262
33.6843
-0.0563198
34.0443
-0.0649535
34.4066
-0.0737232
34.7711
-0.0826246
35.1375
-0.0916531
35.506
-0.100804
35.8764
-0.110072
36.2487
-0.119453
36.6228
-0.12894
36.9988
-0.13853
37.3765
-0.148215
37.7561
-0.157991
38.1373
-0.167852
38.5204
-0.177792
38.9051
-0.187804
39.2916
-0.197884
39.6799
-0.208023
40.0699
-0.218218
40.4616
-0.228461
40.855
-0.238745
41.2502
-0.249065
41.6472
-0.259414
42.0459
-0.269785
42.4463
-0.280171
42.8485
-0.290567
43.2524
-0.300966
43.658
-0.311361
44.0658
-0.321741
44.4738
-0.332115
44.8885
-0.342429
45.2896
-0.352825
45.7398
-0.362826
-0.373903
46.0476
42.2541
0.437596
-43.2224
41.2633
0.419495
40.2506
0.401353
39.2158
0.383197
38.1592
0.365064
37.0824
0.346999
35.9887
0.329062
34.8843
0.311333
33.7788
0.293918
32.6868
0.27695
31.6273
0.260587
30.6228
0.244995
29.6967
0.230329
28.8695
0.216701
28.1557
0.204163
27.5623
0.192697
27.0887
0.182226
26.7282
0.172632
26.4705
0.163773
26.3033
0.155505
26.2139
0.147692
26.1907
0.140211
26.2231
0.132958
26.302
0.125847
26.4197
0.118806
26.57
0.111776
26.7474
0.104713
26.9476
0.0975777
27.1672
0.0903417
27.403
0.0829813
27.6528
0.0754779
27.9145
0.0678175
28.1865
0.0599885
28.4674
0.0519829
28.7561
0.0437942
29.0515
0.035418
29.3529
0.0268517
29.6596
0.0180933
29.971
0.00914259
30.2868
0
30.6063
-0.0093333
30.9294
-0.0188555
31.2557
-0.0285639
31.5849
-0.0384554
31.9169
-0.0485267
32.2515
-0.0587737
32.5885
-0.0691921
32.9278
-0.0797771
33.2693
-0.0905239
33.6129
-0.101427
33.9586
-0.112482
34.3061
-0.123681
34.6556
-0.13502
35.007
-0.146492
35.3602
-0.158091
35.7152
-0.16981
36.072
-0.181643
36.4305
-0.193582
36.7908
-0.205621
37.1528
-0.217753
37.5165
-0.229971
37.882
-0.242266
38.2492
-0.254633
38.6181
-0.267063
38.9887
-0.279548
39.3611
-0.292082
39.7351
-0.304655
40.1109
-0.317261
40.4884
-0.329892
40.8677
-0.342538
41.2486
-0.355194
41.6314
-0.36785
42.0156
-0.380499
42.4021
-0.393129
42.7888
-0.405748
43.1819
-0.418292
43.5623
-0.430932
43.9889
-0.443097
-0.456543
44.2817
39.9835
0.504706
-40.9225
39.0232
0.483552
38.0429
0.46237
37.043
0.441198
36.0248
0.42009
34.9915
0.399114
33.9481
0.378357
32.9033
0.357937
31.8694
0.337999
30.8629
0.318718
29.9035
0.300278
29.0121
0.282857
28.2076
0.266593
27.5046
0.251558
26.9109
0.237756
26.428
0.225118
26.0514
0.213523
25.7726
0.202822
25.5812
0.192853
25.4658
0.18346
25.4156
0.174501
25.4207
0.165851
25.4724
0.157405
25.5631
0.149075
25.6867
0.14079
25.8379
0.132491
26.0123
0.124131
26.2065
0.115673
26.4174
0.107087
26.6426
0.0983489
26.88
0.0894396
27.128
0.0803442
27.3852
0.0710516
27.6504
0.061553
27.9226
0.0518421
28.201
0.0419143
28.4849
0.0317672
28.7737
0.0213991
29.0669
0.0108098
29.3641
0
29.6649
-0.0110286
29.969
-0.0222737
30.2762
-0.033732
30.5862
-0.0454003
30.8989
-0.0572739
31.2141
-0.0693487
31.5316
-0.0816193
31.8514
-0.0940802
32.1733
-0.106726
32.4972
-0.11955
32.8232
-0.132547
33.1511
-0.145708
33.4808
-0.159029
33.8124
-0.1725
34.1458
-0.186116
34.481
-0.199868
34.818
-0.213749
35.1567
-0.227751
35.4971
-0.241866
35.8393
-0.256085
36.1831
-0.2704
36.5287
-0.284804
36.876
-0.299286
37.2249
-0.313838
37.5756
-0.328452
37.9279
-0.343119
38.282
-0.357829
38.6377
-0.372574
38.9952
-0.387345
39.3543
-0.402131
39.7151
-0.416925
40.0777
-0.431716
40.4418
-0.446496
40.8081
-0.46125
41.1746
-0.47599
41.5472
-0.490639
41.9079
-0.505395
42.3121
-0.519604
-0.535277
42.5904
37.8091
0.5656
-38.7189
36.8798
0.541587
35.9329
0.517573
34.9696
0.493614
33.9926
0.469785
33.0068
0.446184
32.0194
0.422935
31.0412
0.400197
30.0866
0.378154
29.1727
0.357008
28.3182
0.336953
27.5405
0.318149
26.8534
0.300693
26.2655
0.284603
25.7794
0.269826
25.3924
0.256245
25.0979
0.243707
24.8871
0.232039
24.7498
0.221069
24.6763
0.210637
24.6573
0.200601
24.6845
0.190838
24.7507
0.181245
24.8498
0.171736
24.9768
0.162241
25.1274
0.152704
25.2979
0.143078
25.4855
0.133325
25.6876
0.123417
25.9023
0.113329
26.1278
0.103043
26.3626
0.0925441
26.6057
0.0818202
26.856
0.0708632
27.1127
0.0596671
27.3751
0.0482271
27.6424
0.0365411
27.9143
0.0246076
28.1904
0.012427
28.4701
0
28.7533
-0.0126711
29.0396
-0.0255833
29.3288
-0.0387334
29.6207
-0.0521168
29.9152
-0.0657291
30.2121
-0.0795646
30.5113
-0.0936176
30.8126
-0.107883
31.1161
-0.122352
31.4215
-0.137019
31.7289
-0.151878
32.0382
-0.166919
32.3493
-0.182136
32.6623
-0.19752
32.9771
-0.213063
33.2936
-0.228757
33.6118
-0.244593
33.9318
-0.260561
34.2534
-0.276653
34.5768
-0.292859
34.9018
-0.30917
35.2286
-0.325578
35.557
-0.34207
35.8871
-0.358639
36.2188
-0.375273
36.5523
-0.391964
36.8873
-0.4087
37.2241
-0.425472
37.5625
-0.442269
37.9026
-0.45908
38.2444
-0.475896
38.5878
-0.492706
38.9328
-0.5095
39.2798
-0.526262
39.6272
-0.543003
39.9803
-0.55964
40.3223
-0.576391
40.7054
-0.592528
-0.610294
40.9699
35.7292
0.620541
-36.6092
34.8319
0.593876
33.92
0.567257
32.996
0.540765
32.0642
0.514504
31.1311
0.488608
30.2061
0.463243
29.3019
0.438605
28.4334
0.414906
27.6172
0.392357
26.8691
0.371133
26.202
0.35135
25.6246
0.333046
25.1405
0.316183
24.7484
0.300651
24.4431
0.286297
24.2173
0.272944
24.0622
0.260408
23.9689
0.248515
23.9288
0.237107
23.9343
0.226045
23.9784
0.215212
24.0554
0.204508
24.1602
0.193853
24.2887
0.183178
24.4373
0.17243
24.6032
0.161564
24.7838
0.150544
24.9771
0.139341
25.1815
0.127931
25.3954
0.116297
25.6177
0.104424
25.8474
0.0923013
26.0836
0.0799201
26.3256
0.0672748
26.5728
0.0543612
26.8246
0.0411771
27.0806
0.0277217
27.3404
0.0139955
27.6038
0
27.8703
-0.0142623
28.1399
-0.0287881
28.4122
-0.0435734
28.6871
-0.0586132
28.9644
-0.0739022
29.2441
-0.0894344
29.526
-0.105204
29.81
-0.121203
30.096
-0.137424
30.384
-0.153861
30.6739
-0.170505
30.9657
-0.187347
31.2593
-0.20438
31.5546
-0.221593
31.8518
-0.238978
32.1506
-0.256526
32.4512
-0.274226
32.7534
-0.29207
33.0574
-0.310046
33.363
-0.328145
33.6703
-0.346356
33.9792
-0.364668
34.2898
-0.383071
34.602
-0.401555
34.9158
-0.420107
35.2313
-0.438717
35.5485
-0.457374
35.8672
-0.476066
36.1877
-0.494782
36.5097
-0.51351
36.8333
-0.53224
37.1587
-0.550958
37.4855
-0.569656
37.8143
-0.588313
38.1435
-0.606944
38.4782
-0.625457
38.8025
-0.644088
39.1654
-0.662046
-0.681776
39.4168
33.7422
0.669809
-34.5914
32.8786
0.64072
32.0044
0.611753
31.1235
0.583018
30.2417
0.554658
29.3675
0.526847
28.5119
0.499786
27.6882
0.4737
26.9109
0.448808
26.1942
0.425299
25.5503
0.403306
24.9874
0.382884
24.5097
0.364007
24.117
0.346579
23.8054
0.330451
23.5688
0.315441
23.3996
0.301362
23.2899
0.288026
23.2318
0.275264
23.2183
0.262924
23.2428
0.250874
23.2997
0.239003
23.3844
0.227219
23.4926
0.215445
23.621
0.203617
23.7667
0.191684
23.9273
0.179603
24.1008
0.16734
24.2854
0.154867
24.4797
0.142163
24.6825
0.129209
24.8928
0.115992
25.1097
0.102502
25.3326
0.0887299
25.5607
0.0746708
25.7935
0.0603212
26.0307
0.0456791
26.2717
0.0307442
26.5163
0.0155171
26.7642
0
27.0151
-0.0158042
27.2689
-0.0318917
27.5253
-0.0482576
27.7841
-0.064897
28.0454
-0.0818036
28.3088
-0.0989711
28.5744
-0.116392
28.8421
-0.134059
29.1117
-0.151965
29.3832
-0.1701
29.6567
-0.188456
29.9319
-0.207025
30.2089
-0.225795
30.4877
-0.244758
30.7682
-0.263905
31.0503
-0.283223
31.3342
-0.302704
31.6197
-0.322335
31.9069
-0.342107
32.1957
-0.362008
32.4862
-0.382027
32.7783
-0.402152
33.072
-0.422371
33.3673
-0.442673
33.6642
-0.463046
33.9628
-0.483477
34.2629
-0.503955
34.5647
-0.524466
34.868
-0.545
35.1729
-0.565543
35.4795
-0.586082
35.7876
-0.606605
36.0972
-0.6271
36.4088
-0.647548
36.7207
-0.667962
37.0379
-0.688245
37.3453
-0.708649
37.6892
-0.728324
-0.749899
37.9282
31.8476
0.713716
-32.6643
31.0202
0.682461
30.1873
0.651441
29.3541
0.620802
28.5283
0.590727
27.7194
0.561424
26.9394
0.533122
26.2011
0.50605
25.5171
0.480407
24.8985
0.456337
24.3533
0.433909
23.8858
0.413113
23.4964
0.393863
23.1824
0.376017
22.9388
0.359396
22.7591
0.343807
22.6362
0.329057
22.5631
0.314967
22.5331
0.301372
22.5403
0.288131
22.5794
0.275121
22.6459
0.262239
22.7357
0.249399
22.8456
0.23653
22.9727
0.223571
23.1148
0.210476
23.2697
0.197203
23.4359
0.183722
23.6118
0.170005
23.7964
0.156032
23.9885
0.141787
24.1873
0.127255
24.3922
0.112428
24.6023
0.0972984
24.8173
0.0818608
25.0367
0.0661121
25.26
0.0500509
25.4869
0.0336775
25.7172
0.016993
25.9505
0
26.1867
-0.0172981
26.4256
-0.0348971
26.667
-0.0527916
26.9108
-0.0709757
27.1568
-0.0894432
27.405
-0.108187
27.6553
-0.127198
27.9076
-0.146471
28.1617
-0.165994
28.4178
-0.18576
28.6756
-0.205759
28.9353
-0.225982
29.1967
-0.246417
29.4598
-0.267055
29.7245
-0.287885
29.991
-0.308895
30.2591
-0.330075
30.5288
-0.351413
30.8002
-0.372896
31.0731
-0.394513
31.3477
-0.416253
31.6238
-0.438102
31.9016
-0.460047
32.1809
-0.482077
32.4618
-0.504178
32.7443
-0.526337
33.0284
-0.548541
33.314
-0.570777
33.6011
-0.593031
33.8899
-0.615291
34.1802
-0.637542
34.472
-0.65977
34.7653
-0.681965
35.0605
-0.704104
35.3561
-0.7262
35.6567
-0.748152
35.9482
-0.770227
36.274
-0.791523
-0.814827
36.5011
30.0456
0.75262
-30.8272
29.2579
0.7195
28.4708
0.68677
27.691
0.654616
26.927
0.623254
26.1895
0.592916
25.4898
0.563836
24.8391
0.536218
24.2474
0.510218
23.7223
0.485914
23.2679
0.46331
22.8852
0.442329
22.5724
0.422839
22.3252
0.404665
22.1382
0.387614
22.0051
0.371489
21.9197
0.356103
21.8759
0.341285
21.8681
0.326881
21.8915
0.312762
21.9416
0.298813
22.0147
0.28494
22.1077
0.271065
22.2178
0.257121
22.3428
0.243053
22.4806
0.228817
22.6296
0.214376
22.7885
0.199699
22.956
0.184763
23.1311
0.169548
23.313
0.154037
23.5009
0.13822
23.6942
0.122088
23.8924
0.105632
24.095
0.0888499
24.3016
0.0717382
24.5119
0.0542962
24.7255
0.0365245
24.9423
0.0184247
25.1619
0
25.3843
-0.0187458
25.6092
-0.0378078
25.8365
-0.05718
26.0661
-0.0768566
26.2978
-0.0968302
26.5316
-0.117093
26.7675
-0.137637
27.0052
-0.158453
27.2448
-0.179532
27.4862
-0.200864
27.7295
-0.22244
27.9744
-0.244248
28.221
-0.266278
28.4693
-0.288519
28.7193
-0.310959
28.9709
-0.333586
29.2241
-0.356388
29.4789
-0.379353
29.7353
-0.402468
29.9933
-0.425721
30.2528
-0.449098
30.5139
-0.472587
30.7766
-0.496174
31.0408
-0.519845
31.3065
-0.543586
31.5738
-0.567384
31.8426
-0.591226
32.113
-0.615095
32.3848
-0.63898
32.6582
-0.662864
32.9331
-0.686734
33.2096
-0.710575
33.4874
-0.734374
33.7671
-0.758109
34.0472
-0.781793
34.332
-0.80532
34.6084
-0.828968
34.917
-0.851793
-0.876719
35.1329
28.3376
0.78694
-29.0808
27.5941
0.752307
26.858
0.718263
26.1372
0.685028
25.4408
0.652837
24.7789
0.621926
24.1617
0.592505
23.598
0.564731
23.0947
0.538694
22.6558
0.514405
22.2826
0.491801
21.9739
0.470756
21.7261
0.451102
21.5348
0.432649
21.3944
0.415199
21.2992
0.39856
21.2439
0.382554
21.2234
0.367022
21.2329
0.351825
21.2686
0.336842
21.3268
0.32197
21.4045
0.307124
21.4991
0.292232
21.6083
0.277231
21.7303
0.262074
21.8635
0.246718
22.0065
0.23113
22.1581
0.215281
22.3174
0.199149
22.4834
0.182717
22.6555
0.165969
22.833
0.148895
23.0154
0.131486
23.2022
0.113737
23.3931
0.0956435
23.5877
0.0772042
23.7857
0.0584184
23.9868
0.0392875
24.1909
0.0198135
24.3976
0
24.607
-0.0201485
24.8187
-0.0406267
25.0327
-0.0614283
25.2489
-0.0825466
25.4672
-0.103974
25.6875
-0.125701
25.9097
-0.147721
26.1338
-0.170023
26.3597
-0.192598
26.5874
-0.215435
26.8167
-0.238523
27.0478
-0.261852
27.2805
-0.28541
27.5149
-0.309185
27.7509
-0.333165
27.9884
-0.357336
28.2276
-0.381688
28.4683
-0.406206
28.7106
-0.430878
28.9544
-0.455689
29.1997
-0.480626
29.4466
-0.505675
29.6949
-0.530822
29.9448
-0.556052
30.1962
-0.581351
30.4491
-0.606705
30.7035
-0.632098
30.9594
-0.657516
31.2168
-0.682943
31.4757
-0.708365
31.736
-0.733767
31.9978
-0.759132
32.261
-0.784447
32.526
-0.809689
32.7914
-0.834871
33.0613
-0.859882
33.3233
-0.885012
33.6157
-0.909279
-0.935725
33.8209
26.726
0.817175
-27.4266
26.0316
0.78143
25.352
0.746511
24.6953
0.712655
24.0706
0.680097
23.4866
0.649047
22.9514
0.619665
22.4711
0.592047
22.0495
0.566211
21.6881
0.542103
21.3859
0.519606
21.1403
0.498559
20.9472
0.478776
20.8019
0.46006
20.6995
0.442218
20.635
0.425069
20.6037
0.408448
20.6014
0.39221
20.6244
0.376228
20.6693
0.360392
20.7332
0.344611
20.8137
0.328806
20.9086
0.312911
21.0161
0.296873
21.1347
0.280644
21.263
0.264189
21.3998
0.247474
21.5443
0.230475
21.6955
0.213172
21.8528
0.195547
22.0155
0.177588
22.1831
0.159285
22.3552
0.14063
22.5313
0.121618
22.7112
0.102247
22.8944
0.0825143
23.0808
0.0624213
23.2702
0.0419691
23.4622
0.0211606
23.6569
0
23.8539
-0.0215079
24.0533
-0.0433571
24.2548
-0.0655411
24.4585
-0.0880521
24.6641
-0.110882
24.8716
-0.134023
25.081
-0.157464
25.2922
-0.181196
25.5052
-0.205209
25.7198
-0.229492
25.9362
-0.254033
26.1542
-0.27882
26.3738
-0.303842
26.595
-0.329086
26.8178
-0.354539
27.0421
-0.380188
27.268
-0.406019
27.4954
-0.43202
27.7243
-0.458175
27.9547
-0.484471
28.1866
-0.510893
28.42
-0.537427
28.6549
-0.564058
28.8913
-0.59077
29.1291
-0.617548
29.3684
-0.644378
29.6092
-0.671242
29.8514
-0.698127
30.095
-0.725016
30.3401
-0.751894
30.5867
-0.778743
30.8347
-0.805548
31.084
-0.832296
31.335
-0.858959
31.5865
-0.885555
31.8423
-0.911966
32.0906
-0.938491
32.3676
-0.964118
-0.991987
32.5626
25.2138
0.843897
-25.8669
24.5736
0.807486
23.9552
0.772155
23.3665
0.738137
22.8154
0.705638
22.3088
0.674821
21.8523
0.645782
21.4494
0.618545
21.1015
0.593063
20.808
0.569227
20.5666
0.546885
20.3741
0.525855
20.2262
0.505944
20.1186
0.48696
20.0469
0.468719
20.0069
0.451055
19.9946
0.433817
20.0066
0.416873
20.0397
0.40011
20.0914
0.38343
20.1592
0.366749
20.2411
0.349997
20.3353
0.333116
20.4405
0.316055
20.5552
0.298773
20.6784
0.281237
20.8091
0.263417
20.9466
0.24529
21.09
0.226838
21.2389
0.208046
21.3927
0.188902
21.5509
0.169397
21.7132
0.149525
21.8792
0.129282
22.0486
0.108665
22.2211
0.087673
22.3966
0.0663078
22.5749
0.0445715
22.7557
0.0224674
22.9389
0
23.1244
-0.0228252
23.3121
-0.0460018
23.5019
-0.0695227
23.6937
-0.0933797
23.8874
-0.117564
24.0829
-0.142067
24.2802
-0.166878
24.4793
-0.191988
24.6801
-0.217384
24.8825
-0.243055
25.0866
-0.268991
25.2922
-0.295177
25.4995
-0.321603
25.7083
-0.348253
25.9186
-0.375116
26.1304
-0.402177
26.3438
-0.429423
26.5586
-0.456838
26.7749
-0.484409
26.9927
-0.512121
27.2119
-0.539957
27.4326
-0.567904
27.6547
-0.595946
27.8783
-0.624066
28.1033
-0.652249
28.3297
-0.680479
28.5576
-0.70874
28.7868
-0.737015
29.0175
-0.765288
29.2496
-0.793542
29.483
-0.821761
29.7179
-0.849927
29.9541
-0.878027
30.1919
-0.906033
30.4302
-0.933961
30.6725
-0.961692
30.908
-0.98953
31.1703
-1.01644
-1.04564
31.3558
23.8039
0.867752
-24.4048
23.2223
0.831137
22.6686
0.795848
22.1497
0.762087
21.6716
0.730011
21.2393
0.699717
20.856
0.671231
20.5229
0.644514
20.2397
0.619463
20.0045
0.595932
19.8144
0.573748
19.666
0.552722
19.5552
0.532663
19.4781
0.51339
19.4311
0.494734
19.4104
0.476543
19.413
0.45868
19.436
0.441029
19.4768
0.423488
19.5332
0.405968
19.6033
0.388397
19.6855
0.37071
19.7784
0.352855
19.8806
0.334788
19.9912
0.31647
20.1092
0.297872
20.2339
0.278966
20.3645
0.259734
20.5005
0.240156
20.6413
0.220221
20.7866
0.199918
20.9359
0.179239
21.0889
0.158179
21.2453
0.136733
21.4048
0.114902
21.5673
0.092684
21.7325
0.0700817
21.9003
0.0470972
22.0705
0.0237351
22.243
0
22.4177
-0.0241019
22.5944
-0.0485637
22.7731
-0.0733777
22.9537
-0.0985355
23.1362
-0.124028
23.3204
-0.149845
23.5064
-0.175976
23.694
-0.202411
23.8833
-0.229138
24.0742
-0.256145
24.2667
-0.283419
24.4607
-0.310949
24.6563
-0.338719
24.8534
-0.366718
25.0519
-0.39493
25.252
-0.423342
25.4535
-0.451938
25.6565
-0.480705
25.8608
-0.509626
26.0667
-0.538687
26.2739
-0.567871
26.4826
-0.597163
26.6927
-0.626546
26.9041
-0.656005
27.117
-0.685522
27.3312
-0.715082
27.5469
-0.744666
27.7639
-0.774258
27.9822
-0.803842
28.202
-0.833399
28.4231
-0.862914
28.6455
-0.892366
28.8692
-0.921743
29.0945
-0.951016
29.3204
-0.9802
29.55
-1.00917
29.7732
-1.03825
30.0217
-1.06637
-1.09682
30.198
22.4983
0.889421
-23.043
21.9784
0.853051
21.4909
0.818213
21.041
0.785057
20.6331
0.753679
20.2699
0.724104
19.9526
0.696295
19.6809
0.670159
19.4534
0.645556
19.2675
0.622318
19.1201
0.600264
19.0078
0.579208
18.9271
0.558969
18.8747
0.539379
18.8473
0.520285
18.8419
0.501551
18.856
0.483054
18.8873
0.464692
18.9336
0.446373
18.9931
0.428019
19.0644
0.409565
19.1461
0.390954
19.2369
0.372139
19.3359
0.35308
19.4421
0.333743
19.555
0.314101
19.6736
0.294131
19.7976
0.273813
19.9264
0.253133
20.0596
0.23208
20.1968
0.210643
20.3376
0.188816
20.4818
0.166595
20.6292
0.143978
20.7794
0.120963
20.9324
0.0975517
21.0879
0.0737456
21.2459
0.0495484
21.4061
0.0249647
21.5685
0
21.7329
-0.0253392
21.8993
-0.0510453
22.0676
-0.0771104
22.2377
-0.103525
22.4096
-0.13028
22.5832
-0.157366
22.7585
-0.18477
22.9353
-0.212481
23.1138
-0.240489
23.2939
-0.268779
23.4754
-0.29734
23.6585
-0.326157
23.8431
-0.355218
24.0291
-0.384507
24.2166
-0.414011
24.4055
-0.443715
24.5958
-0.473603
24.7876
-0.50366
24.9807
-0.53387
25.1752
-0.564217
25.3712
-0.594685
25.5685
-0.625258
25.7671
-0.655918
25.9672
-0.686648
26.1685
-0.717433
26.3713
-0.748254
26.5753
-0.779094
26.7808
-0.809935
26.9875
-0.84076
27.1956
-0.871551
27.4049
-0.902289
27.6156
-0.932957
27.8275
-0.96354
28.041
-0.994008
28.255
-1.02438
28.4725
-1.05452
28.6842
-1.08476
28.9195
-1.11402
-1.14563
29.0871
21.2974
0.909583
-21.7833
20.8404
0.873855
20.4182
0.839801
20.0345
0.807509
19.6917
0.777006
19.3909
0.748256
19.1318
0.72117
18.913
0.695615
18.7326
0.671432
18.5878
0.648445
18.4755
0.626473
18.3927
0.605341
18.3363
0.584881
18.3035
0.564942
18.2916
0.545386
18.2982
0.526091
18.3211
0.506951
18.3585
0.487872
18.4086
0.468776
18.47
0.449592
18.5415
0.430263
18.6219
0.410738
18.7102
0.390976
18.8057
0.37094
18.9076
0.350601
19.0152
0.329933
19.1281
0.308918
19.2456
0.287536
19.3675
0.265777
19.4933
0.243628
19.6228
0.221083
19.7556
0.198135
19.8915
0.174782
20.0303
0.151021
20.1718
0.126854
20.3159
0.10228
20.4623
0.077303
20.611
0.0519273
20.7618
0.0261576
20.9146
0
21.0694
-0.0265384
21.2261
-0.0534495
21.3846
-0.0807247
21.5448
-0.108355
21.7068
-0.136329
21.8703
-0.164638
22.0355
-0.193269
22.2023
-0.22221
22.3706
-0.25145
22.5404
-0.280974
22.7116
-0.310771
22.8844
-0.340825
23.0586
-0.371123
23.2342
-0.40165
23.4112
-0.432391
23.5896
-0.46333
23.7694
-0.494453
23.9505
-0.525742
24.1331
-0.557182
24.3169
-0.588756
24.5022
-0.620448
24.6887
-0.65224
24.8766
-0.684114
25.0658
-0.716055
25.2564
-0.748043
25.4482
-0.780062
25.6413
-0.812092
25.8358
-0.844117
26.0315
-0.876117
26.2285
-0.908075
26.4268
-0.939972
26.6263
-0.971789
26.8271
-1.00351
27.0293
-1.03511
27.2321
-1.06659
27.4382
-1.09784
27.6388
-1.12918
27.8618
-1.1595
-1.19221
28.0211
20.1997
0.928868
-20.6259
19.8045
0.894095
19.4447
0.861064
19.1224
0.829795
18.8383
0.800254
18.5924
0.772357
18.3834
0.745977
18.2095
0.720961
18.0684
0.697141
17.9574
0.674343
17.8737
0.652394
17.8147
0.631134
17.7778
0.61041
17.7606
0.590088
17.7608
0.570044
17.7766
0.550172
17.8061
0.530377
17.8479
0.510579
17.9005
0.490705
17.9628
0.470696
18.0337
0.450499
18.1123
0.430071
18.1979
0.409374
18.2896
0.388376
18.3871
0.367051
18.4896
0.345376
18.5967
0.323335
18.7081
0.300911
18.8234
0.278093
18.9422
0.254873
19.0644
0.231244
19.1896
0.207202
19.3176
0.182744
19.4484
0.157868
19.5816
0.132577
19.7172
0.106872
19.855
0.080757
19.995
0.0542358
20.1369
0.0273147
20.2808
0
20.4266
-0.0277006
20.5741
-0.0557785
20.7234
-0.0842248
20.8743
-0.113029
21.0269
-0.142182
21.181
-0.171671
21.3367
-0.201485
21.4939
-0.231611
21.6526
-0.262037
21.8127
-0.292748
21.9743
-0.323732
22.1373
-0.354974
22.3017
-0.386459
22.4675
-0.418172
22.6346
-0.450097
22.8031
-0.482219
22.9729
-0.514522
23.1441
-0.546989
23.3166
-0.579603
23.4904
-0.612348
23.6655
-0.645205
23.8419
-0.678158
24.0196
-0.711189
24.1986
-0.74428
24.3789
-0.777411
24.5604
-0.810567
24.7432
-0.843727
24.9273
-0.876874
25.1126
-0.909988
25.2991
-0.94305
25.4869
-0.976042
25.6759
-1.00894
25.8661
-1.04174
26.0577
-1.0744
26.2498
-1.10694
26.4451
-1.13923
26.6354
-1.17159
26.8465
-1.20293
-1.23666
26.998
19.2009
0.947812
-19.5687
18.8646
0.914211
18.5625
0.882339
18.2954
0.85216
18.0631
0.823592
17.8645
0.796515
17.698
0.770783
17.5616
0.746234
17.4529
0.722701
17.3695
0.70002
17.309
0.678032
17.2691
0.65659
17.2476
0.63556
17.2426
0.614821
17.2522
0.594266
17.275
0.5738
17.3093
0.553341
17.3541
0.532818
17.4081
0.512168
17.4704
0.491337
17.5402
0.470281
17.6167
0.44896
17.6992
0.427341
17.7872
0.405395
17.8801
0.383101
17.9776
0.360437
18.0793
0.337389
18.1847
0.313944
18.2936
0.290091
18.4058
0.265823
18.521
0.241135
18.6391
0.216023
18.7597
0.190486
18.8828
0.164524
19.0082
0.138139
19.1359
0.111333
19.2656
0.0841102
19.3973
0.0564763
19.531
0.0284371
19.6664
0
19.8037
-0.028827
19.9426
-0.0580351
20.0832
-0.0876143
20.2253
-0.117555
20.3691
-0.147845
20.5143
-0.178473
20.6611
-0.209428
20.8093
-0.240695
20.9589
-0.272263
21.11
-0.304116
21.2624
-0.336242
21.4162
-0.368624
21.5714
-0.401247
21.7279
-0.434097
21.8857
-0.467158
22.0449
-0.500412
22.2053
-0.533844
22.367
-0.567436
22.5301
-0.601171
22.6944
-0.635032
22.8599
-0.669001
23.0268
-0.70306
23.1948
-0.737191
23.3642
-0.771375
23.5347
-0.805594
23.7065
-0.839829
23.8795
-0.874061
24.0537
-0.908271
24.2292
-0.942439
24.4058
-0.976547
24.5837
-1.01058
24.7627
-1.0445
24.9428
-1.07831
25.1244
-1.11198
25.3064
-1.14551
25.4915
-1.17878
25.6719
-1.21211
25.8719
-1.2444
-1.27908
26.0159
18.295
0.966836
-18.6075
18.0128
0.934521
17.7626
0.903855
17.5441
0.874757
17.3563
0.847111
17.1979
0.820781
17.0669
0.79561
16.9614
0.77144
16.8792
0.748112
16.8181
0.725473
16.7762
0.703382
16.7515
0.681707
16.7423
0.660329
16.7468
0.639142
16.7636
0.618053
16.7915
0.596979
16.8293
0.575848
16.8759
0.554596
16.9305
0.533171
16.9922
0.511524
17.0604
0.489616
17.1344
0.467412
17.2137
0.444884
17.2979
0.422006
17.3864
0.398759
17.479
0.375124
17.5753
0.351089
17.6751
0.326642
17.778
0.301776
17.8838
0.276483
17.9925
0.25076
18.1037
0.224604
18.2173
0.198015
18.3332
0.170994
18.4513
0.143543
18.5714
0.115665
18.6936
0.0873657
18.8175
0.0586504
18.9433
0.0295259
19.0709
0
19.2001
-0.0299188
19.3309
-0.0602211
19.4633
-0.0908969
19.5972
-0.121935
19.7327
-0.153325
19.8696
-0.185053
20.0079
-0.217108
20.1476
-0.249475
20.2887
-0.282142
20.4312
-0.315094
20.575
-0.348317
20.7202
-0.381794
20.8666
-0.415511
21.0144
-0.449451
21.1634
-0.483599
21.3137
-0.517937
21.4653
-0.552448
21.6182
-0.587116
21.7722
-0.621922
21.9275
-0.656849
22.0841
-0.691878
22.2419
-0.72699
22.4008
-0.762169
22.561
-0.797393
22.7224
-0.832645
22.885
-0.867905
23.0487
-0.903154
23.2137
-0.938371
23.3798
-0.973539
23.5471
-1.00864
23.7155
-1.04364
23.8851
-1.07854
24.0557
-1.11331
24.2277
-1.14792
24.4002
-1.18238
24.5756
-1.21658
24.7466
-1.25082
24.936
-1.28401
-1.31957
25.073
17.4741
0.986238
-17.7359
17.2406
0.955232
17.0359
0.925743
16.8592
0.897659
16.7091
0.870847
16.5842
0.845163
16.4825
0.820453
16.4023
0.796567
16.3415
0.773358
16.2985
0.75069
16.2715
0.728435
16.2588
0.706477
16.259
0.684713
16.2709
0.66305
16.2931
0.641407
16.3247
0.619711
16.3647
0.5979
16.4123
0.575919
16.4668
0.55372
16.5274
0.531263
16.5937
0.508511
16.665
0.485436
16.7411
0.462011
16.8214
0.438216
16.9056
0.414032
16.9934
0.389444
17.0846
0.364441
17.1789
0.339014
17.276
0.313155
17.3759
0.28686
17.4783
0.260126
17.583
0.232951
17.69
0.205336
17.7992
0.177282
17.9103
0.148793
18.0234
0.119873
18.1383
0.0905263
18.255
0.0607603
18.3734
0.0305822
18.4935
0
18.6152
-0.0309771
18.7384
-0.0623394
18.8631
-0.0940761
18.9892
-0.126176
19.1169
-0.158628
19.2459
-0.191418
19.3763
-0.224534
19.508
-0.257962
19.6411
-0.291687
19.7755
-0.325697
19.9112
-0.359974
20.0482
-0.394503
20.1864
-0.429269
20.3259
-0.464256
20.4667
-0.499445
20.6087
-0.534821
20.7519
-0.570366
20.8963
-0.606062
21.042
-0.641891
21.1888
-0.677834
21.3368
-0.713874
21.486
-0.749991
21.6364
-0.786166
21.7879
-0.82238
21.9406
-0.858614
22.0945
-0.894847
22.2495
-0.931061
22.4057
-0.967235
22.5629
-1.00335
22.7214
-1.03938
22.8809
-1.07532
23.0415
-1.11113
23.2032
-1.1468
23.3661
-1.1823
23.5296
-1.21765
23.6959
-1.25271
23.858
-1.28781
24.0374
-1.32184
-1.35824
24.1677
16.7297
1.0062
-16.9462