/*--------------------------------*- C++ -*----------------------------------*\
| =========                 |                                                 |
| \\      /  F ield         | OpenFOAM: The Open Source CFD Toolbox           |
|  \\    /   O peration     | Version:  2312                                  |
|   \\  /    A nd           | Website:  www.openfoam.com                      |
|    \\/     M anipulation  |                                                 |
\*---------------------------------------------------------------------------*/
FoamFile
{
    version     2.0;
    format      ascii;
    arch        "LSB;label=32;scalar=64";
    class       surfaceScalarField;
    location    "0.944";
    object      phi;
}
// * * * * * * * * * * * * * * * * * * * * * * * * * * * * * * * * * * * * * //

dimensions      [0 3 -1 0 0 0 0];

oriented        oriented;

internalField   nonuniform List<scalar> 
62015
(
55.0723
0.107346
-56.1377
53.9823
0.10329
52.8664
0.0992135
51.7225
0.0951195
50.5483
0.0910118
49.3418
0.0868933
48.1003
0.0827685
46.8217
0.0786415
45.504
0.0745183
44.1459
0.0704055
42.748
0.0663129
41.3136
0.0622539
39.8515
0.0582484
38.3787
0.0543251
36.9225
0.0505231
35.5203
0.0468907
34.2153
0.0434778
33.0486
0.0403253
32.0504
0.0374554
31.2357
0.0348672
30.6039
0.0325386
30.1423
0.030433
29.831
0.0285084
29.6482
0.0267228
29.5722
0.0250382
29.5839
0.0234228
29.667
0.0218502
29.8081
0.0202999
29.9962
0.0187556
30.2228
0.0172046
30.4808
0.0156371
30.7647
0.0140458
31.07
0.0124252
31.3933
0.0107705
31.7316
0.00907898
32.0826
0.00734764
32.4444
0.00557517
32.8155
0.00376027
33.1947
0.0019019
33.5807
0
33.9729
-0.00194574
34.3704
-0.00393539
34.7727
-0.00596825
35.1793
-0.00804414
35.5897
-0.0101625
36.0036
-0.0123222
36.4208
-0.0145228
36.8409
-0.0167629
37.2637
-0.0190419
37.6891
-0.0213585
38.117
-0.0237115
38.5472
-0.0260995
38.9797
-0.0285214
39.4142
-0.0309759
39.8509
-0.0334613
40.2895
-0.0359764
40.7302
-0.0385196
41.1728
-0.0410895
41.6173
-0.0436845
42.0637
-0.0463028
42.512
-0.048943
42.9622
-0.0516036
43.4143
-0.0542826
43.8682
-0.0569784
44.324
-0.0596896
44.7816
-0.0624141
45.2411
-0.0651503
45.7025
-0.0678964
46.1658
-0.0706507
46.6309
-0.0734113
47.0979
-0.0761765
47.5668
-0.0789442
48.0374
-0.0817135
48.5106
-0.0844804
48.9836
-0.0872483
49.4647
-0.0900006
49.9287
-0.0927801
50.4528
-0.0954469
-0.0984303
50.8008
52.4181
0.207398
-53.4508
51.3606
0.199481
50.2778
0.191525
49.1676
0.183537
48.0281
0.175522
46.857
0.167488
45.6524
0.159445
44.4125
0.151401
43.1359
0.143371
41.8227
0.135371
40.4751
0.127425
39.0994
0.119566
37.7082
0.111843
36.3226
0.104323
34.9732
0.0970919
33.6975
0.0902427
32.5341
0.0838608
31.5153
0.0780036
30.6611
0.0726885
29.9775
0.0678909
29.4578
0.0635539
29.0869
0.059603
28.8457
0.0559584
28.7142
0.0525451
28.674
0.0492971
28.7086
0.0461595
28.8043
0.0430873
28.95
0.0400454
29.1365
0.0370058
29.3565
0.0339473
29.6041
0.0308526
29.8747
0.0277092
30.1644
0.0245068
30.4701
0.0212382
30.7895
0.0178974
31.1204
0.0144803
31.4612
0.0109837
31.8106
0.00740554
32.1674
0.00374457
32.5307
0
32.8997
-0.00382835
33.2738
-0.0077402
33.6524
-0.011735
34.0351
-0.0158118
34.4216
-0.0199691
34.8114
-0.0242058
35.2043
-0.0285198
35.6001
-0.0329098
35.9986
-0.0373733
36.3997
-0.0419085
36.8032
-0.0465126
37.2089
-0.0511838
37.6169
-0.0559191
38.027
-0.0607162
38.4392
-0.0655722
38.8534
-0.0704844
39.2696
-0.0754499
39.6877
-0.0804658
40.1077
-0.0855291
40.5297
-0.0906367
40.9535
-0.0957856
41.3791
-0.100972
41.8067
-0.106194
42.2361
-0.111447
42.6673
-0.116729
43.1004
-0.122036
43.5354
-0.127364
43.9722
-0.13271
44.4108
-0.138071
44.8514
-0.143443
45.2937
-0.148824
45.738
-0.154208
46.1839
-0.159594
46.6323
-0.164975
47.0807
-0.170356
47.5367
-0.175707
47.9769
-0.181108
48.4731
-0.186294
-0.192077
48.8068
49.8215
0.30021
-50.8242
48.7945
0.288619
47.7427
0.276973
46.6643
0.26528
45.5573
0.253553
44.4199
0.241802
43.2505
0.230042
42.048
0.218292
40.8121
0.206574
39.5446
0.19492
38.25
0.183376
36.9382
0.172003
35.6258
0.16089
34.3379
0.15015
33.1063
0.139911
31.9659
0.1303
30.9485
0.121412
30.0766
0.113295
29.3607
0.105936
28.7993
0.0992734
28.3819
0.0932111
28.0926
0.0876401
27.9136
0.0824513
27.8274
0.0775458
27.8182
0.0728389
27.8725
0.0682599
27.9789
0.0637525
28.1281
0.0592717
28.3125
0.054782
28.5259
0.0502558
28.7636
0.0456714
29.0214
0.0410122
29.2963
0.0362653
29.5855
0.0314208
29.887
0.026471
30.199
0.0214107
30.5201
0.0162357
30.849
0.0109431
31.1847
0.00553153
31.5266
0
31.8738
-0.00565163
32.2258
-0.0114229
32.5821
-0.0173129
32.9423
-0.0233199
33.3061
-0.0294423
33.6731
-0.0356781
34.0432
-0.0420244
34.416
-0.0484791
34.7916
-0.0550387
35.1696
-0.0617005
35.55
-0.0684609
35.9327
-0.0753166
36.3175
-0.0822637
36.7045
-0.0892987
37.0935
-0.0964175
37.4845
-0.103616
37.8775
-0.110891
38.2724
-0.118236
38.6693
-0.125649
39.068
-0.133125
39.4686
-0.140659
39.871
-0.148246
40.2753
-0.155882
40.6815
-0.163563
41.0895
-0.171283
41.4993
-0.179038
41.9109
-0.186822
42.3244
-0.194631
42.7397
-0.202461
43.1569
-0.210305
43.5758
-0.218159
43.9967
-0.226017
44.4192
-0.233876
44.8441
-0.241727
45.2691
-0.249576
45.7013
-0.257381
46.1189
-0.265255
46.5886
-0.272823
-0.281235
46.9075
47.3097
0.385991
-48.2839
46.3117
0.370906
45.2894
0.355752
44.2412
0.340541
43.1655
0.325289
42.0607
0.310015
40.9259
0.294741
39.7608
0.279496
38.5667
0.264318
37.3473
0.24926
36.1104
0.234398
34.8694
0.219834
33.6448
0.205702
32.4639
0.192159
31.3573
0.179364
30.3551
0.167453
29.4805
0.156506
28.7469
0.146532
28.157
0.137477
27.7041
0.129237
27.3758
0.121681
27.1566
0.114672
27.0305
0.10808
26.9824
0.101793
26.9993
0.0957131
27.0697
0.0897615
27.1844
0.0838745
27.3357
0.0780015
27.5173
0.0721026
27.7241
0.0661461
27.9521
0.0601075
28.1979
0.0539678
28.4587
0.0477119
28.7324
0.0413285
29.0172
0.0348088
29.3114
0.0281465
29.6139
0.021337
29.9236
0.0143772
30.2397
0.00726514
30.5614
0
30.8881
-0.00741821
31.2194
-0.0149887
31.5547
-0.0227102
31.8938
-0.0305805
32.2363
-0.0385978
32.5819
-0.0467586
32.9304
-0.0550602
33.2817
-0.063499
33.6355
-0.0720711
33.9918
-0.0807725
34.3505
-0.0895991
34.7113
-0.0985461
35.0744
-0.107609
35.4395
-0.116783
35.8066
-0.126063
36.1758
-0.135443
36.5468
-0.144919
36.9198
-0.154485
37.2947
-0.164136
37.6715
-0.173865
38.0501
-0.183667
38.4306
-0.193536
38.8128
-0.203466
39.197
-0.213451
39.5829
-0.223485
39.9706
-0.233561
40.3602
-0.243674
40.7516
-0.253817
41.1448
-0.263983
41.5398
-0.274167
41.9365
-0.284361
42.3352
-0.29456
42.7354
-0.304757
43.138
-0.314941
43.5408
-0.325121
43.9504
-0.335243
44.3464
-0.345449
44.7912
-0.355266
-0.36615
45.095
44.8923
0.464989
-45.839
43.9222
0.446584
42.9285
0.428099
41.9097
0.409551
40.8647
0.390963
39.7924
0.372361
38.6926
0.353779
37.5663
0.335261
36.4167
0.316868
35.25
0.298684
34.0772
0.280823
32.9155
0.263434
31.7878
0.246696
30.7211
0.230798
29.7428
0.215906
28.876
0.202137
28.1358
0.189529
27.5276
0.178042
27.0485
0.167576
26.689
0.157987
26.4359
0.149117
26.2751
0.140811
26.1925
0.132928
26.1755
0.125345
26.2132
0.117962
26.2961
0.110694
26.4167
0.103475
26.5685
0.0962516
26.7465
0.0889807
26.9464
0.0816289
27.1649
0.0741701
27.399
0.0665839
27.6465
0.0588537
27.9054
0.0509678
28.1743
0.0429164
28.4518
0.0346927
28.7369
0.026292
29.0286
0.0177106
29.3262
0.00894683
29.629
0
29.9365
-0.00912975
30.2483
-0.0184415
30.5639
-0.0279332
30.8831
-0.0376025
31.2055
-0.0474466
31.531
-0.0574621
31.8593
-0.0676449
32.1902
-0.0779907
32.5236
-0.0884952
32.8595
-0.0991534
33.1976
-0.10996
33.5379
-0.12091
33.8803
-0.131997
34.2248
-0.143215
34.5713
-0.154559
34.9198
-0.166023
35.2701
-0.177598
35.6224
-0.189281
35.9766
-0.201062
36.3326
-0.212936
36.6904
-0.224895
37.05
-0.236933
37.4115
-0.249042
37.7748
-0.261215
38.1398
-0.273445
38.5067
-0.285723
38.8753
-0.298043
39.2457
-0.310397
39.6179
-0.322776
39.9919
-0.335174
40.3676
-0.347582
40.7452
-0.359993
41.1244
-0.372399
41.5058
-0.384788
41.8875
-0.397169
42.2756
-0.409478
42.6511
-0.421884
43.0725
-0.433823
-0.447033
43.3613
42.5706
0.537448
-43.4906
41.6276
0.515893
40.662
0.494252
39.6724
0.472549
38.6581
0.450815
37.6189
0.429086
36.5556
0.407414
35.4708
0.385865
34.3699
0.364531
33.262
0.343535
32.1614
0.323039
31.0876
0.303236
30.0642
0.284337
29.1159
0.26654
28.2647
0.24999
27.5264
0.234759
26.9086
0.22083
26.4112
0.208111
26.0274
0.196455
25.7464
0.185692
25.5558
0.175645
25.4428
0.16615
25.3955
0.15706
25.4032
0.148252
25.457
0.139621
25.5491
0.131085
25.6733
0.122575
25.8243
0.114037
25.998
0.105428
26.1907
0.096714
26.3996
0.0878677
26.6224
0.0788677
26.8571
0.0696977
27.1021
0.0603447
27.356
0.0507992
27.6177
0.0410539
27.8864
0.031104
28.1611
0.020946
28.4412
0.0105782
28.7263
0
29.0157
-0.0107881
29.3092
-0.0217847
29.6063
-0.0329874
29.9068
-0.0443937
30.2103
-0.0559995
30.5168
-0.0678014
30.826
-0.0797944
31.1378
-0.0919737
31.4521
-0.104334
31.7686
-0.116869
32.0874
-0.129574
32.4083
-0.142442
32.7313
-0.155466
33.0563
-0.168639
33.3833
-0.181955
33.7123
-0.195406
34.0431
-0.208985
34.3758
-0.222684
34.7103
-0.236495
35.0467
-0.250411
35.3849
-0.264423
35.7248
-0.278522
36.0666
-0.292702
36.4101
-0.306952
36.7554
-0.321265
37.1025
-0.335631
37.4513
-0.350043
37.8019
-0.364491
38.1542
-0.378966
38.5082
-0.393459
38.864
-0.407961
39.2216
-0.422463
39.5808
-0.436958
39.9421
-0.451428
40.3038
-0.465887
40.6715
-0.48026
41.0275
-0.49474
41.4267
-0.508683
-0.524077
41.7013
40.3428
0.603598
-41.2369
39.4266
0.579063
38.4887
0.554442
37.5285
0.529768
36.5456
0.505084
35.5409
0.480444
34.5167
0.455921
33.4773
0.431613
32.4308
0.407651
31.3891
0.384205
30.3688
0.361482
29.3905
0.339709
28.4763
0.319106
27.6466
0.299848
26.9173
0.282038
26.2973
0.265682
25.7886
0.250706
25.3869
0.23697
25.0836
0.224293
24.868
0.212487
24.7286
0.201366
24.6543
0.190763
24.6352
0.180533
24.6623
0.170552
24.7283
0.16072
24.8268
0.150955
24.9528
0.14119
25.1019
0.131372
25.2705
0.121457
25.4558
0.111411
25.6553
0.101209
25.8671
0.0908273
26.0896
0.0802504
26.3212
0.0694654
26.5609
0.0584627
26.8077
0.0472348
27.0609
0.0357771
27.3196
0.0240861
27.5834
0.0121606
27.8517
0
28.1241
-0.0123948
28.4003
-0.0250218
28.68
-0.0378786
28.9629
-0.0509615
29.2487
-0.064267
29.5374
-0.0777898
29.8286
-0.0915249
30.1224
-0.105467
30.4185
-0.11961
30.7169
-0.133947
31.0174
-0.148471
31.3201
-0.163176
31.6248
-0.178054
31.9314
-0.193097
32.24
-0.208296
32.5505
-0.223646
32.8629
-0.239135
33.1771
-0.254757
33.4931
-0.270501
33.8109
-0.28636
34.1305
-0.302324
34.4519
-0.318384
34.775
-0.33453
35.0998
-0.350753
35.4264
-0.367043
35.7547
-0.38339
36.0848
-0.399784
36.4166
-0.416216
36.75
-0.432675
37.0852
-0.44915
37.4221
-0.465633
37.7608
-0.482112
38.101
-0.498579
38.4433
-0.515016
38.7859
-0.531436
39.1344
-0.547756
39.4719
-0.564192
39.85
-0.580024
-0.597471
40.1109
38.2062
0.663665
-39.0747
37.3166
0.63632
36.4067
0.608898
35.4764
0.581447
34.5264
0.554026
33.5586
0.526711
32.5771
0.499608
31.5884
0.472853
30.6031
0.446624
29.6353
0.421137
28.7028
0.39663
27.8253
0.373344
27.0216
0.351477
26.3069
0.331157
25.6911
0.31242
25.1774
0.295211
24.7638
0.279399
24.4435
0.264805
24.2075
0.251232
24.0457
0.238478
23.948
0.226358
23.9048
0.214709
23.9079
0.203389
23.95
0.19228
24.025
0.181285
24.1277
0.170326
24.254
0.159338
24.4001
0.148269
24.5633
0.137077
24.741
0.125731
24.9313
0.114202
25.1325
0.10247
25.3431
0.0905192
25.5621
0.0783365
25.7883
0.0659125
26.021
0.0532402
26.2595
0.0403149
26.5032
0.0271337
26.7516
0.0136954
27.0041
0
27.2606
-0.0139513
27.5206
-0.0281563
27.7838
-0.042612
28.0502
-0.0573144
28.3193
-0.0722588
28.5911
-0.0874399
28.8655
-0.102852
29.1423
-0.118489
29.4213
-0.134345
29.7026
-0.150411
29.9859
-0.16668
30.2713
-0.183145
30.5587
-0.199797
30.8481
-0.216627
31.1393
-0.233628
31.4324
-0.250789
31.7274
-0.268102
32.0241
-0.285557
32.3226
-0.303144
32.6229
-0.320853
32.9249
-0.338674
33.2287
-0.356598
33.5341
-0.374612
33.8413
-0.392708
34.1502
-0.410874
34.4608
-0.429099
34.7731
-0.447372
35.0871
-0.465683
35.4027
-0.48402
35.72
-0.502372
36.039
-0.520728
36.3597
-0.539076
36.6819
-0.557406
37.0062
-0.5757
37.3308
-0.59397
37.661
-0.612127
37.9809
-0.630405
38.3391
-0.648021
-0.667393
38.5869
36.1581
0.717871
-37.001
35.2953
0.687892
34.4141
0.657862
33.5151
0.627843
32.6002
0.59792
31.6727
0.568201
30.7388
0.53883
29.8071
0.50999
28.8902
0.481903
28.0035
0.454818
27.1644
0.428987
26.3898
0.40463
25.6943
0.381896
25.0879
0.360849
24.5749
0.341454
24.1547
0.323595
23.8224
0.307099
23.5706
0.291764
23.3903
0.277379
23.2724
0.263746
23.2083
0.250683
23.1899
0.238033
23.2105
0.225663
23.264
0.213462
23.3453
0.201337
23.4504
0.189214
23.5757
0.177031
23.7182
0.16474
23.8756
0.152301
24.0457
0.139681
24.227
0.126855
24.4179
0.113804
24.6173
0.100511
24.8241
0.0869641
25.0376
0.0731541
25.257
0.0590747
25.4817
0.0447212
25.7112
0.0300915
25.945
0.0151842
26.1828
0
26.4241
-0.0154596
26.6689
-0.0311919
26.9167
-0.0471932
27.1674
-0.0634593
27.4209
-0.079985
27.6769
-0.0967646
27.9353
-0.113792
28.1961
-0.131059
28.4591
-0.148559
28.7242
-0.166285
28.9913
-0.184228
29.2605
-0.20238
29.5316
-0.22073
29.8046
-0.239271
30.0795
-0.257993
30.3561
-0.276885
30.6346
-0.295938
30.9148
-0.31514
31.1968
-0.334483
31.4805
-0.353954
31.766
-0.373542
32.0531
-0.393238
32.3419
-0.413028
32.6324
-0.432902
32.9245
-0.452849
33.2183
-0.472855
33.5138
-0.49291
33.8109
-0.513001
34.1097
-0.533116
34.4101
-0.553243
34.7121
-0.57337
35.0157
-0.593484
35.3209
-0.613574
35.628
-0.63362
35.9356
-0.653636
36.2484
-0.673526
36.5516
-0.69354
36.8909
-0.712837
-0.734016
37.1265
34.1962
0.76645
-35.0134
33.3609
0.734025
32.5097
0.701595
31.6442
0.669245
30.7676
0.637092
29.8851
0.605283
29.0046
0.574007
28.1367
0.543491
27.2952
0.513992
26.4951
0.485769
25.7519
0.459058
25.0791
0.434028
24.4863
0.410764
23.9788
0.389254
23.5569
0.369398
23.2173
0.351033
22.9538
0.333958
22.7588
0.317957
22.6243
0.302821
22.5421
0.288356
22.5049
0.274389
22.5061
0.260774
22.5402
0.247386
22.6021
0.234121
22.6877
0.220894
22.7937
0.207633
22.9171
0.194283
23.0555
0.180797
23.2068
0.167136
23.3694
0.153271
23.5418
0.139178
23.7228
0.124837
23.9114
0.110233
24.1068
0.0953544
24.3082
0.0801934
24.515
0.0647432
24.7267
0.049
24.9428
0.032962
25.1629
0.0166283
25.3867
0
25.6139
-0.0169209
25.8443
-0.0341315
26.0776
-0.0516275
26.3137
-0.0694039
26.5523
-0.0874554
26.7935
-0.105775
27.0369
-0.124357
27.2826
-0.143193
27.5304
-0.162275
27.7803
-0.181594
28.0322
-0.201143
28.2861
-0.220911
28.5418
-0.240888
28.7994
-0.261066
29.0588
-0.281432
29.32
-0.301978
29.5829
-0.322691
29.8475
-0.343561
30.1139
-0.364576
30.382
-0.385725
30.6517
-0.406996
30.9231
-0.428377
31.1961
-0.449855
31.4708
-0.471418
31.7471
-0.493054
32.025
-0.51475
32.3046
-0.536493
32.5858
-0.55827
32.8685
-0.580069
33.1529
-0.601875
33.4388
-0.623677
33.7264
-0.645459
34.0154
-0.667212
34.3063
-0.688912
34.5977
-0.710575
34.894
-0.732099
35.1814
-0.753748
35.5028
-0.774632
-0.797505
35.7266
32.319
0.809651
-33.1097
31.5125
0.774989
30.6934
0.740396
29.8646
0.705989
29.0306
0.671922
28.1985
0.638389
27.3778
0.605621
26.5803
0.573877
25.8194
0.543426
25.1091
0.514512
24.4614
0.48732
23.8858
0.461953
23.3877
0.43842
22.9683
0.416638
22.6255
0.396456
22.3544
0.377678
22.1483
0.360089
22.0002
0.343471
21.9029
0.327621
21.8494
0.312356
21.8337
0.297515
21.8503
0.282961
21.8946
0.268581
21.9626
0.254277
22.0508
0.239972
22.1565
0.225599
22.2773
0.211106
22.4111
0.196449
22.5562
0.181594
22.7113
0.166511
22.8752
0.151177
23.0467
0.135575
23.2251
0.119691
23.4096
0.103514
23.5996
0.0870353
23.7945
0.07025
23.9939
0.0531547
24.1974
0.0357479
24.4046
0.0180291
24.6153
0
24.8291
-0.0183371
25.046
-0.0369785
25.2656
-0.0559195
25.4879
-0.0751551
25.7126
-0.0946789
25.9397
-0.114484
26.1691
-0.134563
26.4006
-0.154908
26.6341
-0.17551
26.8697
-0.19636
27.1072
-0.217449
27.3466
-0.238767
27.5878
-0.260302
27.8309
-0.282046
28.0757
-0.303986
28.3222
-0.326111
28.5705
-0.348409
28.8204
-0.37087
29.072
-0.39348
29.3253
-0.416227
29.5802
-0.439099
29.8367
-0.462082
30.0949
-0.485164
30.3546
-0.508332
30.6159
-0.531572
30.8788
-0.55487
31.1433
-0.578214
31.4094
-0.601589
31.677
-0.624981
31.9462
-0.648376
32.2169
-0.671761
32.4892
-0.69512
32.7629
-0.718443
33.0384
-0.741705
33.3145
-0.764921
33.5952
-0.787986
33.8676
-0.811174
34.172
-0.833554
-0.858014
34.3847
30.5255
0.847755
-31.2884
29.75
0.811096
28.966
0.774617
28.1779
0.738473
27.3918
0.702864
26.6161
0.668022
25.8614
0.634211
25.1394
0.601702
24.4625
0.570745
23.8418
0.541539
23.2861
0.5142
22.8007
0.488754
22.3875
0.465136
22.0452
0.443208
21.7699
0.422783
21.5562
0.403647
21.3976
0.385579
21.2878
0.368372
21.2206
0.35183
21.1901
0.335785
21.1914
0.32009
21.2199
0.304619
21.2718
0.289267
21.3439
0.273947
21.4334
0.258585
21.5379
0.243123
21.6555
0.22751
21.7844
0.211708
21.9234
0.195682
22.0712
0.179407
22.2267
0.162861
22.3892
0.146027
22.5578
0.128893
22.7319
0.111448
22.9111
0.0936851
23.0947
0.0755998
23.2826
0.0571889
23.4742
0.0384515
23.6692
0.0193879
23.8676
0
24.0689
-0.0197093
24.273
-0.0397358
24.4798
-0.0600745
24.6891
-0.0807197
24.9007
-0.101665
25.1146
-0.122902
25.3307
-0.144423
25.5488
-0.16622
25.7689
-0.188284
25.991
-0.210604
26.2149
-0.233171
26.4407
-0.255975
26.6683
-0.279003
26.8976
-0.302246
27.1287
-0.32569
27.3614
-0.349325
27.5958
-0.373138
27.8318
-0.397116
28.0695
-0.421246
28.3088
-0.445516
28.5497
-0.469912
28.7922
-0.49442
29.0362
-0.519027
29.2818
-0.543718
29.529
-0.568481
29.7777
-0.5933
30.0279
-0.61816
30.2797
-0.643048
30.533
-0.667949
30.7878
-0.692848
31.0441
-0.71773
31.3019
-0.742579
31.5611
-0.767384
31.8221
-0.792119
32.0836
-0.816801
32.3496
-0.841317
32.6077
-0.865955
32.896
-0.889745
-0.915692
33.0981
28.816
0.881086
-29.549
28.0743
0.842714
27.3294
0.804675
26.587
0.767171
25.8544
0.730437
25.1409
0.694739
24.4572
0.660349
23.814
0.627521
23.2214
0.596458
22.6874
0.567291
22.2174
0.540058
21.8134
0.51471
21.4748
0.491124
21.1986
0.469122
20.9801
0.448494
20.814
0.429022
20.6945
0.410492
20.6158
0.392706
20.5728
0.375486
20.5606
0.358675
20.5751
0.34214
20.6126
0.325768
20.6701
0.309462
20.7447
0.293144
20.8343
0.276747
20.937
0.260216
21.051
0.243506
21.175
0.226581
21.3078
0.20941
21.4483
0.191968
21.5959
0.174236
21.7496
0.156199
21.9089
0.137844
22.0733
0.119162
22.2422
0.100148
22.4153
0.0807967
22.5921
0.061106
22.7725
0.0410754
22.9562
0.020706
23.1429
0
23.3324
-0.021039
23.5246
-0.0424065
23.7192
-0.064097
23.9163
-0.0861041
24.1156
-0.108421
24.3171
-0.131039
24.5206
-0.15395
24.7262
-0.177145
24.9336
-0.200614
25.143
-0.224347
25.3541
-0.248333
25.5671
-0.272561
25.7818
-0.297021
25.9982
-0.321698
26.2162
-0.346582
26.4359
-0.37166
26.6572
-0.396919
26.8802
-0.422345
27.1047
-0.447925
27.3308
-0.473646
27.5584
-0.499493
27.7876
-0.525452
28.0183
-0.551508
28.2506
-0.577648
28.4843
-0.603855
28.7196
-0.630116
28.9564
-0.656415
29.1946
-0.682737
29.4343
-0.709066
29.6755
-0.735387
29.9182
-0.761684
30.1623
-0.787941
30.4078
-0.814146
30.655
-0.840271
30.9027
-0.866334
31.1547
-0.892219
31.3994
-0.918221
31.6723
-0.943341
-0.97068
31.8644
27.1914
0.910033
-27.8916
26.4874
0.870281
25.7863
0.831065
25.0948
0.792624
24.4212
0.755223
23.7748
0.719133
23.1651
0.684608
22.6013
0.651857
22.0905
0.621015
21.6377
0.592134
21.2454
0.565178
20.9132
0.540036
20.6389
0.516541
20.4185
0.494491
20.2475
0.47367
20.1206
0.453865
20.0327
0.434874
19.9792
0.416512
19.9555
0.398617
19.9577
0.381048
19.9825
0.363684
20.0268
0.346424
20.088
0.32918
20.164
0.311881
20.2529
0.294467
20.353
0.276888
20.4632
0.259103
20.5821
0.241078
20.7088
0.222785
20.8424
0.204202
20.9822
0.18531
21.1276
0.166097
21.2781
0.146551
21.4331
0.126663
21.5924
0.106429
21.7554
0.0858451
21.922
0.0649091
22.0919
0.0436219
22.2648
0.0219845
22.4405
0
22.6189
-0.0223277
22.7998
-0.0449935
22.9831
-0.0679914
23.1686
-0.0913145
23.3564
-0.114955
23.5461
-0.138905
23.7379
-0.163155
23.9316
-0.187696
24.1271
-0.212517
24.3245
-0.237607
24.5236
-0.262956
24.7245
-0.288552
24.927
-0.314382
25.1312
-0.340434
25.337
-0.366695
25.5444
-0.393153
25.7534
-0.419793
25.9639
-0.446601
26.176
-0.473564
26.3896
-0.500668
26.6048
-0.527896
26.8214
-0.555236
27.0395
-0.582671
27.2592
-0.610186
27.4802
-0.637766
27.7028
-0.665395
27.9268
-0.693057
28.1522
-0.720737
28.3791
-0.748418
28.6074
-0.776085
28.8372
-0.80372
29.0683
-0.831308
29.3008
-0.858833
29.5349
-0.886271
29.7696
-0.913635
30.0083
-0.940811
30.2402
-0.968096
30.4987
-0.994469
-1.02311
30.6812
25.6538
0.935059
-26.3175
24.992
0.894316
24.3397
0.854354
23.7044
0.815435
23.0941
0.77783
22.5176
0.74179
21.9827
0.707523
21.496
0.675171
21.0621
0.64479
20.6834
0.616358
20.3599
0.589774
20.0898
0.564884
19.8699
0.541494
19.6962
0.519393
19.5642
0.498369
19.4693
0.47822
19.4072
0.458757
19.3738
0.439815
19.3655
0.421246
19.379
0.402924
19.4115
0.38474
19.4607
0.366602
19.5243
0.348435
19.6006
0.330171
19.6881
0.311758
19.7854
0.29315
19.8915
0.27431
20.0052
0.255207
20.1259
0.235816
20.2528
0.216116
20.3852
0.196091
20.5227
0.175729
20.6648
0.155019
20.811
0.133956
20.9611
0.112533
21.1147
0.0907487
21.2716
0.068602
21.4315
0.0460931
21.5943
0.0232248
21.7597
0
21.9277
-0.0235766
22.098
-0.0474994
22.2705
-0.071762
22.4453
-0.096357
22.622
-0.121276
22.8008
-0.146511
22.9815
-0.172052
23.164
-0.197888
23.3483
-0.224009
23.5344
-0.250405
23.7222
-0.277062
23.9116
-0.303969
24.1027
-0.331114
24.2953
-0.358482
24.4896
-0.386062
24.6854
-0.413839
24.8828
-0.441799
25.0816
-0.469927
25.282
-0.498209
25.4838
-0.52663
25.6871
-0.555175
25.8919
-0.583828
26.0982
-0.612574
26.3058
-0.641396
26.5149
-0.670279
26.7255
-0.699207
26.9374
-0.728162
27.1507
-0.757129
27.3655
-0.786091
27.5816
-0.81503
27.7991
-0.84393
28.0179
-0.872774
28.2381
-0.901547
28.4599
-0.930223
28.6822
-0.958815
28.9083
-0.987205
29.1281
-1.0157
29.3729
-1.04325
-1.07311
29.5463
24.2058
0.95671
-24.8287
23.5909
0.915412
22.9923
0.875165
22.4172
0.836232
21.8731
0.79886
21.3671
0.763257
20.905
0.729561
20.491
0.697838
20.1274
0.668071
19.8143
0.640172
19.5505
0.613996
19.3332
0.589358
19.159
0.566056
19.0239
0.54388
18.9239
0.522629
18.855
0.502115
18.8136
0.482167
18.7962
0.462636
18.8
0.44339
18.8221
0.424317
18.8605
0.405319
18.913
0.386316
18.9779
0.367236
19.0538
0.348024
19.1394
0.328629
19.2335
0.30901
19.3354
0.289136
19.444
0.268976
19.5588
0.24851
19.6792
0.227717
19.8045
0.206585
19.9345
0.1851
20.0686
0.163256
20.2065
0.141045
20.3479
0.118464
20.4926
0.0955119
20.6403
0.072187
20.7909
0.0484914
20.9441
0.0244278
21.0998
0
21.2579
-0.0247869
21.4183
-0.0499269
21.5808
-0.0754129
21.7453
-0.101237
21.9118
-0.127391
22.0802
-0.153866
22.2504
-0.18065
22.4224
-0.207734
22.5962
-0.235107
22.7716
-0.262757
22.9487
-0.290671
23.1274
-0.318837
23.3076
-0.347242
23.4895
-0.375872
23.6728
-0.404713
23.8577
-0.433752
24.044
-0.462973
24.2319
-0.492361
24.4211
-0.521902
24.6119
-0.55158
24.804
-0.581379
24.9976
-0.611282
25.1926
-0.641275
25.389
-0.67134
25.5867
-0.70146
25.7859
-0.73162
25.9864
-0.761801
26.1883
-0.791987
26.3915
-0.822161
26.5961
-0.852305
26.802
-0.882401
27.0093
-0.912432
27.2178
-0.942383
27.4278
-0.972225
27.6384
-1.00197
27.8526
-1.03151
28.0609
-1.06114
28.2927
-1.0898
-1.1208
28.4576
22.8503
0.975604
-23.4279
22.2869
0.934216
21.7457
0.894144
21.2332
0.855628
20.7558
0.818868
20.3185
0.784003
19.9251
0.7511
19.5776
0.720148
19.2765
0.691067
19.0206
0.663723
18.8077
0.637941
18.6348
0.613525
18.4984
0.590272
18.395
0.567984
18.321
0.546473
18.2731
0.52557
18.2482
0.50512
18.2435
0.48499
18.2567
0.465064
18.2854
0.445241
18.3279
0.425435
18.3825
0.405574
18.4479
0.385596
18.5227
0.365448
18.606
0.345088
18.6968
0.324478
18.7943
0.303589
18.8979
0.282394
19.007
0.260875
19.1211
0.239014
19.2397
0.216798
19.3624
0.194218
19.4889
0.171266
19.619
0.147937
19.7522
0.124228
19.8885
0.100138
20.0276
0.0756677
20.1694
0.0508189
20.3136
0.0255949
20.4602
0
20.609
-0.02596
20.76
-0.0522786
20.913
-0.0789483
21.0679
-0.105961
21.2248
-0.133307
21.3834
-0.160978
21.5438
-0.188961
21.7059
-0.217248
21.8697
-0.245825
22.0351
-0.27468
22.2021
-0.303802
22.3707
-0.333176
22.5407
-0.36279
22.7123
-0.392629
22.8854
-0.422679
23.0599
-0.452925
23.2359
-0.483351
23.4133
-0.513944
23.5922
-0.544685
23.7724
-0.575561
23.954
-0.606555
24.137
-0.637649
24.3213
-0.668828
24.5071
-0.700073
24.6941
-0.731369
24.8825
-0.762698
25.0723
-0.794042
25.2633
-0.825384
25.4557
-0.856705
25.6493
-0.887988
25.8443
-0.919215
26.0405
-0.950368
26.238
-0.98143
26.4369
-1.01237
26.6364
-1.04321
26.8393
-1.07383
27.0368
-1.10452
27.2563
-1.13424
-1.1663
27.413
21.5897
0.992411
-22.1179
21.0812
0.951389
20.5995
0.911916
20.1501
0.874183
19.7376
0.838325
19.3651
0.804408
19.0346
0.772424
18.7464
0.742302
18.4998
0.713915
18.2927
0.687099
18.1226
0.661666
17.9865
0.63742
17.8813
0.614167
17.8037
0.591723
17.7508
0.569917
17.7197
0.548597
17.708
0.527627
17.7133
0.506888
17.7336
0.486278
17.7672
0.465706
17.8126
0.445098
17.8683
0.424388
17.9334
0.403523
18.0067
0.382455
18.0873
0.361145
18.1746
0.339562
18.2679
0.317677
18.3666
0.295469
18.4701
0.272919
18.5781
0.250012
18.6903
0.226739
18.8062
0.203088
18.9255
0.179055
19.0481
0.154636
19.1736
0.129828
19.302
0.104632
19.433
0.0790471
19.5664
0.0530776
19.7022
0.0267269
19.8402
0
19.9803
-0.027097
20.1224
-0.0545569
20.2665
-0.0823719
20.4124
-0.110533
20.5601
-0.139031
20.7096
-0.167856
20.8607
-0.196996
21.0135
-0.22644
21.1679
-0.256176
21.3239
-0.286192
21.4814
-0.316474
21.6404
-0.347009
21.8009
-0.377782
21.9628
-0.40878
22.1262
-0.439986
22.291
-0.471387
22.4572
-0.502967
22.6248
-0.534709
22.7937
-0.566598
22.964
-0.598616
23.1357
-0.630748
23.3087
-0.662976
23.483
-0.695283
23.6586
-0.727652
23.8356
-0.760064
24.0138
-0.792503
24.1933
-0.824949
24.3741
-0.857386
24.5562
-0.889794
24.7395
-0.922155
24.9241
-0.954452
25.1099
-0.986663
25.2969
-1.01877
25.4853
-1.05076
25.6743
-1.08262
25.8665
-1.11425
26.0537
-1.14595
26.2615
-1.17665
-1.20971
26.4105
20.4252
1.00781
-20.9009
19.9733
0.967563
19.5514
0.929042
19.1633
0.892368
18.8119
0.857604
18.4988
0.824746
18.2244
0.793728
17.988
0.764429
17.7879
0.736696
17.622
0.710349
17.4876
0.6852
17.3818
0.661061
17.302
0.637752
17.2454
0.615106
17.2094
0.592969
17.1917
0.571207
17.1903
0.549699
17.2033
0.52834
17.2291
0.50704
17.2662
0.485721
17.3134
0.464316
17.3695
0.442767
17.4337
0.421025
17.5051
0.399051
17.583
0.376808
17.6667
0.354269
17.7557
0.331408
17.8495
0.308207
17.9477
0.284648
18.0499
0.26072
18.1559
0.236412
18.2653
0.211717
18.3778
0.18663
18.4933
0.161148
18.6116
0.13527
18.7325
0.108996
18.8558
0.0823279
18.9814
0.0552696
19.1093
0.027825
19.2392
0
19.3711
-0.0281989
19.5049
-0.0567643
19.6406
-0.0856874
19.778
-0.114959
19.9171
-0.14457
20.058
-0.174508
20.2004
-0.204764
20.3444
-0.235324
20.49
-0.266176
20.637
-0.297308
20.7856
-0.328705
20.9356
-0.360354
21.087
-0.39224
21.2398
-0.424348
21.3941
-0.456663
21.5497
-0.48917
21.7066
-0.521852
21.8649
-0.554693
22.0246
-0.587676
22.1855
-0.620785
22.3478
-0.654002
22.5113
-0.68731
22.6761
-0.720691
22.8422
-0.754127
23.0096
-0.7876
23.1782
-0.821092
23.3481
-0.854585
23.5192
-0.888059
23.6915
-0.921496
23.8651
-0.954877
24.0398
-0.988184
24.2158
-1.0214
24.3929
-1.0545
24.5714
-1.08746
24.7505
-1.12029
24.9325
-1.15288
25.1099
-1.18552
25.3067
-1.21715
-1.25114
25.4484
19.356
1.02243
-19.7778
18.9607
0.9833
18.5967
0.945986
18.2662
0.910545
17.9708
0.876972
17.7106
0.845203
17.4852
0.815128
17.2931
0.786599
17.1324
0.759447
17.0008
0.733491
16.8958
0.708551
16.8149
0.684452
16.7557
0.66103
16.7159
0.638135
16.6935
0.615632
16.6865
0.593402
16.6931
0.571339
16.712
0.549352
16.7418
0.52736
16.7813
0.505294
16.8294
0.483097
16.8853
0.460717
16.9482
0.438112
17.0174
0.415245
17.0923
0.392086
17.1724
0.368608
17.2572
0.34479
17.3463
0.320616
17.4394
0.29607
17.5361
0.271143
17.6362
0.245825
17.7394
0.22011
17.8455
0.193995
17.9543
0.167477
18.0657
0.140556
18.1796
0.113234
18.2957
0.085513
18.4139
0.0573966
18.5342
0.0288903
18.6565
0
18.7807
-0.029267
18.9067
-0.0589028
19.0345
-0.0888984
19.1639
-0.119244
19.295
-0.14993
19.4277
-0.180944
19.5619
-0.212275
19.6977
-0.24391
19.8349
-0.275837
19.9736
-0.308042
20.1137
-0.340511
20.2552
-0.37323
20.3981
-0.406184
20.5424
-0.439357
20.688
-0.472735
20.8349
-0.5063
20.9831
-0.540036
21.1327
-0.573927
21.2835
-0.607956
21.4356
-0.642105
21.589
-0.676357
21.7436
-0.710693
21.8995
-0.745096
22.0566
-0.779548
22.2149
-0.814029
22.3744
-0.848521
22.5352
-0.883006
22.6971
-0.917464
22.8602
-0.951876
23.0246
-0.986222
23.19
-1.02048
23.3567
-1.05464
23.5244
-1.08868
23.6935
-1.12256
23.8631
-1.15631
24.0356
-1.18979
24.2037
-1.22333
24.3901
-1.25583
-1.29068
24.5247
18.3794
1.03683
-18.7476
18.0388
0.999051
17.729
0.963101
17.4512
0.92897
17.2056
0.8966
16.9917
0.865884
16.8083
0.836683
16.6537
0.808838
16.5258
0.782176
16.4224
0.756524
16.3415
0.731714
16.2808
0.707587
16.2383
0.683996
16.212
0.66081
16.2003
0.637908
16.2016
0.615187
16.2146
0.592554
16.2379
0.569929
16.2705
0.547242
16.3114
0.524433
16.3599
0.50145
16.4151
0.478249
16.4763
0.454792
16.5432
0.431046
16.615
0.406985
16.6915
0.382586
16.7722
0.357831
16.8567
0.332704
16.9448
0.307192
17.0362
0.281288
17.1307
0.254983
17.228
0.228273
17.3281
0.201155
17.4306
0.173628
17.5355
0.145693
17.6427
0.11735
17.752
0.0886051
17.8633
0.0594608
17.9766
0.0299236
18.0917
0
18.2087
-0.0303024
18.3273
-0.060975
18.4476
-0.0920083
18.5695
-0.123392
18.693
-0.155117
18.818
-0.187169
18.9446
-0.219537
19.0725
-0.252209
19.2019
-0.285171
19.3327
-0.318409
19.4649
-0.351909
19.5984
-0.385656
19.7332
-0.419635
19.8694
-0.453831
20.0069
-0.488226
20.1456
-0.522804
20.2856
-0.55755
20.4269
-0.592445
20.5695
-0.627472
20.7132
-0.662614
20.8582
-0.697852
21.0044
-0.733168
21.1518
-0.768544
21.3004
-0.803962
21.4501
-0.839401
21.6011
-0.874843
21.7532
-0.910269
21.9065
-0.945659
22.0609
-0.980994
22.2165
-1.01625
22.3731
-1.05142
22.5309
-1.08647
22.6898
-1.12139
22.85
-1.15614
23.0107
-1.19075
23.1741
-1.22508
23.3334
-1.25945
23.5099
-1.29277
-1.32843
23.6379
17.4905
1.05145
-17.8072
17.2009
1.01515
16.9406