/*--------------------------------*- C++ -*----------------------------------*\
| =========                 |                                                 |
| \\      /  F ield         | OpenFOAM: The Open Source CFD Toolbox           |
|  \\    /   O peration     | Version:  2312                                  |
|   \\  /    A nd           | Website:  www.openfoam.com                      |
|    \\/     M anipulation  |                                                 |
\*---------------------------------------------------------------------------*/
FoamFile
{
    version     2.0;
    format      ascii;
    arch        "LSB;label=32;scalar=64";
    class       volVectorField;
    location    "0.745";
    object      U;
}
// * * * * * * * * * * * * * * * * * * * * * * * * * * * * * * * * * * * * * //

dimensions      [0 1 -1 0 0 0 0];

internalField   nonuniform List<vector> 
31205
(
(196.995 0 0)
(199.811 0 0)
(202.554 0 0)
(205.225 0 0)
(207.83 0 0)
(210.37 0 0)
(212.849 0 0)
(215.27 0 0)
(217.634 0 0)
(219.944 0 0)
(222.203 0 0)
(224.412 0 0)
(226.572 0 0)
(228.686 0 0)
(230.754 0 0)
(232.779 0 0)
(234.762 0 0)
(236.704 0 0)
(238.606 0 0)
(240.469 0 0)
(242.294 0 0)
(244.082 0 0)
(245.834 0 0)
(247.551 0 0)
(249.234 0 0)
(250.883 0 0)
(252.5 0 0)
(254.084 0 0)
(255.636 0 0)
(257.157 0 0)
(258.648 0 0)
(260.108 0 0)
(261.539 0 0)
(262.941 0 0)
(264.314 0 0)
(265.659 0 0)
(266.976 0 0)
(268.265 0 0)
(269.527 0 0)
(270.762 0 0)
(271.97 0 0)
(273.152 0 0)
(274.308 0 0)
(275.437 0 0)
(276.54 0 0)
(277.618 0 0)
(278.67 0 0)
(279.697 0 0)
(280.698 0 0)
(281.675 0 0)
(282.626 0 0)
(283.551 0 0)
(284.452 0 0)
(285.328 0 0)
(286.179 0 0)
(287.005 0 0)
(287.806 0 0)
(288.581 0 0)
(289.332 0 0)
(290.057 0 0)
(290.757 0 0)
(291.431 0 0)
(292.079 0 0)
(292.702 0 0)
(293.299 0 0)
(293.869 0 0)
(294.413 0 0)
(294.931 0 0)
(295.421 0 0)
(295.884 0 0)
(296.319 0 0)
(296.726 0 0)
(297.104 0 0)
(297.453 0 0)
(297.773 0 0)
(298.062 0 0)
(298.323 0 0)
(298.541 0 0)
(298.777 0 0)
(199.983 0 0)
(202.64 0 0)
(205.23 0 0)
(207.757 0 0)
(210.224 0 0)
(212.633 0 0)
(214.987 0 0)
(217.287 0 0)
(219.537 0 0)
(221.738 0 0)
(223.891 0 0)
(225.999 0 0)
(228.062 0 0)
(230.083 0 0)
(232.062 0 0)
(234.001 0 0)
(235.901 0 0)
(237.763 0 0)
(239.588 0 0)
(241.377 0 0)
(243.131 0 0)
(244.851 0 0)
(246.537 0 0)
(248.19 0 0)
(249.812 0 0)
(251.402 0 0)
(252.961 0 0)
(254.489 0 0)
(255.989 0 0)
(257.459 0 0)
(258.9 0 0)
(260.313 0 0)
(261.699 0 0)
(263.057 0 0)
(264.388 0 0)
(265.692 0 0)
(266.97 0 0)
(268.222 0 0)
(269.448 0 0)
(270.649 0 0)
(271.825 0 0)
(272.975 0 0)
(274.101 0 0)
(275.202 0 0)
(276.279 0 0)
(277.331 0 0)
(278.36 0 0)
(279.364 0 0)
(280.345 0 0)
(281.301 0 0)
(282.234 0 0)
(283.144 0 0)
(284.029 0 0)
(284.891 0 0)
(285.73 0 0)
(286.545 0 0)
(287.336 0 0)
(288.104 0 0)
(288.848 0 0)
(289.568 0 0)
(290.265 0 0)
(290.938 0 0)
(291.586 0 0)
(292.211 0 0)
(292.811 0 0)
(293.386 0 0)
(293.937 0 0)
(294.463 0 0)
(294.963 0 0)
(295.438 0 0)
(295.888 0 0)
(296.311 0 0)
(296.708 0 0)
(297.078 0 0)
(297.421 0 0)
(297.735 0 0)
(298.025 0 0)
(298.269 0 0)
(298.551 0 0)
(202.934 0 0)
(205.439 0 0)
(207.885 0 0)
(210.274 0 0)
(212.61 0 0)
(214.893 0 0)
(217.127 0 0)
(219.313 0 0)
(221.452 0 0)
(223.547 0 0)
(225.599 0 0)
(227.609 0 0)
(229.578 0 0)
(231.509 0 0)
(233.401 0 0)
(235.256 0 0)
(237.075 0 0)
(238.86 0 0)
(240.61 0 0)
(242.326 0 0)
(244.01 0 0)
(245.663 0 0)
(247.284 0 0)
(248.874 0 0)
(250.435 0 0)
(251.966 0 0)
(253.469 0 0)
(254.943 0 0)
(256.39 0 0)
(257.809 0 0)
(259.202 0 0)
(260.568 0 0)
(261.908 0 0)
(263.222 0 0)
(264.511 0 0)
(265.775 0 0)
(267.014 0 0)
(268.229 0 0)
(269.419 0 0)
(270.585 0 0)
(271.728 0 0)
(272.847 0 0)
(273.943 0 0)
(275.015 0 0)
(276.065 0 0)
(277.091 0 0)
(278.095 0 0)
(279.076 0 0)
(280.035 0 0)
(280.971 0 0)
(281.885 0 0)
(282.777 0 0)
(283.646 0 0)
(284.493 0 0)
(285.318 0 0)
(286.121 0 0)
(286.902 0 0)
(287.66 0 0)
(288.396 0 0)
(289.11 0 0)
(289.801 0 0)
(290.47 0 0)
(291.116 0 0)
(291.74 0 0)
(292.341 0 0)
(292.919 0 0)
(293.473 0 0)
(294.005 0 0)
(294.513 0 0)
(294.997 0 0)
(295.457 0 0)
(295.893 0 0)
(296.305 0 0)
(296.692 0 0)
(297.053 0 0)
(297.388 0 0)
(297.703 0 0)
(297.969 0 0)
(298.288 0 0)
(205.771 0 0)
(208.135 0 0)
(210.446 0 0)
(212.708 0 0)
(214.92 0 0)
(217.086 0 0)
(219.207 0 0)
(221.284 0 0)
(223.319 0 0)
(225.314 0 0)
(227.269 0 0)
(229.187 0 0)
(231.067 0 0)
(232.911 0 0)
(234.721 0 0)
(236.496 0 0)
(238.238 0 0)
(239.947 0 0)
(241.625 0 0)
(243.273 0 0)
(244.889 0 0)
(246.477 0 0)
(248.035 0 0)
(249.565 0 0)
(251.067 0 0)
(252.542 0 0)
(253.99 0 0)
(255.412 0 0)
(256.807 0 0)
(258.177 0 0)
(259.522 0 0)
(260.843 0 0)
(262.138 0 0)
(263.41 0 0)
(264.657 0 0)
(265.882 0 0)
(267.082 0 0)
(268.26 0 0)
(269.415 0 0)
(270.548 0 0)
(271.658 0 0)
(272.746 0 0)
(273.811 0 0)
(274.855 0 0)
(275.878 0 0)
(276.878 0 0)
(277.858 0 0)
(278.816 0 0)
(279.752 0 0)
(280.668 0 0)
(281.562 0 0)
(282.436 0 0)
(283.288 0 0)
(284.12 0 0)
(284.93 0 0)
(285.72 0 0)
(286.489 0 0)
(287.237 0 0)
(287.964 0 0)
(288.669 0 0)
(289.354 0 0)
(290.018 0 0)
(290.661 0 0)
(291.282 0 0)
(291.882 0 0)
(292.461 0 0)
(293.017 0 0)
(293.552 0 0)
(294.066 0 0)
(294.557 0 0)
(295.025 0 0)
(295.471 0 0)
(295.895 0 0)
(296.295 0 0)
(296.672 0 0)
(297.024 0 0)
(297.359 0 0)
(297.643 0 0)
(297.995 0 0)
(208.468 0 0)
(210.702 0 0)
(212.889 0 0)
(215.031 0 0)
(217.129 0 0)
(219.185 0 0)
(221.2 0 0)
(223.176 0 0)
(225.113 0 0)
(227.014 0 0)
(228.879 0 0)
(230.708 0 0)
(232.504 0 0)
(234.267 0 0)
(235.997 0 0)
(237.697 0 0)
(239.365 0 0)
(241.004 0 0)
(242.613 0 0)
(244.194 0 0)
(245.747 0 0)
(247.272 0 0)
(248.77 0 0)
(250.242 0 0)
(251.688 0 0)
(253.109 0 0)
(254.504 0 0)
(255.875 0 0)
(257.221 0 0)
(258.544 0 0)
(259.843 0 0)
(261.119 0 0)
(262.371 0 0)
(263.602 0 0)
(264.809 0 0)
(265.995 0 0)
(267.159 0 0)
(268.301 0 0)
(269.421 0 0)
(270.52 0 0)
(271.599 0 0)
(272.656 0 0)
(273.693 0 0)
(274.709 0 0)
(275.704 0 0)
(276.679 0 0)
(277.634 0 0)
(278.569 0 0)
(279.484 0 0)
(280.379 0 0)
(281.254 0 0)
(282.109 0 0)
(282.944 0 0)
(283.76 0 0)
(284.556 0 0)
(285.332 0 0)
(286.088 0 0)
(286.825 0 0)
(287.542 0 0)
(288.24 0 0)
(288.917 0 0)
(289.575 0 0)
(290.213 0 0)
(290.831 0 0)
(291.429 0 0)
(292.006 0 0)
(292.564 0 0)
(293.101 0 0)
(293.617 0 0)
(294.113 0 0)
(294.588 0 0)
(295.042 0 0)
(295.475 0 0)
(295.887 0 0)
(296.277 0 0)
(296.643 0 0)
(296.995 0 0)
(297.295 0 0)
(297.675 0 0)
(211.024 0 0)
(213.138 0 0)
(215.21 0 0)
(217.24 0 0)
(219.232 0 0)
(221.185 0 0)
(223.101 0 0)
(224.982 0 0)
(226.828 0 0)
(228.64 0 0)
(230.419 0 0)
(232.166 0 0)
(233.882 0 0)
(235.568 0 0)
(237.224 0 0)
(238.851 0 0)
(240.45 0 0)
(242.021 0 0)
(243.565 0 0)
(245.083 0 0)
(246.574 0 0)
(248.04 0 0)
(249.481 0 0)
(250.898 0 0)
(252.29 0 0)
(253.658 0 0)
(255.003 0 0)
(256.325 0 0)
(257.624 0 0)
(258.901 0 0)
(260.156 0 0)
(261.389 0 0)
(262.6 0 0)
(263.79 0 0)
(264.96 0 0)
(266.108 0 0)
(267.235 0 0)
(268.343 0 0)
(269.43 0 0)
(270.497 0 0)
(271.544 0 0)
(272.572 0 0)
(273.58 0 0)
(274.568 0 0)
(275.538 0 0)
(276.488 0 0)
(277.419 0 0)
(278.331 0 0)
(279.224 0 0)
(280.099 0 0)
(280.954 0 0)
(281.791 0 0)
(282.609 0 0)
(283.409 0 0)
(284.19 0 0)
(284.952 0 0)
(285.696 0 0)
(286.422 0 0)
(287.128 0 0)
(287.817 0 0)
(288.486 0 0)
(289.137 0 0)
(289.77 0 0)
(290.383 0 0)
(290.978 0 0)
(291.554 0 0)
(292.111 0 0)
(292.648 0 0)
(293.167 0 0)
(293.666 0 0)
(294.146 0 0)
(294.606 0 0)
(295.047 0 0)
(295.467 0 0)
(295.868 0 0)
(296.246 0 0)
(296.613 0 0)
(296.925 0 0)
(297.329 0 0)
(213.445 0 0)
(215.447 0 0)
(217.412 0 0)
(219.339 0 0)
(221.231 0 0)
(223.089 0 0)
(224.913 0 0)
(226.704 0 0)
(228.463 0 0)
(230.192 0 0)
(231.891 0 0)
(233.56 0 0)
(235.201 0 0)
(236.814 0 0)
(238.399 0 0)
(239.958 0 0)
(241.491 0 0)
(242.998 0 0)
(244.48 0 0)
(245.937 0 0)
(247.371 0 0)
(248.78 0 0)
(250.166 0 0)
(251.529 0 0)
(252.87 0 0)
(254.189 0 0)
(255.485 0 0)
(256.76 0 0)
(258.014 0 0)
(259.247 0 0)
(260.459 0 0)
(261.651 0 0)
(262.822 0 0)
(263.974 0 0)
(265.106 0 0)
(266.218 0 0)
(267.311 0 0)
(268.384 0 0)
(269.439 0 0)
(270.475 0 0)
(271.492 0 0)
(272.491 0 0)
(273.471 0 0)
(274.433 0 0)
(275.376 0 0)
(276.302 0 0)
(277.209 0 0)
(278.099 0 0)
(278.971 0 0)
(279.825 0 0)
(280.662 0 0)
(281.48 0 0)
(282.281 0 0)
(283.065 0 0)
(283.831 0 0)
(284.58 0 0)
(285.311 0 0)
(286.025 0 0)
(286.721 0 0)
(287.399 0 0)
(288.06 0 0)
(288.704 0 0)
(289.33 0 0)
(289.938 0 0)
(290.529 0 0)
(291.102 0 0)
(291.657 0 0)
(292.195 0 0)
(292.714 0 0)
(293.215 0 0)
(293.698 0 0)
(294.163 0 0)
(294.61 0 0)
(295.037 0 0)
(295.447 0 0)
(295.834 0 0)
(296.214 0 0)
(296.538 0 0)
(296.961 0 0)
(215.74 0 0)
(217.639 0 0)
(219.503 0 0)
(221.335 0 0)
(223.134 0 0)
(224.901 0 0)
(226.639 0 0)
(228.346 0 0)
(230.024 0 0)
(231.675 0 0)
(233.297 0 0)
(234.893 0 0)
(236.463 0 0)
(238.007 0 0)
(239.525 0 0)
(241.019 0 0)
(242.489 0 0)
(243.935 0 0)
(245.358 0 0)
(246.758 0 0)
(248.136 0 0)
(249.491 0 0)
(250.825 0 0)
(252.138 0 0)
(253.429 0 0)
(254.7 0 0)
(255.95 0 0)
(257.18 0 0)
(258.39 0 0)
(259.581 0 0)
(260.752 0 0)
(261.904 0 0)
(263.037 0 0)
(264.151 0 0)
(265.247 0 0)
(266.325 0 0)
(267.384 0 0)
(268.425 0 0)
(269.448 0 0)
(270.453 0 0)
(271.441 0 0)
(272.412 0 0)
(273.365 0 0)
(274.3 0 0)
(275.219 0 0)
(276.121 0 0)
(277.005 0 0)
(277.873 0 0)
(278.724 0 0)
(279.558 0 0)
(280.375 0 0)
(281.176 0 0)
(281.96 0 0)
(282.728 0 0)
(283.479 0 0)
(284.214 0 0)
(284.932 0 0)
(285.634 0 0)
(286.319 0 0)
(286.987 0 0)
(287.64 0 0)
(288.275 0 0)
(288.894 0 0)
(289.497 0 0)
(290.083 0 0)
(290.652 0 0)
(291.205 0 0)
(291.741 0 0)
(292.26 0 0)
(292.762 0 0)
(293.247 0 0)
(293.715 0 0)
(294.166 0 0)
(294.599 0 0)
(295.016 0 0)
(295.411 0 0)
(295.801 0 0)
(296.134 0 0)
(296.575 0 0)
(217.918 0 0)
(219.72 0 0)
(221.492 0 0)
(223.233 0 0)
(224.945 0 0)
(226.628 0 0)
(228.284 0 0)
(229.913 0 0)
(231.515 0 0)
(233.091 0 0)
(234.642 0 0)
(236.169 0 0)
(237.671 0 0)
(239.149 0 0)
(240.604 0 0)
(242.037 0 0)
(243.447 0 0)
(244.835 0 0)
(246.202 0 0)
(247.547 0 0)
(248.871 0 0)
(250.175 0 0)
(251.459 0 0)
(252.723 0 0)
(253.967 0 0)
(255.192 0 0)
(256.398 0 0)
(257.585 0 0)
(258.753 0 0)
(259.903 0 0)
(261.035 0 0)
(262.149 0 0)
(263.245 0 0)
(264.323 0 0)
(265.384 0 0)
(266.428 0 0)
(267.454 0 0)
(268.464 0 0)
(269.456 0 0)
(270.432 0 0)
(271.392 0 0)
(272.335 0 0)
(273.261 0 0)
(274.172 0 0)
(275.066 0 0)
(275.944 0 0)
(276.806 0 0)
(277.652 0 0)
(278.482 0 0)
(279.297 0 0)
(280.095 0 0)
(280.878 0 0)
(281.646 0 0)
(282.398 0 0)
(283.134 0 0)
(283.854 0 0)
(284.559 0 0)
(285.249 0 0)
(285.923 0 0)
(286.581 0 0)
(287.224 0 0)
(287.851 0 0)
(288.463 0 0)
(289.059 0 0)
(289.64 0 0)
(290.205 0 0)
(290.754 0 0)
(291.288 0 0)
(291.805 0 0)
(292.307 0 0)
(292.793 0 0)
(293.263 0 0)
(293.717 0 0)
(294.154 0 0)
(294.576 0 0)
(294.978 0 0)
(295.376 0 0)
(295.716 0 0)
(296.172 0 0)
(219.987 0 0)
(221.699 0 0)
(223.384 0 0)
(225.041 0 0)
(226.671 0 0)
(228.275 0 0)
(229.855 0 0)
(231.409 0 0)
(232.939 0 0)
(234.445 0 0)
(235.929 0 0)
(237.389 0 0)
(238.827 0 0)
(240.244 0 0)
(241.639 0 0)
(243.013 0 0)
(244.366 0 0)
(245.699 0 0)
(247.012 0 0)
(248.305 0 0)
(249.579 0 0)
(250.834 0 0)
(252.07 0 0)
(253.287 0 0)
(254.486 0 0)
(255.667 0 0)
(256.83 0 0)
(257.976 0 0)
(259.104 0 0)
(260.214 0 0)
(261.308 0 0)
(262.385 0 0)
(263.445 0 0)
(264.489 0 0)
(265.516 0 0)
(266.527 0 0)
(267.522 0 0)
(268.501 0 0)
(269.465 0 0)
(270.412 0 0)
(271.344 0 0)
(272.26 0 0)
(273.161 0 0)
(274.046 0 0)
(274.917 0 0)
(275.772 0 0)
(276.612 0 0)
(277.437 0 0)
(278.247 0 0)
(279.042 0 0)
(279.822 0 0)
(280.587 0 0)
(281.338 0 0)
(282.074 0 0)
(282.795 0 0)
(283.501 0 0)
(284.193 0 0)
(284.87 0 0)
(285.533 0 0)
(286.181 0 0)
(286.814 0 0)
(287.433 0 0)
(288.037 0 0)
(288.626 0 0)
(289.2 0 0)
(289.76 0 0)
(290.305 0 0)
(290.836 0 0)
(291.351 0 0)
(291.852 0 0)
(292.337 0 0)
(292.808 0 0)
(293.264 0 0)
(293.704 0 0)
(294.13 0 0)
(294.537 0 0)
(294.941 0 0)
(295.288 0 0)
(295.755 0 0)
(221.954 0 0)
(223.583 0 0)
(225.185 0 0)
(226.763 0 0)
(228.317 0 0)
(229.847 0 0)
(231.354 0 0)
(232.838 0 0)
(234.3 0 0)
(235.741 0 0)
(237.16 0 0)
(238.558 0 0)
(239.936 0 0)
(241.294 0 0)
(242.631 0 0)
(243.95 0 0)
(245.249 0 0)
(246.529 0 0)
(247.791 0 0)
(249.034 0 0)
(250.26 0 0)
(251.467 0 0)
(252.657 0 0)
(253.83 0 0)
(254.986 0 0)
(256.125 0 0)
(257.247 0 0)
(258.353 0 0)
(259.442 0 0)
(260.515 0 0)
(261.572 0 0)
(262.614 0 0)
(263.64 0 0)
(264.65 0 0)
(265.645 0 0)
(266.624 0 0)
(267.589 0 0)
(268.538 0 0)
(269.472 0 0)
(270.392 0 0)
(271.297 0 0)
(272.187 0 0)
(273.063 0 0)
(273.924 0 0)
(274.771 0 0)
(275.604 0 0)
(276.422 0 0)
(277.226 0 0)
(278.016 0 0)
(278.792 0 0)
(279.554 0 0)
(280.302 0 0)
(281.036 0 0)
(281.757 0 0)
(282.463 0 0)
(283.155 0 0)
(283.834 0 0)
(284.498 0 0)
(285.149 0 0)
(285.786 0 0)
(286.41 0 0)
(287.019 0 0)
(287.615 0 0)
(288.197 0 0)
(288.765 0 0)
(289.319 0 0)
(289.859 0 0)
(290.386 0 0)
(290.898 0 0)
(291.397 0 0)
(291.881 0 0)
(292.352 0 0)
(292.808 0 0)
(293.25 0 0)
(293.679 0 0)
(294.089 0 0)
(294.498 0 0)
(294.85 0 0)
(295.326 0 0)
(223.826 0 0)
(225.376 0 0)
(226.902 0 0)
(228.406 0 0)
(229.888 0 0)
(231.348 0 0)
(232.787 0 0)
(234.205 0 0)
(235.603 0 0)
(236.981 0 0)
(238.339 0 0)
(239.678 0 0)
(240.999 0 0)
(242.3 0 0)
(243.584 0 0)
(244.849 0 0)
(246.096 0 0)
(247.327 0 0)
(248.54 0 0)
(249.735 0 0)
(250.915 0 0)
(252.077 0 0)
(253.224 0 0)
(254.354 0 0)
(255.468 0 0)
(256.566 0 0)
(257.649 0 0)
(258.717 0 0)
(259.769 0 0)
(260.806 0 0)
(261.828 0 0)
(262.835 0 0)
(263.827 0 0)
(264.805 0 0)
(265.769 0 0)
(266.718 0 0)
(267.653 0 0)
(268.573 0 0)
(269.48 0 0)
(270.373 0 0)
(271.252 0 0)
(272.117 0 0)
(272.968 0 0)
(273.806 0 0)
(274.63 0 0)
(275.44 0 0)
(276.238 0 0)
(277.022 0 0)
(277.792 0 0)
(278.549 0 0)
(279.293 0 0)
(280.024 0 0)
(280.742 0 0)
(281.446 0 0)
(282.137 0 0)
(282.816 0 0)
(283.481 0 0)
(284.133 0 0)
(284.772 0 0)
(285.399 0 0)
(286.012 0 0)
(286.612 0 0)
(287.199 0 0)
(287.773 0 0)
(288.334 0 0)
(288.882 0 0)
(289.417 0 0)
(289.939 0 0)
(290.448 0 0)
(290.943 0 0)
(291.426 0 0)
(291.895 0 0)
(292.351 0 0)
(292.794 0 0)
(293.224 0 0)
(293.637 0 0)
(294.05 0 0)
(294.405 0 0)
(294.888 0 0)
(225.61 0 0)
(227.086 0 0)
(228.54 0 0)
(229.974 0 0)
(231.388 0 0)
(232.782 0 0)
(234.156 0 0)
(235.512 0 0)
(236.849 0 0)
(238.168 0 0)
(239.469 0 0)
(240.752 0 0)
(242.018 0 0)
(243.266 0 0)
(244.498 0 0)
(245.713 0 0)
(246.911 0 0)
(248.093 0 0)
(249.26 0 0)
(250.41 0 0)
(251.545 0 0)
(252.665 0 0)
(253.769 0 0)
(254.858 0 0)
(255.933 0 0)
(256.992 0 0)
(258.037 0 0)
(259.068 0 0)
(260.084 0 0)
(261.086 0 0)
(262.074 0 0)
(263.049 0 0)
(264.009 0 0)
(264.956 0 0)
(265.889 0 0)
(266.809 0 0)
(267.715 0 0)
(268.608 0 0)
(269.487 0 0)
(270.354 0 0)
(271.207 0 0)
(272.048 0 0)
(272.875 0 0)
(273.69 0 0)
(274.492 0 0)
(275.281 0 0)
(276.058 0 0)
(276.822 0 0)
(277.573 0 0)
(278.312 0 0)
(279.038 0 0)
(279.752 0 0)
(280.453 0 0)
(281.142 0 0)
(281.819 0 0)
(282.483 0 0)
(283.135 0 0)
(283.775 0 0)
(284.402 0 0)
(285.017 0 0)
(285.62 0 0)
(286.21 0 0)
(286.789 0 0)
(287.354 0 0)
(287.908 0 0)
(288.449 0 0)
(288.979 0 0)
(289.495 0 0)
(290 0 0)
(290.492 0 0)
(290.972 0 0)
(291.439 0 0)
(291.894 0 0)
(292.336 0 0)
(292.767 0 0)
(293.181 0 0)
(293.596 0 0)
(293.954 0 0)
(294.443 0 0)
(227.31 0 0)
(228.716 0 0)
(230.103 0 0)
(231.471 0 0)
(232.821 0 0)
(234.152 0 0)
(235.466 0 0)
(236.763 0 0)
(238.043 0 0)
(239.305 0 0)
(240.552 0 0)
(241.781 0 0)
(242.995 0 0)
(244.193 0 0)
(245.375 0 0)
(246.542 0 0)
(247.694 0 0)
(248.831 0 0)
(249.952 0 0)
(251.06 0 0)
(252.152 0 0)
(253.23 0 0)
(254.295 0 0)
(255.345 0 0)
(256.381 0 0)
(257.403 0 0)
(258.412 0 0)
(259.407 0 0)
(260.389 0 0)
(261.358 0 0)
(262.313 0 0)
(263.256 0 0)
(264.185 0 0)
(265.102 0 0)
(266.005 0 0)
(266.896 0 0)
(267.775 0 0)
(268.641 0 0)
(269.494 0 0)
(270.336 0 0)
(271.165 0 0)
(271.981 0 0)
(272.786 0 0)
(273.578 0 0)
(274.358 0 0)
(275.126 0 0)
(275.883 0 0)
(276.627 0 0)
(277.36 0 0)
(278.08 0 0)
(278.789 0 0)
(279.486 0 0)
(280.172 0 0)
(280.845 0 0)
(281.507 0 0)
(282.157 0 0)
(282.796 0 0)
(283.423 0 0)
(284.038 0 0)
(284.642 0 0)
(285.234 0 0)
(285.815 0 0)
(286.384 0 0)
(286.942 0 0)
(287.487 0 0)
(288.022 0 0)
(288.545 0 0)
(289.056 0 0)
(289.555 0 0)
(290.043 0 0)
(290.519 0 0)
(290.984 0 0)
(291.437 0 0)
(291.878 0 0)
(292.308 0 0)
(292.723 0 0)
(293.14 0 0)
(293.498 0 0)
(293.992 0 0)
(228.931 0 0)
(230.272 0 0)
(231.595 0 0)
(232.901 0 0)
(234.19 0 0)
(235.463 0 0)
(236.72 0 0)
(237.961 0 0)
(239.186 0 0)
(240.395 0 0)
(241.59 0 0)
(242.769 0 0)
(243.933 0 0)
(245.083 0 0)
(246.219 0 0)
(247.34 0 0)
(248.447 0 0)
(249.54 0 0)
(250.619 0 0)
(251.685 0 0)
(252.737 0 0)
(253.776 0 0)
(254.801 0 0)
(255.814 0 0)
(256.813 0 0)
(257.8 0 0)
(258.774 0 0)
(259.735 0 0)
(260.684 0 0)
(261.62 0 0)
(262.544 0 0)
(263.456 0 0)
(264.355 0 0)
(265.243 0 0)
(266.118 0 0)
(266.982 0 0)
(267.833 0 0)
(268.673 0 0)
(269.501 0 0)
(270.318 0 0)
(271.123 0 0)
(271.916 0 0)
(272.698 0 0)
(273.469 0 0)
(274.228 0 0)
(274.976 0 0)
(275.712 0 0)
(276.437 0 0)
(277.151 0 0)
(277.854 0 0)
(278.546 0 0)
(279.227 0 0)
(279.896 0 0)
(280.555 0 0)
(281.202 0 0)
(281.838 0 0)
(282.464 0 0)
(283.078 0 0)
(283.681 0 0)
(284.274 0 0)
(284.856 0 0)
(285.426 0 0)
(285.986 0 0)
(286.535 0 0)
(287.072 0 0)
(287.599 0 0)
(288.115 0 0)
(288.62 0 0)
(289.115 0 0)
(289.598 0 0)
(290.07 0 0)
(290.531 0 0)
(290.982 0 0)
(291.42 0 0)
(291.85 0 0)
(292.263 0 0)
(292.681 0 0)
(293.04 0 0)
(293.536 0 0)
(230.479 0 0)
(231.758 0 0)
(233.021 0 0)
(234.268 0 0)
(235.501 0 0)
(236.718 0 0)
(237.92 0 0)
(239.108 0 0)
(240.281 0 0)
(241.44 0 0)
(242.585 0 0)
(243.717 0 0)
(244.834 0 0)
(245.938 0 0)
(247.029 0 0)
(248.106 0 0)
(249.171 0 0)
(250.222 0 0)
(251.261 0 0)
(252.286 0 0)
(253.3 0 0)
(254.301 0 0)
(255.289 0 0)
(256.266 0 0)
(257.23 0 0)
(258.182 0 0)
(259.123 0 0)
(260.051 0 0)
(260.968 0 0)
(261.873 0 0)
(262.767 0 0)
(263.649 0 0)
(264.52 0 0)
(265.379 0 0)
(266.227 0 0)
(267.064 0 0)
(267.89 0 0)
(268.705 0 0)
(269.508 0 0)
(270.301 0 0)
(271.083 0 0)
(271.853 0 0)
(272.613 0 0)
(273.363 0 0)
(274.101 0 0)
(274.829 0 0)
(275.546 0 0)
(276.253 0 0)
(276.949 0 0)
(277.634 0 0)
(278.309 0 0)
(278.973 0 0)
(279.627 0 0)
(280.27 0 0)
(280.903 0 0)
(281.526 0 0)
(282.138 0 0)
(282.74 0 0)
(283.331 0 0)
(283.913 0 0)
(284.483 0 0)
(285.044 0 0)
(285.594 0 0)
(286.134 0 0)
(286.663 0 0)
(287.182 0 0)
(287.691 0 0)
(288.19 0 0)
(288.678 0 0)
(289.156 0 0)
(289.624 0 0)
(290.081 0 0)
(290.528 0 0)
(290.964 0 0)
(291.392 0 0)
(291.804 0 0)
(292.221 0 0)
(292.58 0 0)
(293.077 0 0)
(231.957 0 0)
(233.178 0 0)
(234.384 0 0)
(235.576 0 0)
(236.755 0 0)
(237.919 0 0)
(239.07 0 0)
(240.207 0 0)
(241.332 0 0)
(242.443 0 0)
(243.541 0 0)
(244.626 0 0)
(245.699 0 0)
(246.759 0 0)
(247.807 0 0)
(248.843 0 0)
(249.867 0 0)
(250.878 0 0)
(251.878 0 0)
(252.866 0 0)
(253.842 0 0)
(254.807 0 0)
(255.76 0 0)
(256.702 0 0)
(257.633 0 0)
(258.552 0 0)
(259.46 0 0)
(260.357 0 0)
(261.243 0 0)
(262.118 0 0)
(262.983 0 0)
(263.836 0 0)
(264.679 0 0)
(265.511 0 0)
(266.333 0 0)
(267.144 0 0)
(267.945 0 0)
(268.735 0 0)
(269.515 0 0)
(270.284 0 0)
(271.043 0 0)
(271.792 0 0)
(272.531 0 0)
(273.259 0 0)
(273.978 0 0)
(274.686 0 0)
(275.384 0 0)
(276.073 0 0)
(276.751 0 0)
(277.419 0 0)
(278.077 0 0)
(278.726 0 0)
(279.364 0 0)
(279.993 0 0)
(280.611 0 0)
(281.22 0 0)
(281.819 0 0)
(282.409 0 0)
(282.988 0 0)
(283.558 0 0)
(284.118 0 0)
(284.668 0 0)
(285.208 0 0)
(285.739 0 0)
(286.26 0 0)
(286.771 0 0)
(287.273 0 0)
(287.765 0 0)
(288.247 0 0)
(288.719 0 0)
(289.182 0 0)
(289.634 0 0)
(290.078 0 0)
(290.511 0 0)
(290.935 0 0)
(291.346 0 0)
(291.761 0 0)
(292.12 0 0)
(292.616 0 0)
(233.369 0 0)
(234.535 0 0)
(235.688 0 0)
(236.828 0 0)
(237.955 0 0)
(239.069 0 0)
(240.172 0 0)
(241.261 0 0)
(242.339 0 0)
(243.404 0 0)
(244.458 0 0)
(245.5 0 0)
(246.53 0 0)
(247.549 0 0)
(248.556 0 0)
(249.552 0 0)
(250.537 0 0)
(251.51 0 0)
(252.473 0 0)
(253.424 0 0)
(254.365 0 0)
(255.295 0 0)
(256.214 0 0)
(257.123 0 0)
(258.021 0 0)
(258.909 0 0)
(259.786 0 0)
(260.652 0 0)
(261.509 0 0)
(262.355 0 0)
(263.192 0 0)
(264.018 0 0)
(264.834 0 0)
(265.64 0 0)
(266.436 0 0)
(267.222 0 0)
(267.998 0 0)
(268.764 0 0)
(269.521 0 0)
(270.268 0 0)
(271.005 0 0)
(271.733 0 0)
(272.451 0 0)
(273.159 0 0)
(273.858 0 0)
(274.547 0 0)
(275.227 0 0)
(275.897 0 0)
(276.558 0 0)
(277.21 0 0)
(277.852 0 0)
(278.484 0 0)
(279.107 0 0)
(279.721 0 0)
(280.326 0 0)
(280.921 0 0)
(281.507 0 0)
(282.084 0 0)
(282.652 0 0)
(283.21 0 0)
(283.759 0 0)
(284.299 0 0)
(284.83 0 0)
(285.351 0 0)
(285.863 0 0)
(286.366 0 0)
(286.86 0 0)
(287.345 0 0)
(287.82 0 0)
(288.287 0 0)
(288.744 0 0)
(289.192 0 0)
(289.63 0 0)
(290.06 0 0)
(290.481 0 0)
(290.889 0 0)
(291.302 0 0)
(291.659 0 0)
(292.154 0 0)
(234.719 0 0)
(235.834 0 0)
(236.936 0 0)
(238.026 0 0)
(239.105 0 0)
(240.172 0 0)
(241.228 0 0)
(242.272 0 0)
(243.305 0 0)
(244.327 0 0)
(245.339 0 0)
(246.339 0 0)
(247.329 0 0)
(248.308 0 0)
(249.276 0 0)
(250.234 0 0)
(251.181 0 0)
(252.119 0 0)
(253.046 0 0)
(253.962 0 0)
(254.869 0 0)
(255.766 0 0)
(256.652 0 0)
(257.529 0 0)
(258.396 0 0)
(259.253 0 0)
(260.1 0 0)
(260.938 0 0)
(261.766 0 0)
(262.584 0 0)
(263.393 0 0)
(264.193 0 0)
(264.983 0 0)
(265.764 0 0)
(266.535 0 0)
(267.297 0 0)
(268.05 0 0)
(268.793 0 0)
(269.527 0 0)
(270.252 0 0)
(270.968 0 0)
(271.675 0 0)
(272.373 0 0)
(273.062 0 0)
(273.741 0 0)
(274.412 0 0)
(275.074 0 0)
(275.726 0 0)
(276.37 0 0)
(277.005 0 0)
(277.631 0 0)
(278.249 0 0)
(278.857 0 0)
(279.456 0 0)
(280.047 0 0)
(280.629 0 0)
(281.202 0 0)
(281.767 0 0)
(282.322 0 0)
(282.869 0 0)
(283.407 0 0)
(283.937 0 0)
(284.457 0 0)
(284.97 0 0)
(285.473 0 0)
(285.967 0 0)
(286.453 0 0)
(286.931 0 0)
(287.399 0 0)
(287.859 0 0)
(288.311 0 0)
(288.753 0 0)
(289.187 0 0)
(289.612 0 0)
(290.03 0 0)
(290.434 0 0)
(290.845 0 0)
(291.2 0 0)
(291.693 0 0)
(236.011 0 0)
(237.076 0 0)
(238.131 0 0)
(239.174 0 0)
(240.207 0 0)
(241.229 0 0)
(242.24 0 0)
(243.242 0 0)
(244.233 0 0)
(245.214 0 0)
(246.185 0 0)
(247.145 0 0)
(248.096 0 0)
(249.037 0 0)
(249.969 0 0)
(250.89 0 0)
(251.802 0 0)
(252.704 0 0)
(253.597 0 0)
(254.481 0 0)
(255.355 0 0)
(256.219 0 0)
(257.075 0 0)
(257.921 0 0)
(258.758 0 0)
(259.585 0 0)
(260.404 0 0)
(261.214 0 0)
(262.014 0 0)
(262.806 0 0)
(263.589 0 0)
(264.363 0 0)
(265.128 0 0)
(265.884 0 0)
(266.631 0 0)
(267.37 0 0)
(268.1 0 0)
(268.821 0 0)
(269.533 0 0)
(270.237 0 0)
(270.932 0 0)
(271.619 0 0)
(272.297 0 0)
(272.967 0 0)
(273.628 0 0)
(274.28 0 0)
(274.925 0 0)
(275.56 0 0)
(276.187 0 0)
(276.806 0 0)
(277.417 0 0)
(278.019 0 0)
(278.612 0 0)
(279.198 0 0)
(279.775 0 0)
(280.343 0 0)
(280.904 0 0)
(281.456 0 0)
(282 0 0)
(282.535 0 0)
(283.062 0 0)
(283.581 0 0)
(284.092 0 0)
(284.595 0 0)
(285.089 0 0)
(285.575 0 0)
(286.053 0 0)
(286.523 0 0)
(286.984 0 0)
(287.437 0 0)
(287.883 0 0)
(288.319 0 0)
(288.748 0 0)
(289.168 0 0)
(289.582 0 0)
(289.983 0 0)
(290.39 0 0)
(290.742 0 0)
(291.232 0 0)
(237.247 0 0)
(238.266 0 0)
(239.275 0 0)
(240.274 0 0)
(241.263 0 0)
(242.242 0 0)
(243.212 0 0)
(244.172 0 0)
(245.123 0 0)
(246.065 0 0)
(246.997 0 0)
(247.92 0 0)
(248.834 0 0)
(249.739 0 0)
(250.635 0 0)
(251.522 0 0)
(252.4 0 0)
(253.269 0 0)
(254.129 0 0)
(254.98 0 0)
(255.823 0 0)
(256.657 0 0)
(257.482 0 0)
(258.299 0 0)
(259.107 0 0)
(259.907 0 0)
(260.698 0 0)
(261.48 0 0)
(262.254 0 0)
(263.02 0 0)
(263.778 0 0)
(264.527 0 0)
(265.267 0 0)
(266 0 0)
(266.724 0 0)
(267.44 0 0)
(268.148 0 0)
(268.848 0 0)
(269.539 0 0)
(270.222 0 0)
(270.898 0 0)
(271.565 0 0)
(272.224 0 0)
(272.875 0 0)
(273.518 0 0)
(274.152 0 0)
(274.779 0 0)
(275.398 0 0)
(276.009 0 0)
(276.612 0 0)
(277.207 0 0)
(277.794 0 0)
(278.374 0 0)
(278.945 0 0)
(279.509 0 0)
(280.064 0 0)
(280.612 0 0)
(281.152 0 0)
(281.684 0 0)
(282.208 0 0)
(282.724 0 0)
(283.233 0 0)
(283.734 0 0)
(284.227 0 0)
(284.712 0 0)
(285.189 0 0)
(285.659 0 0)
(286.121 0 0)
(286.575 0 0)
(287.021 0 0)
(287.46 0 0)
(287.891 0 0)
(288.314 0 0)
(288.729 0 0)
(289.138 0 0)
(289.535 0 0)
(289.938 0 0)
(290.288 0 0)
(290.774 0 0)
(238.431 0 0)
(239.406 0 0)
(240.371 0 0)
(241.328 0 0)
(242.276 0 0)
(243.214 0 0)
(244.145 0 0)
(245.066 0 0)
(245.979 0 0)
(246.883 0 0)
(247.778 0 0)
(248.665 0 0)
(249.544 0 0)
(250.414 0 0)
(251.276 0 0)
(252.13 0 0)
(252.975 0 0)
(253.812 0 0)
(254.641 0 0)
(255.462 0 0)
(256.274 0 0)
(257.079 0 0)
(257.875 0 0)
(258.664 0 0)
(259.444 0 0)
(260.217 0 0)
(260.981 0 0)
(261.738 0 0)
(262.487 0 0)
(263.227 0 0)
(263.96 0 0)
(264.686 0 0)
(265.403 0 0)
(266.113 0 0)
(266.814 0 0)
(267.509 0 0)
(268.195 0 0)
(268.874 0 0)
(269.545 0 0)
(270.208 0 0)
(270.864 0 0)
(271.512 0 0)
(272.152 0 0)
(272.785 0 0)
(273.41 0 0)
(274.028 0 0)
(274.638 0 0)
(275.241 0 0)
(275.836 0 0)
(276.423 0 0)
(277.003 0 0)
(277.576 0 0)
(278.141 0 0)
(278.698 0 0)
(279.249 0 0)
(279.791 0 0)
(280.326 0 0)
(280.854 0 0)
(281.375 0 0)
(281.888 0 0)
(282.393 0 0)
(282.891 0 0)
(283.382 0 0)
(283.865 0 0)
(284.341 0 0)
(284.81 0 0)
(285.271 0 0)
(285.725 0 0)
(286.172 0 0)
(286.611 0 0)
(287.043 0 0)
(287.468 0 0)
(287.885 0 0)
(288.295 0 0)
(288.699 0 0)
(289.091 0 0)
(289.49 0 0)
(289.836 0 0)
(290.317 0 0)
(239.565 0 0)
(240.498 0 0)
(241.423 0 0)
(242.339 0 0)
(243.247 0 0)
(244.148 0 0)
(245.04 0 0)
(245.924 0 0)
(246.8 0 0)
(247.669 0 0)
(248.529 0 0)
(249.382 0 0)
(250.227 0 0)
(251.064 0 0)
(251.894 0 0)
(252.715 0 0)
(253.53 0 0)
(254.336 0 0)
(255.135 0 0)
(255.926 0 0)
(256.71 0 0)
(257.486 0 0)
(258.255 0 0)
(259.016 0 0)
(259.77 0 0)
(260.516 0 0)
(261.255 0 0)
(261.987 0 0)
(262.711 0 0)
(263.428 0 0)
(264.137 0 0)
(264.839 0 0)
(265.534 0 0)
(266.222 0 0)
(266.902 0 0)
(267.575 0 0)
(268.241 0 0)
(268.899 0 0)
(269.55 0 0)
(270.194 0 0)
(270.831 0 0)
(271.46 0 0)
(272.083 0 0)
(272.698 0 0)
(273.306 0 0)
(273.907 0 0)
(274.501 0 0)
(275.087 0 0)
(275.667 0 0)
(276.239 0 0)
(276.804 0 0)
(277.363 0 0)
(277.914 0 0)
(278.458 0 0)
(278.995 0 0)
(279.525 0 0)
(280.048 0 0)
(280.563 0 0)
(281.072 0 0)
(281.574 0 0)
(282.069 0 0)
(282.556 0 0)
(283.037 0 0)
(283.511 0 0)
(283.978 0 0)
(284.438 0 0)
(284.89 0 0)
(285.336 0 0)
(285.775 0 0)
(286.207 0 0)
(286.632 0 0)
(287.05 0 0)
(287.462 0 0)
(287.866 0 0)
(288.264 0 0)
(288.651 0 0)
(289.046 0 0)
(289.388 0 0)
(289.864 0 0)
(240.652 0 0)
(241.545 0 0)
(242.431 0 0)
(243.309 0 0)
(244.18 0 0)
(245.043 0 0)
(245.9 0 0)
(246.748 0 0)
(247.59 0 0)
(248.424 0 0)
(249.251 0 0)
(250.071 0 0)
(250.884 0 0)
(251.69 0 0)
(252.488 0 0)
(253.279 0 0)
(254.064 0 0)
(254.841 0 0)
(255.611 0 0)
(256.374 0 0)
(257.13 0 0)
(257.879 0 0)
(258.621 0 0)
(259.357 0 0)
(260.085 0 0)
(260.806 0 0)
(261.52 0 0)
(262.228 0 0)
(262.928 0 0)
(263.622 0 0)
(264.309 0 0)
(264.988 0 0)
(265.661 0 0)
(266.327 0 0)
(266.987 0 0)
(267.639 0 0)
(268.285 0 0)
(268.924 0 0)
(269.555 0 0)
(270.181 0 0)
(270.799 0 0)
(271.411 0 0)
(272.015 0 0)
(272.613 0 0)
(273.205 0 0)
(273.789 0 0)
(274.367 0 0)
(274.938 0 0)
(275.502 0 0)
(276.06 0 0)
(276.611 0 0)
(277.155 0 0)
(277.692 0 0)
(278.223 0 0)
(278.747 0 0)
(279.264 0 0)
(279.775 0 0)
(280.279 0 0)
(280.776 0 0)
(281.267 0 0)
(281.751 0 0)
(282.229 0 0)
(282.699 0 0)
(283.164 0 0)
(283.621 0 0)
(284.072 0 0)
(284.516 0 0)
(284.954 0 0)
(285.385 0 0)
(285.81 0 0)
(286.228 0 0)
(286.639 0 0)
(287.044 0 0)
(287.442 0 0)
(287.835 0 0)
(288.217 0 0)
(288.606 0 0)
(288.945 0 0)
(289.415 0 0)
(241.693 0 0)
(242.549 0 0)
(243.398 0 0)
(244.24 0 0)
(245.075 0 0)
(245.904 0 0)
(246.725 0 0)
(247.541 0 0)
(248.349 0 0)
(249.151 0 0)
(249.946 0 0)
(250.734 0 0)
(251.516 0 0)
(252.292 0 0)
(253.06 0 0)
(253.823 0 0)
(254.578 0 0)
(255.327 0 0)
(256.07 0 0)
(256.806 0 0)
(257.536 0 0)
(258.259 0 0)
(258.975 0 0)
(259.685 0 0)
(260.389 0 0)
(261.086 0 0)
(261.776 0 0)
(262.461 0 0)
(263.138 0 0)
(263.809 0 0)
(264.474 0 0)
(265.133 0 0)
(265.784 0 0)
(266.43 0 0)
(267.069 0 0)
(267.701 0 0)
(268.328 0 0)
(268.947 0 0)
(269.561 0 0)
(270.168 0 0)
(270.768 0 0)
(271.362 0 0)
(271.95 0 0)
(272.531 0 0)
(273.106 0 0)
(273.675 0 0)
(274.237 0 0)
(274.793 0 0)
(275.342 0 0)
(275.885 0 0)
(276.422 0 0)
(276.952 0 0)
(277.476 0 0)
(277.994 0 0)
(278.505 0 0)
(279.01 0 0)
(279.509 0 0)
(280.001 0 0)
(280.487 0 0)
(280.967 0 0)
(281.441 0 0)
(281.908 0 0)
(282.368 0 0)
(282.823 0 0)
(283.271 0 0)
(283.713 0 0)
(284.149 0 0)
(284.578 0 0)
(285.002 0 0)
(285.419 0 0)
(285.829 0 0)
(286.234 0 0)
(286.632 0 0)
(287.024 0 0)
(287.411 0 0)
(287.787 0 0)
(288.171 0 0)
(288.506 0 0)
(288.97 0 0)
(242.693 0 0)
(243.513 0 0)
(244.326 0 0)
(245.134 0 0)
(245.935 0 0)
(246.73 0 0)
(247.519 0 0)
(248.302 0 0)
(249.079 0 0)
(249.85 0 0)
(250.614 0 0)
(251.373 0 0)
(252.125 0 0)
(252.872 0 0)
(253.612 0 0)
(254.346 0 0)
(255.074 0 0)
(255.797 0 0)
(256.513 0 0)
(257.223 0 0)
(257.927 0 0)
(258.625 0 0)
(259.317 0 0)
(260.003 0 0)
(260.682 0 0)
(261.356 0 0)
(262.024 0 0)
(262.686 0 0)
(263.341 0 0)
(263.991 0 0)
(264.635 0 0)
(265.272 0 0)
(265.904 0 0)
(266.529 0 0)
(267.148 0 0)
(267.762 0 0)
(268.369 0 0)
(268.97 0 0)
(269.566 0 0)
(270.155 0 0)
(270.738 0 0)
(271.315 0 0)
(271.886 0 0)
(272.451 0 0)
(273.01 0 0)
(273.563 0 0)
(274.11 0 0)
(274.651 0 0)
(275.186 0 0)
(275.715 0 0)
(276.238 0 0)
(276.755 0 0)
(277.266 0 0)
(277.771 0 0)
(278.27 0 0)
(278.762 0 0)
(279.249 0 0)
(279.73 0 0)
(280.205 0 0)
(280.674 0 0)
(281.137 0 0)
(281.594 0 0)
(282.044 0 0)
(282.489 0 0)
(282.928 0 0)
(283.361 0 0)
(283.789 0 0)
(284.21 0 0)
(284.625 0 0)
(285.034 0 0)
(285.438 0 0)
(285.835 0 0)
(286.227 0 0)
(286.612 0 0)
(286.993 0 0)
(287.364 0 0)
(287.742 0 0)
(288.072 0 0)
(288.53 0 0)
(243.651 0 0)
(244.437 0 0)
(245.218 0 0)
(245.992 0 0)
(246.761 0 0)
(247.524 0 0)
(248.282 0 0)
(249.034 0 0)
(249.781 0 0)
(250.522 0 0)
(251.257 0 0)
(251.987 0 0)
(252.711 0 0)
(253.43 0 0)
(254.143 0 0)
(254.851 0 0)
(255.553 0 0)
(256.249 0 0)
(256.94 0 0)
(257.625 0 0)
(258.304 0 0)
(258.978 0 0)
(259.646 0 0)
(260.309 0 0)
(260.966 0 0)
(261.618 0 0)
(262.263 0 0)
(262.903 0 0)
(263.538 0 0)
(264.167 0 0)
(264.79 0 0)
(265.407 0 0)
(266.019 0 0)
(266.625 0 0)
(267.226 0 0)
(267.82 0 0)
(268.409 0 0)
(268.993 0 0)
(269.571 0 0)
(270.143 0 0)
(270.709 0 0)