/*--------------------------------*- C++ -*----------------------------------*\
| =========                 |                                                 |
| \\      /  F ield         | OpenFOAM: The Open Source CFD Toolbox           |
|  \\    /   O peration     | Version:  2312                                  |
|   \\  /    A nd           | Website:  www.openfoam.com                      |
|    \\/     M anipulation  |                                                 |
\*---------------------------------------------------------------------------*/
FoamFile
{
    version     2.0;
    format      ascii;
    arch        "LSB;label=32;scalar=64";
    class       volScalarField;
    location    "3";
    object      wave;
}
// * * * * * * * * * * * * * * * * * * * * * * * * * * * * * * * * * * * * * //

dimensions      [0 0 0 0 0 0 0];

internalField   nonuniform List<scalar> 
100
(
0.0622193
-0.0962575
-0.252316
-0.402036
-0.541656
-0.667668
-0.776907
-0.866628
-0.934578
-0.979049
-0.998924
-0.993704
-0.96352
-0.90913
-0.831901
-0.733772
-0.61721
-0.485142
-0.340886
-0.188066
-0.0305216
0.12779
0.28289
0.430884
0.568054
0.690952
0.796492
0.882023
0.945395
0.985017
0.999893
0.989649
0.954543
0.895457
0.813875
0.711847
0.591936
0.457153
0.310887
0.15681
-0.0012069
-0.159193
-0.31318
-0.459299
-0.593879
-0.71354
-0.815275
-0.896529
-0.95526
-0.989992
-0.999854
-0.984597
-0.944605
-0.880883
-0.79503
-0.689205
-0.566065
-0.428705
-0.280574
-0.125395
0.0329342
0.190436
0.343154
0.487251
0.619107
0.73541
0.833238
0.910133
0.964163
0.993972
0.998809
0.978555
0.933716
0.865421
0.775385
0.665869
0.539625
0.399825
0.24998
0.0938546
-0.0646282
-0.221488
-0.372783
-0.514712
-0.643712
-0.756539
-0.850361
-0.92282
-0.972095
-0.99695
-0.996758
-0.971526
-0.921887
-0.849089
-0.754959
-0.641863
-0.512642
-0.370542
-0.219133
-0.0622196
)
;

boundaryField
{
    movingWall
    {
        type            calculated;
        value           uniform 0;
    }
    fixedWalls
    {
        type            calculated;
        value           uniform 0;
    }
    frontAndBack
    {
        type            empty;
    }
}


// ************************************************************************* //
