/*--------------------------------*- C++ -*----------------------------------*\
| =========                 |                                                 |
| \\      /  F ield         | OpenFOAM: The Open Source CFD Toolbox           |
|  \\    /   O peration     | Version:  2312                                  |
|   \\  /    A nd           | Website:  www.openfoam.com                      |
|    \\/     M anipulation  |                                                 |
\*---------------------------------------------------------------------------*/
FoamFile
{
    version     2.0;
    format      ascii;
    arch        "LSB;label=32;scalar=64";
    class       surfaceScalarField;
    location    "0.176";
    object      phi;
}
// * * * * * * * * * * * * * * * * * * * * * * * * * * * * * * * * * * * * * //

dimensions      [0 3 -1 0 0 0 0];

oriented        oriented;

internalField   nonuniform List<scalar> 
62015
(
88.6255
0.172887
-88.6309
88.6115
0.169639
88.5893
0.166291
88.5591
0.162845
88.5209
0.159305
88.4752
0.155672
88.422
0.151951
88.3615
0.148143
88.2939
0.144251
88.2193
0.140279
88.1378
0.136229
88.0495
0.132104
87.9545
0.127907
87.8529
0.123642
87.7448
0.119311
87.63
0.114918
87.5088
0.110466
87.381
0.105958
87.2467
0.101398
87.1058
0.0967881
86.9583
0.0921333
86.804
0.087436
86.6429
0.0827002
86.4748
0.0779296
86.2997
0.0731275
86.1172
0.0682979
85.9273
0.0634441
85.7297
0.0585705
85.524
0.0536808
85.3102
0.0487787
85.0877
0.043868
84.8562
0.0389533
84.6154
0.034039
84.3647
0.0291281
84.1036
0.0242264
83.8316
0.0193368
83.548
0.0144649
83.2522
0.00961522
82.9433
0.00479162
82.6204
0
82.2827
-0.00475508
81.9289
-0.00946886
81.5578
-0.014135
81.1681
-0.0187486
80.758
-0.0233039
80.3259
-0.0277937
79.8696
-0.0322127
79.3866
-0.0365527
78.8741
-0.040807
78.3287
-0.0449673
77.7459
-0.049024
77.1211
-0.0529668
76.4511
-0.0567843
75.7279
-0.0604663
74.9219
-0.0639963
74.0009
-0.0673358
73.0482
-0.0704361
72.2922
-0.0733765
71.4227
-0.0764281
68.3525
-0.0792365
60.4526
-0.0790719
49.1216
-0.0721693
39.4816
-0.060277
34.193
-0.0503945
32.099
-0.0457989
31.4673
-0.0448989
31.3894
-0.0456588
31.5174
-0.0470557
31.7283
-0.0486966
31.9783
-0.0504395
32.2504
-0.0522318
32.5371
-0.054052
32.8348
-0.0558909
33.1418
-0.0577418
33.4551
-0.0596046
33.7793
-0.0614666
34.096
-0.0633569
34.4595
-0.0651757
-0.0672275
34.7013
86.1243
0.341222
-86.1463
86.0951
0.33475
86.0585
0.328086
86.015
0.321235
85.9646
0.314202
85.9075
0.306992
85.8439
0.299611
85.7739
0.292064
85.6977
0.284356
85.6153
0.276493
85.527
0.26848
85.4326
0.260324
85.3325
0.25203
85.2265
0.243603
85.1147
0.235051
84.9972
0.226379
84.8739
0.217594
84.745
0.208701
84.6102
0.199707
84.4697
0.190619
84.3233
0.181444
84.1709
0.172187
84.0126
0.162856
83.8481
0.153458
83.6773
0.143999
83.5001
0.134488
83.3162
0.12493
83.1255
0.115334
82.9278
0.105706
82.7227
0.0960554
82.5099
0.0863881
82.2892
0.0767128
82.0602
0.067037
81.8224
0.0573696
81.5754
0.0477177
81.3186
0.0380904
81.0516
0.028496
80.7737
0.0189434
80.4841
0.0094417
80.1822
0
79.867
-0.0093722
79.5376
-0.0186651
79.193
-0.0278687
78.8318
-0.0369723
78.4527
-0.0459647
78.0542
-0.0548347
77.6344
-0.0635694
77.1913
-0.0721569
76.7224
-0.0805825
76.2251
-0.0888316
75.6958
-0.0968874
75.1301
-0.104732
74.5241
-0.112345
73.8747
-0.119703
73.1709
-0.126787
72.3785
-0.133557
71.4795
-0.139921
70.6018
-0.14581
69.9477
-0.151506
68.9082
-0.157537
65.0492
-0.162352
56.3055
-0.159123
45.22
-0.141515
36.7579
-0.116771
32.4978
-0.0989429
30.9116
-0.0916945
30.4712
-0.0908381
30.4563
-0.0926807
30.6006
-0.0955407
30.8106
-0.0987915
31.0526
-0.102208
31.3136
-0.105706
31.5873
-0.109251
31.8713
-0.112825
32.1623
-0.116425
32.4643
-0.120024
32.7599
-0.123678
33.0995
-0.127198
-0.131154
33.3284
83.6838
0.50506
-83.7204
83.6407
0.495395
83.5913
0.485453
83.5358
0.475242
83.4744
0.464768
83.4072
0.45404
83.3342
0.443064
83.2558
0.431848
83.1718
0.420401
83.0826
0.40873
82.9881
0.396844
82.8884
0.38475
82.7836
0.372457
82.6737
0.359973
82.5587
0.347308
82.4388
0.33447
82.3138
0.321468
82.1838
0.308311
82.0488
0.295009
81.9086
0.28157
81.7634
0.268005
81.6129
0.254323
81.4571
0.240534
81.2959
0.226647
81.1292
0.212674
80.9568
0.198624
80.7785
0.184508
80.5942
0.170336
80.4037
0.156119
80.2066
0.141867
80.0028
0.127593
79.7919
0.113306
79.5736
0.0990194
79.3476
0.0847438
79.1133
0.0704906
78.8704
0.0562727
78.6184
0.0421021
78.3567
0.0279908
78.0846
0.0139525
77.8016
0
77.5067
-0.0138532
77.1993
-0.0275932
76.8784
-0.0412059
76.5428
-0.0546755
76.1914
-0.0679872
75.8228
-0.081125
75.4355
-0.0940709
75.0278
-0.106808
74.5975
-0.119316
74.1424
-0.131575
73.6597
-0.143563
73.1458
-0.155256
72.5966
-0.166624
72.0087
-0.177638
71.3788
-0.188267
70.6916
-0.198479
69.9107
-0.2082
69.0405
-0.217274
68.2518
-0.225675
67.6716
-0.234033
66.3239
-0.242907
61.5481
-0.24827
52.1157
-0.238211
41.5665
-0.206598
34.3399
-0.169516
30.9899
-0.1462
29.8164
-0.137982
29.5257
-0.137857
29.5586
-0.140989
29.7139
-0.145333
29.9213
-0.150147
30.1551
-0.155161
30.4049
-0.160277
30.6666
-0.165448
30.936
-0.170662
31.2166
-0.17588
31.4923
-0.181176
31.8088
-0.186288
-0.192008
32.0247
81.2992
0.66444
-81.3487
81.2441
0.65162
81.1836
0.638446
81.1178
0.624925
81.0468
0.611068
80.9707
0.596885
80.8898
0.582383
80.804
0.567575
80.7135
0.552468
80.6183
0.537074
80.5186
0.521404
80.4144
0.505467
80.3058
0.489275
80.1927
0.472838
80.0752
0.456167
79.9534
0.439275
79.8272
0.422172
79.6966
0.404871
79.5617
0.387382
79.4222
0.369719
79.2783
0.351893
79.1298
0.333917
78.9767
0.315804
78.8188
0.297565
78.6561
0.279216
78.4884
0.260767
78.3155
0.242234
78.1373
0.223628
77.9536
0.204965
77.7642
0.186258
77.5687
0.167521
77.3671
0.148769
77.1588
0.130015
76.9437
0.111276
76.7213
0.0925658
76.4913
0.0739002
76.2531
0.0552944
76.0063
0.0367651
75.7504
0.018328
75.4847
0
75.2085
-0.0182017
74.9212
-0.0362595
74.6219
-0.0541554
74.3096
-0.0718698
73.9833
-0.089385
73.6419
-0.106679
73.284
-0.123731
72.908
-0.140519
72.5124
-0.15702
72.095
-0.173208
71.6536
-0.189055
71.1855
-0.204533
70.6869
-0.21961
70.1541
-0.234248
69.5844
-0.248405
68.9734
-0.262045
68.301
-0.275121
67.532
-0.287508
66.701
-0.298991
66.0115
-0.309694
65.4582
-0.320698
63.6662
-0.332073
57.9411
-0.335793
48.0753
-0.31487
38.3025
-0.267248
32.2603
-0.219519
29.6625
-0.193004
28.8063
-0.18498
28.6267
-0.185987
28.6936
-0.190498
28.8553
-0.196305
29.0585
-0.202617
29.2837
-0.209147
29.5231
-0.215786
29.7717
-0.222494
30.0317
-0.229216
30.2882
-0.236039
30.5829
-0.242634
-0.249991
30.7856
78.9691
0.819403
-79.0297
78.9038
0.803475
78.8337
0.787119
78.759
0.770347
78.6799
0.753169
78.5964
0.735598
78.5087
0.717645
78.4168
0.69932
78.3208
0.680638
78.2208
0.661608
78.1169
0.642246
78.0091
0.622562
77.8974
0.60257
77.7819
0.582284
77.6626
0.561716
77.5396
0.540881
77.4127
0.519792
77.282
0.498464
77.1476
0.47691
77.0092
0.455146
76.8669
0.433185
76.7207
0.411044
76.5704
0.388737
76.416
0.36628
76.2574
0.343688
76.0943
0.320977
75.9268
0.298164
75.7546
0.275264
75.5775
0.252294
75.3954
0.229272
75.208
0.206212
75.0151
0.183135
74.8164
0.160056
74.6116
0.136993
74.4005
0.113965
74.1825
0.0909899
73.9573
0.0680869
73.7245
0.0452743
73.4836
0.0225719
73.2341
0
72.9753
-0.0224213
72.7066
-0.0446713
72.4272
-0.0667283
72.1364
-0.0885697
71.8332
-0.110173
71.5167
-0.131515
71.1856
-0.15257
70.8387
-0.173312
70.4745
-0.193714
70.0913
-0.213747
69.6871
-0.23338
69.2598
-0.252579
68.8065
-0.271309
68.3237
-0.289528
67.8078
-0.307191
67.2567
-0.324247
66.6645
-0.340653
66.0063
-0.356341
65.2524
-0.37112
64.4721
-0.384743
63.8819
-0.397611
63.2954
-0.411266
60.9675
-0.424493
54.3864
-0.4239
44.3855
-0.388606
35.5164
-0.324422
30.5108
-0.268126
28.4944
-0.24008
27.8691
-0.232896
27.7679
-0.235204
27.8572
-0.241099
28.0213
-0.248315
28.219
-0.256048
28.4357
-0.264003
28.6635
-0.272081
28.9036
-0.280192
29.1415
-0.28843
29.4155
-0.296405
-0.305275
29.6053
76.6932
0.970001
-76.7631
76.6191
0.951016
76.541
0.931536
76.4589
0.911574
76.373
0.891143
76.2833
0.870256
76.1899
0.848926
76.093
0.827167
75.9926
0.804992
75.8888
0.782417
75.7815
0.759455
75.6709
0.736121
75.557
0.71243
75.4398
0.688398
75.3193
0.66404
75.1956
0.639373
75.0686
0.614411
74.9383
0.589172
74.8048
0.563672
74.6679
0.537928
74.5276
0.511957
74.3839
0.485777
74.2366
0.459404
74.0858
0.432858
73.9313
0.406155
73.773
0.379314
73.6107
0.352355
73.4444
0.325295
73.2738
0.298154
73.0988
0.270951
72.9192
0.243707
72.7348
0.21644
72.5452
0.189171
72.3503
0.161921
72.1498
0.13471
71.9432
0.107559
71.7303
0.0804908
71.5107
0.0535267
71.2839
0.0266887
71.0495
0
70.8069
-0.0265162
70.5555
-0.0528363
70.2947
-0.0789353
70.0238
-0.104789
69.742
-0.13037
69.4484
-0.155652
69.142
-0.180608
68.8217
-0.205208
68.4862
-0.229421
68.1342
-0.253216
67.7638
-0.276558
67.3733
-0.29941
66.9604
-0.321734
66.5224
-0.343486
66.0558
-0.364618
65.5575
-0.385074
65.0257
-0.404798
64.4521
-0.423739
63.8085
-0.4418
63.0748
-0.458714
62.3541
-0.474246
61.8537
-0.489202
61.1761
-0.50547
58.2813
-0.519613
51.0154
-0.511946
41.136
-0.459736
33.1854
-0.379468
29.0344
-0.316455
27.4517
-0.287879
26.9907
-0.281805
26.9432
-0.285436
27.0465
-0.292667
27.2098
-0.301219
27.4015
-0.310284
27.6082
-0.319585
27.8287
-0.328965
28.0485
-0.338505
28.3025
-0.34776
-0.358023
28.4797
74.4713
1.11629
-74.5492
74.3899
1.09431
74.305
1.07177
74.2168
1.04868
74.1252
1.02507
74.0305
1.00094
73.9326
0.97631
73.8317
0.951198
73.7277
0.925618
73.6209
0.899586
73.5111
0.873117
73.3984
0.84623
73.283
0.818941
73.1647
0.791267
73.0437
0.763226
72.9198
0.734835
72.7932
0.706112
72.6638
0.677077
72.5315
0.647748
72.3964
0.618143
72.2584
0.588283
72.1174
0.558186
71.9734
0.527872
71.8263
0.497363
71.676
0.466677
71.5224
0.435836
71.3654
0.40486
71.2049
0.373771
71.0407
0.34259
70.8726
0.31134
70.7005
0.280041
70.5242
0.248717
70.3434
0.21739
70.1579
0.186083
69.9675
0.15482
69.7718
0.123624
69.5705
0.0925193
69.3633
0.0615303
69.1498
0.0306822
68.9295
0
68.702
-0.0304902
68.4668
-0.0607615
68.2233
-0.0907874
67.9709
-0.12054
67.7089
-0.14999
67.4365
-0.179108
67.1529
-0.207864
66.857
-0.236227
66.5479
-0.264161
66.2242
-0.291634
65.8847
-0.318608
65.5276
-0.345043
65.1511
-0.370899
64.7531
-0.39613
64.3308
-0.420686
63.881
-0.444512
63.4009
-0.467543
62.8888
-0.489717
62.3341
-0.510978
61.7061
-0.531187
60.9978
-0.549999
60.3418
-0.567254
59.9152
-0.584254
59.1037
-0.603016
55.6692
-0.616965
47.9179
-0.599771
38.3385
-0.529146
31.2421
-0.433731
27.7692
-0.365299
26.5047
-0.336633
26.1596
-0.331693
26.1484
-0.336585
26.2594
-0.345073
26.4203
-0.35487
26.6041
-0.365191
26.8046
-0.3757
27.0065
-0.386425
27.2412
-0.396856
-0.408396
27.4063
72.3035
1.25835
-72.388
72.216
1.23343
72.1256
1.20789
72.0323
1.18175
71.9361
1.15502
71.8373
1.12773
71.7358
1.09988
71.6317
1.0715
71.5251
1.0426
71.416
1.0132
71.3044
0.983322
71.1904
0.952978
71.074
0.92219
70.9552
0.890976
70.8341
0.859356
70.7106
0.82735
70.5848
0.794977
70.4565
0.762258
70.3259
0.729214
70.1929
0.695865
70.0573
0.662234
69.9193
0.628341
69.7787
0.594208
69.6354
0.559858
69.4894
0.525314
69.3406
0.490597
69.1888
0.455731
69.034
0.42074
68.876
0.385647
68.7146
0.350476
68.5498
0.315252
68.3813
0.279998
68.2089
0.244741
68.0324
0.209505
67.8516
0.174316
67.6662
0.1392
67.4759
0.104183
67.2804
0.0692925
67.0793
0.0345556
66.8724
0
66.659
-0.0343461
66.439
-0.0684538
66.2116
-0.102294
65.9764
-0.135836
65.7327
-0.169049
65.4799
-0.2019
65.2173
-0.234359
64.9439
-0.266389
64.6589
-0.297956
64.3613
-0.329022
64.0498
-0.359549
63.723
-0.389496
63.3795
-0.418819
63.0174
-0.447471
62.6346
-0.475402
62.2285
-0.502555
61.7958
-0.528867
61.3345
-0.554267
60.8426
-0.57869
60.3069
-0.602069
59.6965
-0.624217
59.018
-0.644715
58.4273
-0.663539
58.0567
-0.682546
57.0915
-0.703605
53.1904
-0.716262
45.1447
-0.687701
35.9637
-0.598059
29.6137
-0.488413
26.6646
-0.415195
25.6312
-0.386444
25.3673
-0.382499
25.3801
-0.388538
25.4949
-0.39818
25.6508
-0.409146
25.8298
-0.420582
26.0136
-0.432353
26.2294
-0.443853
-0.456552
26.3825
70.1896
1.39625
-70.2795
70.0971
1.36845
70.0021
1.33998
69.9047
1.31085
69.805
1.28109
69.7029
1.25071
69.5986
1.21973
69.4921
1.18816
69.3835
1.15603
69.2728
1.12336
69.1601
1.09016
69.0453
1.05645
68.9285
1.02226
68.8097
0.987611
68.689
0.952516
68.5663
0.917
68.4416
0.881085
68.3149
0.844793
68.1862
0.808146
68.0554
0.771167
67.9226
0.733881
67.7877
0.696308
67.6505
0.658476
67.5111
0.620406
67.3694
0.582123
67.2253
0.543653
67.0787
0.505019
66.9295
0.466249
66.7776
0.427367
66.6228
0.3884
66.465
0.349373
66.304
0.310315
66.1396
0.27125
65.9717
0.232208
65.8001
0.193216
65.6244
0.154302
65.4445
0.115493
65.26
0.0768211
65.0707
0.0383132
64.8762
0
64.6762
-0.0380881
64.4702
-0.0759203
64.2579
-0.113465
64.0386
-0.150689
63.812
-0.187561
63.5774
-0.224046
63.3341
-0.260109
63.0815
-0.295714
62.8187
-0.330824
62.5448
-0.365401
62.2589
-0.399403
61.9597
-0.432788
61.646
-0.46551
61.3163
-0.497522
60.9688
-0.528773
60.6016
-0.559206
60.2119
-0.588761
59.7969
-0.617365
59.3548
-0.644942
58.8833
-0.671424
58.3672
-0.696734
57.7764
-0.720629
57.1307
-0.742629
56.6021
-0.762895
56.272
-0.783848
55.1585
-0.806959
50.8948
-0.817451
42.7179
-0.776489
33.9666
-0.667887
28.2368
-0.544573
25.6829
-0.466529
24.8155
-0.437346
24.6081
-0.434148
24.6365
-0.441176
24.7511
-0.451878
24.9042
-0.463863
25.0685
-0.476478
25.2652
-0.488918
-0.50265
25.4066
68.1292
1.53007
-68.2235
68.0327
1.49946
67.9341
1.46813
67.8335
1.43609
67.7309
1.40336
67.6264
1.36997
67.52
1.33593
67.4119
1.30127
67.3019
1.26599
67.1902
1.23013
67.0769
1.19371
66.9618
1.15674
66.8451
1.11925
66.7268
1.08126
66.6068
1.04279
66.4852
1.00387
66.3619
0.964515
66.2371
0.924758
66.1105
0.884618
65.9823
0.844121
65.8523
0.803292
65.7205
0.762155
65.587
0.720737
65.4516
0.679063
65.3142
0.63716
65.1748
0.595055
65.0333
0.552773
64.8895
0.510343
64.7435
0.467793
64.595
0.425149
64.444
0.38244
64.2902
0.339696
64.1336
0.296945
63.9739
0.254216
63.8109
0.211539
63.6445
0.168944
63.4744
0.126461
63.3004
0.0841225
63.1221
0.0419578
62.9393
0
62.7517
-0.041719
62.559
-0.0831668
62.3606
-0.124309
62.1562
-0.165112
61.9454
-0.205542
61.7276
-0.245561
61.5022
-0.285134
61.2686
-0.324223
61.0262
-0.362789
60.7742
-0.400791
60.5116
-0.438189
60.2376
-0.474937
59.951
-0.51099
59.6505
-0.546299
59.3348
-0.580812
59.0022
-0.614474
58.6507
-0.647224
58.2777
-0.678995
57.8806
-0.709709
57.458
-0.739284
57.0071
-0.76765
56.5115
-0.794718
55.9421
-0.820189
55.3305
-0.843532
54.858
-0.865122
54.5581
-0.887925
53.3254
-0.912849
48.8195
-0.920713
40.6397
-0.867221
32.3006
-0.740147
27.0621
-0.603188
24.7977
-0.51962
24.0471
-0.489359
23.8781
-0.486549
23.9149
-0.4944
24.03
-0.505988
24.171
-0.519056
24.3474
-0.53224
-0.546856
24.4769
66.122
1.65989
-66.2198
66.0223
1.62654
65.9209
1.59241
65.8178
1.55753
65.7131
1.52193
65.6068
1.4856
65.499
1.44859
65.3897
1.41091
65.279
1.37258
65.1669
1.33362
65.0534
1.29406
64.9385
1.25392
64.8223
1.21322
64.7047
1.17199
64.5859
1.13025
64.4657
1.08803
64.3442
1.04535
64.2213
1.00223
64.0971
0.958703
63.9715
0.914797
63.8446
0.870535
63.7161
0.825945
63.5862
0.781054
63.4547
0.735891
63.3217
0.690481
63.1869
0.644855
63.0504
0.59904
62.9121
0.553067
62.7718
0.506963
62.6294
0.46076
62.4849
0.414486
62.3381
0.368172
62.1888
0.32185
62.0369
0.275549
61.8822
0.229303
61.7246
0.183141
61.5638
0.137097
61.3996
0.091204
61.2317
0.0454935
61.0599
0
60.884
-0.0452427
60.7035
-0.0902001
60.5182
-0.134836
60.3277
-0.179117
60.1315
-0.223005
59.9292
-0.266462
59.7204
-0.309452
59.5044
-0.351934
59.2808
-0.393869
59.0487
-0.435215
58.8075
-0.475928
58.5564
-0.515965
58.2944
-0.555278
58.0204
-0.593818
57.7333
-0.631534
57.4317
-0.668368
57.1141
-0.704263
56.7785
-0.739153
56.4224
-0.772967
56.0434
-0.805621
55.6405
-0.837027
55.2105
-0.867116
54.7361
-0.895786
54.19
-0.922684
53.6122
-0.947236
53.1879
-0.970031
52.9139
-0.994539
51.6098
-1.0211
46.9884
-1.02642
38.9013
-0.961201
30.9247
-0.81644
26.0531
-0.665247
23.9907
-0.574805
23.319
-0.542509
23.1739
-0.539649
23.2169
-0.54805
23.3231
-0.560561
23.4756
-0.574084
-0.589361
23.5921
64.1673
1.7858
-64.2679
64.0652
1.74977
63.9617
1.71293
63.8568
1.67528
63.7506
1.63687
63.6432
1.59769
63.5345
1.55779
63.4246
1.51718
63.3136
1.47588
63.2015
1.43391
63.0882
1.39131
62.9739
1.34809
62.8585
1.30428
62.7421
1.25991
62.6247
1.21499
62.5061
1.16957
62.3866
1.12365
62.266
1.07728
62.1443
1.03047
62.0215
0.983263
61.8976
0.935676
61.7726
0.887741
61.6463
0.839487
61.5188
0.790942
61.39
0.742137
61.2599
0.693103
61.1283
0.643867
60.9952
0.594462
60.8604
0.544918
60.724
0.495267
60.5858
0.445541
60.4456
0.395771
60.3034
0.34599
60.1589
0.296229
60.0121
0.246524
59.8628
0.196907
59.7108
0.147411
59.5558
0.0980717
59.3978
0.0489229
59.2363
0
59.0713
-0.0486616
58.9023
-0.0970257
58.7292
-0.145056
58.5515
-0.192715
58.369
-0.239964
58.1811
-0.286766
57.9876
-0.33308
57.7878
-0.378867
57.5814
-0.424086
57.3677
-0.468692
57.1461
-0.512643
56.9158
-0.555893
56.6762
-0.598395
56.4263
-0.640099
56.165
-0.680954
55.8914
-0.720903
55.604
-0.759889
55.3014
-0.797849
54.9817
-0.834715
54.6427
-0.870409
54.282
-0.904845
53.8988
-0.937929
53.4899
-0.969592
53.0376
-0.999721
52.5162
-1.02792
51.9704
-1.05357
51.5856
-1.07744
51.3382
-1.10346
50.0233
-1.13157
45.4125
-1.13504
37.4891
-1.05984
29.807
-0.898459
25.1848
-0.731857
23.2504
-0.632511
22.6257
-0.596891
22.4958
-0.593341
22.5342
-0.6022
22.6519
-0.614963
-0.630437
22.7524
62.2645
1.90788
-62.3671
62.1607
1.86925
62.0557
1.82976
61.9496
1.78943
61.8425
1.74828
61.7344
1.70633
61.6253
1.66362
61.5153
1.62016
61.4045
1.57597
61.2927
1.53109
61.1801
1.48553
61.0667
1.43932
60.9525
1.3925
60.8374
1.34507
60.7216
1.29708
60.605
1.24855
60.4876
1.19951
60.3694
1.14998
60.2504
1.1
60.1305
1.04959
60.0098
0.998777
59.8881
0.947603
59.7656
0.896092
59.642
0.844274
59.5175
0.792182
59.3918
0.739846
59.265
0.687298
59.137
0.63457
59.0077
0.581696
58.877
0.528707
58.7448
0.475637
58.611
0.422519
58.4755
0.369388
58.3382
0.316276
58.1989
0.26322
58.0574
0.210254
57.9137
0.157413
57.7675
0.104733
57.6186
0.0522495
57.4669
0
57.3121
-0.051979
57.1539
-0.10365
56.9921
-0.154975
56.8264
-0.205916
56.6565
-0.256433
56.482
-0.306487
56.3026
-0.356037
56.1178
-0.405042
55.9273
-0.453459
55.7304
-0.501244
55.5267
-0.548355
55.3156
-0.594743
55.0963
-0.640362
54.8682
-0.685162
54.6303
-0.729091
54.3818
-0.772095
54.1216
-0.814116
53.8484
-0.855093
53.5609
-0.89496
53.2572
-0.933645
52.9352
-0.97107
52.5928
-1.00714
52.2294
-1.04176
51.8417
-1.07486
51.4125
-1.10632
50.917
-1.13571
50.4005
-1.16237
50.0459
-1.18718
49.8289
-1.21446
48.5689
-1.24411
44.0916
-1.24701
36.3884
-1.16453
28.9258
-0.98802
24.4427
-0.804361
22.5691
-0.693369
21.9667
-0.652619
21.8362
-0.647774
21.8859
-0.656255
-0.670633
21.9612
60.4129
2.02623
-60.517
60.3079
1.98506
60.202
1.943
60.0952
1.90005
59.9877
1.85625
59.8794
1.81161
59.7704
1.76617
59.6607
1.71994
59.5503
1.67295
59.4393
1.62524
59.3276
1.57681
59.2154
1.52771
59.1026
1.47796
58.9892
1.42758
58.8752
1.3766
58.7607
1.32507
58.6456
1.27299
58.5299
1.2204
58.4136
1.16734
58.2967
1.11383
58.1792
1.0599
58.061
1.00559
57.9422
0.950926
57.8226
0.895939
57.7022
0.840663
57.581
0.785132
57.4589
0.729377
57.3358
0.673433
57.2117
0.617333
57.0865
0.561112
56.9602
0.504803
56.8325
0.448444
56.7034
0.392067
56.5729
0.335709
56.4407
0.279407
56.3067
0.223195
56.1708
0.167111
56.0329
0.111193
55.8927
0.0554764
55.75
0
55.6048
-0.0551981
55.4567
-0.110079
55.3055
-0.164604
55.1509
-0.218733
54.9928
-0.272426
54.8307
-0.325642
54.6643
-0.378339
54.4934
-0.430476
54.3174
-0.482009
54.1361
-0.532894
53.9488
-0.583085
53.7551
-0.632537
53.5544
-0.681201
53.3461
-0.729028
53.1295
-0.775967
52.9037
-0.821963
52.6679
-0.86696
52.4211
-0.910898
52.162
-0.953713
51.8895
-0.995338
51.6018
-1.0357
51.2968
-1.07471
50.9727
-1.11228
50.6288
-1.14831
50.2624
-1.18272
49.8571
-1.2154
49.3884
-1.2459
48.8985
-1.27349
48.5648
-1.29909
48.3815
-1.32734
47.24
-1.35857
43.0148
-1.36264
35.5856
-1.27649
28.2707
-1.08706
23.8201
-0.8845
21.9461
-0.758247
21.3349
-0.710164
21.2107
-0.702501
-0.711488
21.2325
58.6117
2.14093
-58.7167
58.506
2.0973
58.3997
2.05273
58.2927
2.00725
58.1851
1.96086
58.077
1.91361
57.9684
1.86552
57.8593
1.81661
57.7498
1.76691
57.6398
1.71644
57.5294
1.66524
57.4186
1.61333
57.3074
1.56074
57.1958
1.50749
57.0839
1.45363
56.9716
1.39918
56.8589
1.34416
56.7459
1.28862
56.6324
1.23257
56.5186
1.17606
56.4043
1.11911
56.2896
1.06176
56.1744
1.00404
56.0587
0.945989
55.9424
0.887631
55.8256
0.829006
55.708
0.770146
55.5898
0.711087
55.4708
0.651865
55.3509
0.592513
55.2301
0.53307
55.1083
0.47357
54.9854
0.414051
54.8613
0.354548
54.7359
0.2951
54.609
0.235744
54.4805
0.176517
54.3503
0.117458
54.2183
0.0586064
54.0842
0
53.9479
-0.0583215
53.8092
-0.116318
53.6679
-0.17395
53.5237
-0.231176
53.3765
-0.287955
53.2259
-0.344245
53.0717
-0.400005
52.9135
-0.45519
52.751
-0.509757
52.5839
-0.563661
52.4117
-0.616857
52.234
-0.669298
52.0502
-0.720936
51.86
-0.771721
51.6626
-0.821602
51.4573
-0.870526
51.2435
-0.918438
51.0203
-0.965279
50.7868
-1.01099
50.5418
-1.0555
50.2842
-1.09874
50.0123
-1.14064
49.7243
-1.18111
49.4184
-1.22006
49.0939
-1.25737
48.7487
-1.29299
48.3678
-1.32679
47.9268
-1.35831
47.4609
-1.3868
47.1391
-1.41305
46.9894
-1.44192
46.0205
-1.4747
42.1604
-1.48192
35.0688
-1.39663
27.8413
-1.19759
23.3218
-0.974445
21.3781
-0.828678
20.7417
-0.769656
-0.758305
20.6177
56.86
2.25209
-56.9654
56.7541
2.20606
56.6477
2.15906
56.5409
2.1111
56.4337
2.06222
56.3262
2.01243
56.2183
1.96177
56.1102
1.91025
56.0017
1.85792
55.893
1.80479
55.7841
1.75089
55.6749
1.69626
55.5655
1.64092
55.456
1.5849
55.3462
1.52824
55.2363
1.47096
55.1261
1.4131
55.0158
1.35469
54.9053
1.29575
54.7945
1.23634
54.6835
1.17646
54.5722
1.11617
54.4607
1.0555
54.3488
0.994474
54.2366
0.933133
54.124
0.871511
54.0109
0.809646
53.8973
0.747572
53.7832
0.685326
53.6685
0.622944
53.553
0.560464
53.4369
0.497924
53.3198
0.43536
53.2018
0.37281
53.0828
0.310315
52.9626
0.247911
52.8412
0.185638
52.7183
0.123535
52.594
0.0616426
52.4679
0
52.34
-0.0613521
52.2101
-0.122373
52.078
-0.183021
51.9436
-0.243255
51.8065
-0.303033
51.6665
-0.362312
51.5235
-0.421049
51.3771
-0.4792
51.2271
-0.536722
51.073
-0.593568
50.9147
-0.649692
50.7516
-0.705048
50.5833
-0.759588
50.4095
-0.813262
50.2296
-0.866019
50.0429
-0.917808
49.849
-0.968573
49.6471
-1.01826
49.4364
-1.0668
49.216
-1.11414
48.9849
-1.16022
48.742
-1.20495
48.4859
-1.24826
48.2147
-1.29007
47.9267
-1.33027
47.6214
-1.36876
47.2972
-1.40548
46.9409
-1.4403
46.5285
-1.4728
46.085
-1.50215
45.7667
-1.52895
45.6448
-1.55806
44.8856
-1.5922
41.4951
-1.60445
34.8238
-1.52528
27.6489
-1.32147
22.9575
-1.07713
20.8693
-0.906607
-0.830173
20.3014
55.1569
2.35978
-55.2623
55.0512
2.31143
54.9452
2.26207
54.8389
2.21172
54.7324
2.1604
54.6257
2.10816
54.5189
2.055
54.4119
2.00096
54.3048
1.94607
54.1975
1.89036
54.0903
1.83385
53.9829
1.77658
53.8755
1.71858
53.7681
1.65987
53.6607
1.6005
53.5532
1.54049
53.4456
1.47987
53.3381
1.41868
53.2305
1.35695
53.1228
1.29472
53.0151
1.23202
52.9073
1.16888
52.7993
1.10534
52.6912
1.04144
52.583
0.977213
52.4745
0.912692
52.3658
0.847917
52.2567
0.782923
52.1473
0.71775
52.0375
0.652434
51.9273
0.587014
51.8164
0.521528
51.705
0.456015
51.5928
0.390515
51.4799
0.325066
51.3661
0.259708
51.2513
0.194483
51.1353
0.129429
51.0182
0.0645877
50.8997
0
50.7797
-0.0642927
50.658
-0.128248
50.5346
-0.191825
50.4091
-0.254981
50.2814
-0.317673
50.1514
-0.379857
50.0188
-0.44149
49.8833
-0.502527
49.7447
-0.562923
49.6027
-0.622634
49.457
-0.681612
49.3073
-0.739811
49.1533
-0.797181
48.9944
-0.853676
48.8304
-0.909242
48.6606
-0.96383
48.4846
-1.01738
48.3019
-1.06985
48.1117
-1.12117
47.9133
-1.17129
47.7058
-1.22013
47.4885
-1.26764
47.2601
-1.31373
47.0194
-1.35834
46.7648
-1.40137
46.4945
-1.44273
46.2081
-1.48231
45.9045
-1.52002
45.573
-1.55579
45.1898
-1.58921
44.7684
-1.61942
44.4469
-1.6467
44.3402
-1.67567
43.8047
-1.71072
40.972
-1.72944
34.8315
-1.66194
27.7139
-1.4601
22.7076
-1.19716
-0.983808
20.9111
53.5016
2.4641
-53.6066
53.3964
2.41349
53.291
2.36184
53.1855
2.30917
53.08
2.2555
52.9744
2.20087
52.8688
2.14529
52.7632
2.08881
52.6577
2.03145
52.5521
1.97323
52.4467
1.91419
52.3413
1.85437
52.2361
1.79379
52.1309
1.73248
52.0258
1.67048
51.9208
1.60782
51.816
1.54453
51.7113
1.48066
51.6066
1.41622
51.5021
1.35127
51.3976
1.28583
51.2932
1.21993
51.1888
1.15363
51.0844
1.08694
50.98
1.01992
50.8756
0.95259
50.7711
0.884997
50.6664
0.817177
50.5616
0.74917
50.4565
0.681012
50.3512
0.612745
50.2455
0.544406
50.1394
0.476037
50.0328
0.407678
49.9257
0.339367
49.8179
0.271148
49.7093
0.20306
49.5999
0.135145
49.4896
0.0674444
49.3781
0
49.2655
-0.0671457
49.1516
-0.13395
49.0361
-0.200371
48.9191
-0.266364
48.8002
-0.331886
48.6794
-0.396894
48.5563
-0.461342
48.4309
-0.525187
48.3029
-0.588382
48.172
-0.650881
48.038
-0.712639
47.9006
-0.773608
47.7595
-0.83374
47.6144
-0.892985
47.4648
-0.951294
47.3103
-1.00862
47.1506
-1.0649
46.9851
-1.12009
46.8134
-1.17412
46.6347
-1.22695
46.4483
-1.27851
46.2537
-1.32873
46.0498
-1.37756
45.8357
-1.4249
45.6102
-1.47069
45.3719
-1.51485
45.119
-1.55726
44.851
-1.59782
44.5675
-1.63646
44.2603
-1.6731
43.907
-1.70739
43.509
-1.73846
43.1803
-1.76622
43.071
-1.79476
42.7456
-1.82996
40.5279
-1.85584
35.0813
-1.80403
27.8759
-1.62065
-1.29849
24.0333
51.8929
2.56514
-51.9973
51.7885
2.51235
51.6841
2.45848
51.5797
2.40355
51.4754
2.3476
51.3711
2.29066
51.267
2.23274
51.163
2.17389
51.0592
2.11413
50.9555
2.05349
50.852
1.992
50.7487
1.9297
50.6457
1.86662
50.5428
1.8028
50.4402
1.73825
50.3379
1.67303
50.2357
1.60716
50.1338
1.54069
50.0322
1.47363
49.9307
1.40604
49.8295
1.33795
49.7284
1.26939
49.6275
1.2004
49.5268
1.13102
49.4262
1.06129
49.3257
0.991244
49.2252
0.920924
49.1248
0.850368
49.0244
0.779616
48.9239
0.708708
48.8233
0.637682
48.7225
0.566582
48.6215
0.495446
48.5202
0.424316
48.4186
0.353234
48.3165
0.28224
48.2138
0.211378
48.1106
0.140689
48.0066
0.0702152
47.9019
0
47.7962
-0.0699138
47.6894
-0.139483
47.5815
-0.208664
47.4723
-0.277413
47.3616
-0.345685
47.2493
-0.413436
47.1352
-0.480623
47.0191
-0.547197
46.9008
-0.613115
46.7802
-0.67833
46.6569
-0.742795
46.5308
-0.806463
46.4016
-0.869286
46.2689
-0.931215
46.1325
-0.9922
45.992
-1.05219
45.847
-1.11114
45.6971
-1.16898
45.542
-1.22568
45.3809
-1.28116
45.2135
-1.33537
45.0391
-1.38825
44.8569
-1.43974
44.6662
-1.48977
44.4661
-1.53825
44.2555
-1.58513
44.0331
-1.63031
43.7973
-1.67368
43.5473
-1.71516
43.2832
-1.75463
42.9995
-1.79206
42.6761
-1.82717
42.3041
-1.85912
41.9678
-1.88746
41.8396
-1.91524
41.6635
-1.9505
40.1883
-1.97847
34.9999
-1.96803
-1.71686
30.7702
50.3301
2.66299
-50.4335
50.2267
2.60808
50.1235
2.55206
50.0204
2.49495
49.9174
2.43679
49.8147
2.37761
49.7122
2.31742
49.61
2.25627
49.508
2.19419
49.4063
2.1312
49.3049
2.06735
49.2038
2.00265
49.103
1.93716
49.0026
1.87089
48.9025
1.80389
48.8028
1.73619
48.7034
1.66782
48.6044
1.59882
48.5057
1.52923
48.4073
1.45909
48.3092
1.38843
48.2115
1.31729
48.1141
1.2457
48.0169
1.17372
47.92
1.10137
47.8233
1.02869
47.7268
0.955734
47.6305
0.882529
47.5343
0.80912
47.4382
0.735547
47.3421
0.661852
47.246
0.588076
47.1499
0.51426
47.0536
0.440446
46.9572
0.366678
46.8605
0.292996
46.7635
0.219444
46.666
0.146066
46.5681
0.072903
46.4696
0
46.3704
-0.0725997
46.2704
-0.144852
46.1695
-0.216713
46.0675
-0.288138
45.9644
-0.359081
45.86
-0.429499
45.7542
-0.499346
45.6467
-0.568576
45.5375
-0.637143
45.4263
-0.705
45.3129
-0.772101
45.1972
-0.838398
45.0788
-0.903843
44.9575
-0.968389
44.8331
-1.03198
44.7053
-1.09458
44.5737
-1.15613
44.438
-1.21657
44.2978
-1.27586
44.1527
-1.33393
44.0022
-1.39074
43.8458
-1.44622
43.6829
-1.50031
43.513
-1.55295
43.3351
-1.60408
43.1487
-1.6536
42.9526
-1.70147
42.7458
-1.74757
42.5266
-1.79184
42.2942
-1.83414
42.0488
-1.87439
41.7873
-1.91254
41.4937
-1.94839
41.1486
-1.98131
40.8203
-2.0099
40.6034
-2.03904
40.754
-2.06447
39.0678
-2.12768
-2.04031
37.0704
48.8119
2.75775
-48.9142
48.7099
2.70078
48.608
2.64268
48.5064
2.58346
48.405
2.52315
48.304
2.4618
48.2033
2.39942
48.1029
2.33605
48.0029
2.27172
47.9033
2.20646
47.804
2.14031
47.7052
2.0733
47.6068
2.00546
47.5089
1.93683
47.4114
1.86745
47.3143
1.79734
47.2176
1.72656
47.1214
1.65513
47.0257
1.58308
46.9304
1.51047
46.8355
1.43733
46.741
1.36369
46.6469
1.28959
46.5533
1.21508
46.4599
1.1402
46.367
1.06498
46.2743
0.989461
46.1819
0.913692
46.0898
0.837711
45.9979
0.761558
45.9062
0.685278
45.8146
0.608909
45.7231
0.532498
45.6316
0.456084
45.5401
0.379713
45.4485
0.303425
45.3568
0.227267
45.2648
0.151281
45.1726
0.0755103
45.0799
0
44.9868
-0.0752056
44.8931
-0.150062
44.7988
-0.224524
44.7036
-0.298547
44.6076
-0.372086
44.5106
-0.445095
44.4124
-0.517528
44.313
-0.589339
44.212
-0.660483
44.1095
-0.730911
44.0052
-0.800578
43.899
-0.869435
43.7906
-0.937436
43.6798
-1.00453
43.5663
-1.07067
43.45
-1.13581
43.3306
-1.19989
43.2077
-1.26287
43.0811
-1.32469
42.9503
-1.3853
42.815
-1.44464
42.6748
-1.50266
42.5291
-1.55929
42.3775
-1.61449
42.2194
-1.66818
42.0541
-1.7203
41.8809
-1.77078
41.699
-1.81953
41.5072
-1.86649
41.3043
-1.91155
41.0891
-1.95462
40.8614
-1.99559
40.6217
-2.03435
40.3515
-2.07107
40.0575
-2.10408
39.6654
-2.13635
39.6157
-2.15584
39.3032
-2.2054
-2.20823
38.8745
47.3376
2.84949
-47.4385
47.2369
2.79054
47.1366
2.73041
47.0366
2.66915
46.937
2.60677
46.8378
2.54331
46.739
2.47881
46.6406
2.41329
46.5427
2.34678
46.4452
2.27932
46.3482
2.21095
46.2517
2.1417
46.1558
2.0716
46.0603
2.00068
45.9654
1.929
45.871
1.85657
45.7771
1.78344
45.6837
1.70965
45.5909
1.63524
45.4986
1.56024
45.4068
1.48469
45.3156
1.40863
45.2248
1.33211
45.1345
1.25515
45.0447
1.17781
44.9553
1.10013
44.8663
1.02214
44.7778
0.943889
44.6896
0.865417
44.6017
0.786767
44.5141
0.707981
44.4268
0.629104
44.3397
0.550177
44.2528
0.471245
44.166
0.392351
44.0793
0.313539
43.9925
0.234853
43.9057
0.156338
43.8188
0.0780391
43.7317
0
43.6443
-0.0777339
43.5565
-0.155117
43.4683
-0.232105