/*--------------------------------*- C++ -*----------------------------------*\
| =========                 |                                                 |
| \\      /  F ield         | OpenFOAM: The Open Source CFD Toolbox           |
|  \\    /   O peration     | Version:  2312                                  |
|   \\  /    A nd           | Website:  www.openfoam.com                      |
|    \\/     M anipulation  |                                                 |
\*---------------------------------------------------------------------------*/
FoamFile
{
    version     2.0;
    format      ascii;
    arch        "LSB;label=32;scalar=64";
    class       volVectorField;
    location    "0.065";
    object      U;
}
// * * * * * * * * * * * * * * * * * * * * * * * * * * * * * * * * * * * * * //

dimensions      [0 1 -1 0 0 0 0];

internalField   nonuniform List<vector> 
31205
(
(216.554 0 0)
(219.093 0 0)
(221.563 0 0)
(223.969 0 0)
(226.314 0 0)
(228.6 0 0)
(230.829 0 0)
(233.003 0 0)
(235.126 0 0)
(237.198 0 0)
(239.221 0 0)
(241.197 0 0)
(243.128 0 0)
(245.014 0 0)
(246.858 0 0)
(248.66 0 0)
(250.421 0 0)
(252.143 0 0)
(253.827 0 0)
(255.473 0 0)
(257.082 0 0)
(258.655 0 0)
(260.193 0 0)
(261.697 0 0)
(263.167 0 0)
(264.603 0 0)
(266.007 0 0)
(267.379 0 0)
(268.72 0 0)
(270.029 0 0)
(271.307 0 0)
(272.556 0 0)
(273.774 0 0)
(274.963 0 0)
(276.122 0 0)
(277.253 0 0)
(278.355 0 0)
(279.428 0 0)
(280.474 0 0)
(281.491 0 0)
(282.48 0 0)
(283.442 0 0)
(284.376 0 0)
(285.283 0 0)
(286.162 0 0)
(287.014 0 0)
(287.839 0 0)
(288.636 0 0)
(289.406 0 0)
(290.149 0 0)
(290.865 0 0)
(291.553 0 0)
(292.213 0 0)
(292.846 0 0)
(293.451 0 0)
(294.03 0 0)
(294.582 0 0)
(295.089 0 0)
(295.578 0 0)
(296.131 0 0)
(296.497 0 0)
(296.447 0 0)
(297.662 0 0)
(299.843 0 0)
(293.507 0 0)
(289.419 0 0)
(332.601 0 0)
(312.442 0 0)
(94.1837 0 0)
(3.00524 0 0)
(-0.0229029 0 0)
(-0.000431854 0 0)
(5.84362e-06 0 0)
(5.10169e-08 0 0)
(-1.38079e-09 0 0)
(-3.402e-12 0 0)
(3.32667e-13 0 0)
(-9.0395e-16 0 0)
(-8.69226e-17 0 0)
(219.247 0 0)
(221.641 0 0)
(223.973 0 0)
(226.248 0 0)
(228.468 0 0)
(230.634 0 0)
(232.749 0 0)
(234.814 0 0)
(236.832 0 0)
(238.804 0 0)
(240.732 0 0)
(242.616 0 0)
(244.458 0 0)
(246.26 0 0)
(248.022 0 0)
(249.746 0 0)
(251.432 0 0)
(253.082 0 0)
(254.696 0 0)
(256.275 0 0)
(257.82 0 0)
(259.331 0 0)
(260.809 0 0)
(262.256 0 0)
(263.671 0 0)
(265.054 0 0)
(266.408 0 0)
(267.731 0 0)
(269.024 0 0)
(270.289 0 0)
(271.524 0 0)
(272.731 0 0)
(273.91 0 0)
(275.061 0 0)
(276.185 0 0)
(277.281 0 0)
(278.351 0 0)
(279.393 0 0)
(280.41 0 0)
(281.399 0 0)
(282.363 0 0)
(283.3 0 0)
(284.211 0 0)
(285.097 0 0)
(285.956 0 0)
(286.79 0 0)
(287.598 0 0)
(288.381 0 0)
(289.137 0 0)
(289.869 0 0)
(290.574 0 0)
(291.254 0 0)
(291.907 0 0)
(292.535 0 0)
(293.137 0 0)
(293.712 0 0)
(294.263 0 0)
(294.789 0 0)
(295.27 0 0)
(295.737 0 0)
(296.268 0 0)
(296.608 0 0)
(296.545 0 0)
(297.766 0 0)
(299.89 0 0)
(293.479 0 0)
(289.562 0 0)
(332.871 0 0)
(312.212 0 0)
(93.8426 0 0)
(2.97752 0 0)
(-0.0231784 0 0)
(-0.000414427 0 0)
(6.21685e-06 0 0)
(4.90022e-08 0 0)
(-1.64668e-09 0 0)
(-3.20343e-12 0 0)
(4.66263e-13 0 0)
(-1.468e-15 0 0)
(221.905 0 0)
(224.161 0 0)
(226.363 0 0)
(228.513 0 0)
(230.613 0 0)
(232.665 0 0)
(234.67 0 0)
(236.631 0 0)
(238.548 0 0)
(240.424 0 0)
(242.258 0 0)
(244.053 0 0)
(245.81 0 0)
(247.53 0 0)
(249.213 0 0)
(250.86 0 0)
(252.473 0 0)
(254.052 0 0)
(255.598 0 0)
(257.111 0 0)
(258.593 0 0)
(260.044 0 0)
(261.464 0 0)
(262.854 0 0)
(264.214 0 0)
(265.546 0 0)
(266.849 0 0)
(268.124 0 0)
(269.371 0 0)
(270.59 0 0)
(271.783 0 0)
(272.949 0 0)
(274.089 0 0)
(275.202 0 0)
(276.29 0 0)
(277.352 0 0)
(278.389 0 0)
(279.4 0 0)
(280.387 0 0)
(281.348 0 0)
(282.285 0 0)
(283.197 0 0)
(284.085 0 0)
(284.948 0 0)
(285.788 0 0)
(286.602 0 0)
(287.393 0 0)
(288.159 0 0)
(288.902 0 0)
(289.62 0 0)
(290.314 0 0)
(290.983 0 0)
(291.628 0 0)
(292.249 0 0)
(292.846 0 0)
(293.418 0 0)
(293.964 0 0)
(294.489 0 0)
(294.988 0 0)
(295.446 0 0)
(295.891 0 0)
(296.402 0 0)
(296.716 0 0)
(296.636 0 0)
(297.879 0 0)
(299.942 0 0)
(293.346 0 0)
(289.836 0 0)
(333.755 0 0)
(309.983 0 0)
(90.9188 0 0)
(2.75066 0 0)
(-0.0237964 0 0)
(-0.000395395 0 0)
(7.06773e-06 0 0)
(5.36411e-08 0 0)
(-2.17116e-09 0 0)
(-4.72464e-12 0 0)
(7.37343e-13 0 0)
(224.46 0 0)
(226.588 0 0)
(228.668 0 0)
(230.701 0 0)
(232.689 0 0)
(234.633 0 0)
(236.536 0 0)
(238.398 0 0)
(240.22 0 0)
(242.004 0 0)
(243.751 0 0)
(245.461 0 0)
(247.137 0 0)
(248.778 0 0)
(250.385 0 0)
(251.96 0 0)
(253.502 0 0)
(255.013 0 0)
(256.494 0 0)
(257.945 0 0)
(259.366 0 0)
(260.758 0 0)
(262.121 0 0)
(263.457 0 0)
(264.765 0 0)
(266.046 0 0)
(267.3 0 0)
(268.528 0 0)
(269.73 0 0)
(270.907 0 0)
(272.058 0 0)
(273.184 0 0)
(274.285 0 0)
(275.362 0 0)
(276.414 0 0)
(277.443 0 0)
(278.447 0 0)
(279.428 0 0)
(280.385 0 0)
(281.319 0 0)
(282.229 0 0)
(283.116 0 0)
(283.981 0 0)
(284.822 0 0)
(285.64 0 0)
(286.436 0 0)
(287.208 0 0)
(287.958 0 0)
(288.685 0 0)
(289.39 0 0)
(290.072 0 0)
(290.73 0 0)
(291.366 0 0)
(291.979 0 0)
(292.569 0 0)
(293.136 0 0)
(293.68 0 0)
(294.2 0 0)
(294.699 0 0)
(295.174 0 0)
(295.609 0 0)
(296.034 0 0)
(296.526 0 0)
(296.814 0 0)
(296.721 0 0)
(297.987 0 0)
(299.983 0 0)
(293.21 0 0)
(290.131 0 0)
(334.605 0 0)
(307.695 0 0)
(88.1071 0 0)
(2.54188 0 0)
(-0.0258169 0 0)
(-0.00042325 0 0)
(8.74242e-06 0 0)
(7.33478e-08 0 0)
(-3.18229e-09 0 0)
(-1.06278e-11 0 0)
(226.887 0 0)
(228.898 0 0)
(230.864 0 0)
(232.788 0 0)
(234.672 0 0)
(236.516 0 0)
(238.323 0 0)
(240.092 0 0)
(241.825 0 0)
(243.523 0 0)
(245.187 0 0)
(246.817 0 0)
(248.416 0 0)
(249.982 0 0)
(251.518 0 0)
(253.024 0 0)
(254.499 0 0)
(255.946 0 0)
(257.365 0 0)
(258.755 0 0)
(260.118 0 0)
(261.454 0 0)
(262.764 0 0)
(264.047 0 0)
(265.305 0 0)
(266.538 0 0)
(267.745 0 0)
(268.928 0 0)
(270.087 0 0)
(271.222 0 0)
(272.332 0 0)
(273.42 0 0)
(274.484 0 0)
(275.525 0 0)
(276.543 0 0)
(277.539 0 0)
(278.512 0 0)
(279.462 0 0)
(280.391 0 0)
(281.297 0 0)
(282.182 0 0)
(283.045 0 0)
(283.886 0 0)
(284.705 0 0)
(285.503 0 0)
(286.28 0 0)
(287.034 0 0)
(287.768 0 0)
(288.48 0 0)
(289.17 0 0)
(289.839 0 0)
(290.487 0 0)
(291.113 0 0)
(291.717 0 0)
(292.3 0 0)
(292.862 0 0)
(293.401 0 0)
(293.918 0 0)
(294.413 0 0)
(294.889 0 0)
(295.342 0 0)
(295.755 0 0)
(296.161 0 0)
(296.634 0 0)
(296.907 0 0)
(296.8 0 0)
(298.044 0 0)
(300.029 0 0)
(293.29 0 0)
(290.129 0 0)
(334.403 0 0)
(308.28 0 0)
(88.9508 0 0)
(2.60032 0 0)
(-0.0298754 0 0)
(-0.000539222 0 0)
(1.17978e-05 0 0)
(1.27148e-07 0 0)
(-5.1524e-09 0 0)
(229.187 0 0)
(231.087 0 0)
(232.949 0 0)
(234.772 0 0)
(236.558 0 0)
(238.309 0 0)
(240.025 0 0)
(241.707 0 0)
(243.357 0 0)
(244.974 0 0)
(246.56 0 0)
(248.115 0 0)
(249.641 0 0)
(251.137 0 0)
(252.605 0 0)
(254.045 0 0)
(255.458 0 0)
(256.844 0 0)
(258.203 0 0)
(259.536 0 0)
(260.844 0 0)
(262.127 0 0)
(263.385 0 0)
(264.619 0 0)
(265.828 0 0)
(267.014 0 0)
(268.177 0 0)
(269.317 0 0)
(270.434 0 0)
(271.528 0 0)
(272.6 0 0)
(273.65 0 0)
(274.679 0 0)
(275.685 0 0)
(276.67 0 0)
(277.634 0 0)
(278.577 0 0)
(279.499 0 0)
(280.399 0 0)
(281.279 0 0)
(282.139 0 0)
(282.978 0 0)
(283.796 0 0)
(284.594 0 0)
(285.372 0 0)
(286.129 0 0)
(286.866 0 0)
(287.583 0 0)
(288.28 0 0)
(288.957 0 0)
(289.613 0 0)
(290.249 0 0)
(290.865 0 0)
(291.461 0 0)
(292.036 0 0)
(292.591 0 0)
(293.125 0 0)
(293.639 0 0)
(294.132 0 0)
(294.604 0 0)
(295.057 0 0)
(295.491 0 0)
(295.885 0 0)
(296.271 0 0)
(296.726 0 0)
(296.995 0 0)
(296.873 0 0)
(298.032 0 0)
(300.086 0 0)
(293.685 0 0)
(289.712 0 0)
(332.654 0 0)
(312.959 0 0)
(95.2412 0 0)
(3.08358 0 0)
(-0.0368438 0 0)
(-0.000825842 0 0)
(1.71799e-05 0 0)
(2.63194e-07 0 0)
(231.363 0 0)
(233.162 0 0)
(234.926 0 0)
(236.655 0 0)
(238.351 0 0)
(240.014 0 0)
(241.645 0 0)
(243.246 0 0)
(244.817 0 0)
(246.358 0 0)
(247.871 0 0)
(249.355 0 0)
(250.812 0 0)
(252.242 0 0)
(253.646 0 0)
(255.024 0 0)
(256.376 0 0)
(257.704 0 0)
(259.007 0 0)
(260.286 0 0)
(261.541 0 0)
(262.773 0 0)
(263.982 0 0)
(265.168 0 0)
(266.332 0 0)
(267.474 0 0)
(268.594 0 0)
(269.692 0 0)
(270.769 0 0)
(271.825 0 0)
(272.86 0 0)
(273.874 0 0)
(274.868 0 0)
(275.841 0 0)
(276.794 0 0)
(277.727 0 0)
(278.641 0 0)
(279.534 0 0)
(280.408 0 0)
(281.262 0 0)
(282.097 0 0)
(282.913 0 0)
(283.709 0 0)
(284.486 0 0)
(285.244 0 0)
(285.983 0 0)
(286.703 0 0)
(287.403 0 0)
(288.085 0 0)
(288.748 0 0)
(289.391 0 0)
(290.016 0 0)
(290.621 0 0)
(291.208 0 0)
(291.775 0 0)
(292.323 0 0)
(292.852 0 0)
(293.362 0 0)
(293.852 0 0)
(294.322 0 0)
(294.773 0 0)
(295.206 0 0)
(295.62 0 0)
(295.998 0 0)
(296.364 0 0)
(296.8 0 0)
(297.079 0 0)
(296.944 0 0)
(297.949 0 0)
(300.131 0 0)
(294.425 0 0)
(288.983 0 0)
(329.059 0 0)
(321.443 0 0)
(108.331 0 0)
(4.26784 0 0)
(-0.0475835 0 0)
(-0.0014879 0 0)
(2.65399e-05 0 0)
(233.425 0 0)
(235.129 0 0)
(236.802 0 0)
(238.443 0 0)
(240.054 0 0)
(241.635 0 0)
(243.188 0 0)
(244.712 0 0)
(246.209 0 0)
(247.678 0 0)
(249.122 0 0)
(250.539 0 0)
(251.931 0 0)
(253.299 0 0)
(254.642 0 0)
(255.961 0 0)
(257.256 0 0)
(258.529 0 0)
(259.779 0 0)
(261.006 0 0)
(262.211 0 0)
(263.394 0 0)
(264.556 0 0)
(265.697 0 0)
(266.817 0 0)
(267.916 0 0)
(268.995 0 0)
(270.054 0 0)
(271.092 0 0)
(272.111 0 0)
(273.11 0 0)
(274.09 0 0)
(275.05 0 0)
(275.992 0 0)
(276.914 0 0)
(277.818 0 0)
(278.702 0 0)
(279.569 0 0)
(280.416 0 0)
(281.246 0 0)
(282.057 0 0)
(282.85 0 0)
(283.624 0 0)
(284.381 0 0)
(285.119 0 0)
(285.84 0 0)
(286.543 0 0)
(287.227 0 0)
(287.894 0 0)
(288.543 0 0)
(289.173 0 0)
(289.786 0 0)
(290.381 0 0)
(290.958 0 0)
(291.517 0 0)
(292.058 0 0)
(292.581 0 0)
(293.086 0 0)
(293.572 0 0)
(294.041 0 0)
(294.49 0 0)
(294.921 0 0)
(295.335 0 0)
(295.732 0 0)
(296.096 0 0)
(296.442 0 0)
(296.856 0 0)
(297.157 0 0)
(297.02 0 0)
(297.807 0 0)
(300.118 0 0)
(295.493 0 0)
(288.241 0 0)
(323.452 0 0)
(332.152 0 0)
(129.736 0 0)
(6.77426 0 0)
(-0.0612856 0 0)
(-0.00300913 0 0)
(235.379 0 0)
(236.996 0 0)
(238.584 0 0)
(240.143 0 0)
(241.674 0 0)
(243.179 0 0)
(244.657 0 0)
(246.109 0 0)
(247.536 0 0)
(248.939 0 0)
(250.317 0 0)
(251.671 0 0)
(253.002 0 0)
(254.31 0 0)
(255.595 0 0)
(256.858 0 0)
(258.1 0 0)
(259.32 0 0)
(260.518 0 0)
(261.696 0 0)
(262.854 0 0)
(263.991 0 0)
(265.108 0 0)
(266.206 0 0)
(267.283 0 0)
(268.342 0 0)
(269.381 0 0)
(270.402 0 0)
(271.404 0 0)
(272.387 0 0)
(273.352 0 0)
(274.298 0 0)
(275.227 0 0)
(276.137 0 0)
(277.03 0 0)
(277.905 0 0)
(278.762 0 0)
(279.602 0 0)
(280.424 0 0)
(281.23 0 0)
(282.017 0 0)
(282.788 0 0)
(283.542 0 0)
(284.278 0 0)
(284.998 0 0)
(285.7 0 0)
(286.386 0 0)
(287.055 0 0)
(287.707 0 0)
(288.342 0 0)
(288.96 0 0)
(289.561 0 0)
(290.145 0 0)
(290.713 0 0)
(291.263 0 0)
(291.797 0 0)
(292.313 0 0)
(292.812 0 0)
(293.295 0 0)
(293.76 0 0)
(294.208 0 0)
(294.638 0 0)
(295.05 0 0)
(295.446 0 0)
(295.828 0 0)
(296.179 0 0)
(296.507 0 0)
(296.896 0 0)
(297.224 0 0)
(297.108 0 0)
(297.63 0 0)
(299.988 0 0)
(296.802 0 0)
(287.909 0 0)
(315.965 0 0)
(342.329 0 0)
(160.908 0 0)
(11.9437 0 0)
(-0.0675085 0 0)
(237.235 0 0)
(238.77 0 0)
(240.278 0 0)
(241.76 0 0)
(243.217 0 0)
(244.649 0 0)
(246.057 0 0)
(247.442 0 0)
(248.803 0 0)
(250.142 0 0)
(251.458 0 0)
(252.753 0 0)
(254.025 0 0)
(255.277 0 0)
(256.508 0 0)
(257.718 0 0)
(258.908 0 0)
(260.078 0 0)
(261.229 0 0)
(262.36 0 0)
(263.472 0 0)
(264.565 0 0)
(265.639 0 0)
(266.695 0 0)
(267.732 0 0)
(268.752 0 0)
(269.754 0 0)
(270.738 0 0)
(271.704 0 0)
(272.653 0 0)
(273.585 0 0)
(274.499 0 0)
(275.397 0 0)
(276.278 0 0)
(277.142 0 0)
(277.989 0 0)
(278.82 0 0)
(279.634 0 0)
(280.432 0 0)
(281.214 0 0)
(281.979 0 0)
(282.728 0 0)
(283.461 0 0)
(284.178 0 0)
(284.879 0 0)
(285.564 0 0)
(286.233 0 0)
(286.886 0 0)
(287.524 0 0)
(288.145 0 0)
(288.75 0 0)
(289.34 0 0)
(289.913 0 0)
(290.471 0 0)
(291.012 0 0)
(291.538 0 0)
(292.048 0 0)
(292.541 0 0)
(293.019 0 0)
(293.48 0 0)
(293.925 0 0)
(294.354 0 0)
(294.767 0 0)
(295.162 0 0)
(295.542 0 0)
(295.908 0 0)
(296.249 0 0)
(296.56 0 0)
(296.922 0 0)
(297.274 0 0)
(297.211 0 0)
(297.455 0 0)
(299.693 0 0)
(298.185 0 0)
(288.417 0 0)
(307.269 0 0)
(348.446 0 0)
(202.205 0 0)
(22.2554 0 0)
(238.998 0 0)
(240.456 0 0)
(241.889 0 0)
(243.299 0 0)
(244.686 0 0)
(246.051 0 0)
(247.393 0 0)
(248.714 0 0)
(250.013 0 0)
(251.292 0 0)
(252.55 0 0)
(253.787 0 0)
(255.005 0 0)
(256.203 0 0)
(257.382 0 0)
(258.542 0 0)
(259.683 0 0)
(260.806 0 0)
(261.91 0 0)
(262.997 0 0)
(264.065 0 0)
(265.116 0 0)
(266.149 0 0)
(267.166 0 0)
(268.165 0 0)
(269.147 0 0)
(270.113 0 0)
(271.061 0 0)
(271.994 0 0)
(272.91 0 0)
(273.81 0 0)
(274.694 0 0)
(275.562 0 0)
(276.414 0 0)
(277.25 0 0)
(278.071 0 0)
(278.876 0 0)
(279.665 0 0)
(280.439 0 0)
(281.198 0 0)
(281.942 0 0)
(282.67 0 0)
(283.383 0 0)
(284.081 0 0)
(284.764 0 0)
(285.431 0 0)
(286.084 0 0)
(286.722 0 0)
(287.344 0 0)
(287.952 0 0)
(288.545 0 0)
(289.122 0 0)
(289.685 0 0)
(290.233 0 0)
(290.765 0 0)
(291.283 0 0)
(291.786 0 0)
(292.273 0 0)
(292.745 0 0)
(293.202 0 0)
(293.644 0 0)
(294.071 0 0)
(294.482 0 0)
(294.878 0 0)
(295.258 0 0)
(295.622 0 0)
(295.975 0 0)
(296.306 0 0)
(296.604 0 0)
(296.935 0 0)
(297.302 0 0)
(297.323 0 0)
(297.326 0 0)
(299.227 0 0)
(299.384 0 0)
(290.078 0 0)
(298.274 0 0)
(350.594 0 0)
(228.774 0 0)
(240.674 0 0)
(242.06 0 0)
(243.423 0 0)
(244.766 0 0)
(246.087 0 0)
(247.388 0 0)
(248.668 0 0)
(249.928 0 0)
(251.169 0 0)
(252.391 0 0)
(253.594 0 0)
(254.778 0 0)
(255.943 0 0)
(257.091 0 0)
(258.221 0 0)
(259.333 0 0)
(260.427 0 0)
(261.505 0 0)
(262.565 0 0)
(263.609 0 0)
(264.636 0 0)
(265.646 0 0)
(266.641 0 0)
(267.619 0 0)
(268.581 0 0)
(269.528 0 0)
(270.458 0 0)
(271.374 0 0)
(272.274 0 0)
(273.158 0 0)
(274.027 0 0)
(274.882 0 0)
(275.721 0 0)
(276.545 0 0)
(277.355 0 0)
(278.15 0 0)
(278.93 0 0)
(279.695 0 0)
(280.447 0 0)
(281.183 0 0)
(281.905 0 0)
(282.613 0 0)
(283.307 0 0)
(283.986 0 0)
(284.651 0 0)
(285.302 0 0)
(285.938 0 0)
(286.561 0 0)
(287.169 0 0)
(287.763 0 0)
(288.343 0 0)
(288.909 0 0)
(289.461 0 0)
(289.999 0 0)
(290.522 0 0)
(291.032 0 0)
(291.527 0 0)
(292.008 0 0)
(292.475 0 0)
(292.927 0 0)
(293.365 0 0)
(293.789 0 0)
(294.198 0 0)
(294.593 0 0)
(294.973 0 0)
(295.339 0 0)
(295.689 0 0)
(296.028 0 0)
(296.35 0 0)
(296.64 0 0)
(296.94 0 0)
(297.306 0 0)
(297.428 0 0)
(297.299 0 0)
(298.532 0 0)
(300.792 0 0)
(289.499 0 0)
(304.517 0 0)
(304.336 0 0)
(242.268 0 0)
(243.587 0 0)
(244.885 0 0)
(246.164 0 0)
(247.423 0 0)
(248.663 0 0)
(249.885 0 0)
(251.089 0 0)
(252.275 0 0)
(253.442 0 0)
(254.593 0 0)
(255.726 0 0)
(256.842 0 0)
(257.942 0 0)
(259.024 0 0)
(260.091 0 0)
(261.141 0 0)
(262.175 0 0)
(263.194 0 0)
(264.197 0 0)
(265.184 0 0)
(266.156 0 0)
(267.113 0 0)
(268.055 0 0)
(268.982 0 0)
(269.894 0 0)
(270.792 0 0)
(271.675 0 0)
(272.543 0 0)
(273.398 0 0)
(274.238 0 0)
(275.063 0 0)
(275.875 0 0)
(276.673 0 0)
(277.456 0 0)
(278.226 0 0)
(278.982 0 0)
(279.725 0 0)
(280.453 0 0)
(281.169 0 0)
(281.87 0 0)
(282.558 0 0)
(283.233 0 0)
(283.894 0 0)
(284.541 0 0)
(285.175 0 0)
(285.796 0 0)
(286.404 0 0)
(286.998 0 0)
(287.579 0 0)
(288.146 0 0)
(288.701 0 0)
(289.242 0 0)
(289.769 0 0)
(290.283 0 0)
(290.784 0 0)
(291.272 0 0)
(291.746 0 0)
(292.207 0 0)
(292.654 0 0)
(293.088 0 0)
(293.508 0 0)
(293.915 0 0)
(294.308 0 0)
(294.687 0 0)
(295.053 0 0)
(295.405 0 0)
(295.743 0 0)
(296.068 0 0)
(296.382 0 0)
(296.666 0 0)
(296.944 0 0)
(297.266 0 0)
(297.594 0 0)
(297.019 0 0)
(299.035 0 0)
(298.206 0 0)
(297.068 0 0)
(297.237 0 0)
(243.787 0 0)
(245.042 0 0)
(246.278 0 0)
(247.497 0 0)
(248.698 0 0)
(249.882 0 0)
(251.048 0 0)
(252.198 0 0)
(253.332 0 0)
(254.448 0 0)
(255.549 0 0)
(256.634 0 0)
(257.703 0 0)
(258.757 0 0)
(259.795 0 0)
(260.818 0 0)
(261.826 0 0)
(262.82 0 0)
(263.798 0 0)
(264.762 0 0)
(265.712 0 0)
(266.647 0 0)
(267.568 0 0)
(268.476 0 0)
(269.369 0 0)
(270.248 0 0)
(271.114 0 0)
(271.966 0 0)
(272.804 0 0)
(273.629 0 0)
(274.441 0 0)
(275.239 0 0)
(276.024 0 0)
(276.796 0 0)
(277.555 0 0)
(278.3 0 0)
(279.033 0 0)
(279.753 0 0)
(280.46 0 0)
(281.154 0 0)
(281.836 0 0)
(282.504 0 0)
(283.16 0 0)
(283.804 0 0)
(284.434 0 0)
(285.052 0 0)
(285.658 0 0)
(286.25 0 0)
(286.831 0 0)
(287.398 0 0)
(287.953 0 0)
(288.496 0 0)
(289.026 0 0)
(289.543 0 0)
(290.048 0 0)
(290.541 0 0)
(291.02 0 0)
(291.487 0 0)
(291.942 0 0)
(292.384 0 0)
(292.813 0 0)
(293.229 0 0)
(293.633 0 0)
(294.024 0 0)
(294.402 0 0)
(294.767 0 0)
(295.12 0 0)
(295.459 0 0)
(295.785 0 0)
(296.099 0 0)
(296.4 0 0)
(296.692 0 0)
(296.911 0 0)
(297.322 0 0)
(297.411 0 0)
(297.535 0 0)
(298.107 0 0)
(298.302 0 0)
(298.472 0 0)
(245.234 0 0)
(246.429 0 0)
(247.608 0 0)
(248.77 0 0)
(249.916 0 0)
(251.046 0 0)
(252.16 0 0)
(253.259 0 0)
(254.343 0 0)
(255.411 0 0)
(256.465 0 0)
(257.504 0 0)
(258.529 0 0)
(259.539 0 0)
(260.535 0 0)
(261.517 0 0)
(262.485 0 0)
(263.439 0 0)
(264.379 0 0)
(265.306 0 0)
(266.22 0 0)
(267.12 0 0)
(268.007 0 0)
(268.88 0 0)
(269.741 0 0)
(270.589 0 0)
(271.424 0 0)
(272.246 0 0)
(273.056 0 0)
(273.852 0 0)
(274.637 0 0)
(275.409 0 0)
(276.168 0 0)
(276.915 0 0)
(277.65 0 0)
(278.372 0 0)
(279.082 0 0)
(279.781 0 0)
(280.467 0 0)
(281.14 0 0)
(281.802 0 0)
(282.452 0 0)
(283.09 0 0)
(283.716 0 0)
(284.33 0 0)
(284.932 0 0)
(285.522 0 0)
(286.101 0 0)
(286.667 0 0)
(287.222 0 0)
(287.765 0 0)
(288.296 0 0)
(288.815 0 0)
(289.322 0 0)
(289.817 0 0)
(290.301 0 0)
(290.773 0 0)
(291.233 0 0)
(291.681 0 0)
(292.117 0 0)
(292.541 0 0)
(292.953 0 0)
(293.353 0 0)
(293.741 0 0)
(294.117 0 0)
(294.481 0 0)
(294.833 0 0)
(295.173 0 0)
(295.5 0 0)
(295.816 0 0)
(296.115 0 0)
(296.417 0 0)
(296.68 0 0)
(296.941 0 0)
(297.235 0 0)
(297.443 0 0)
(297.625 0 0)
(297.876 0 0)
(298.132 0 0)
(246.613 0 0)
(247.753 0 0)
(248.876 0 0)
(249.985 0 0)
(251.079 0 0)
(252.158 0 0)
(253.223 0 0)
(254.274 0 0)
(255.311 0 0)
(256.334 0 0)
(257.343 0 0)
(258.338 0 0)
(259.32 0 0)
(260.289 0 0)
(261.245 0 0)
(262.187 0 0)
(263.117 0 0)
(264.034 0 0)
(264.938 0 0)
(265.829 0 0)
(266.708 0 0)
(267.574 0 0)
(268.429 0 0)
(269.27 0 0)
(270.1 0 0)
(270.918 0 0)
(271.723 0 0)
(272.517 0 0)
(273.298 0 0)
(274.068 0 0)
(274.826 0 0)
(275.573 0 0)
(276.307 0 0)
(277.03 0 0)
(277.742 0 0)
(278.442 0 0)
(279.13 0 0)
(279.807 0 0)
(280.473 0 0)
(281.127 0 0)
(281.77 0 0)
(282.402 0 0)
(283.022 0 0)
(283.631 0 0)
(284.229 0 0)
(284.815 0 0)
(285.39 0 0)
(285.955 0 0)
(286.508 0 0)
(287.049 0 0)
(287.58 0 0)
(288.099 0 0)
(288.608 0 0)
(289.105 0 0)
(289.591 0 0)
(290.065 0 0)
(290.529 0 0)
(290.981 0 0)
(291.423 0 0)
(291.853 0 0)
(292.271 0 0)
(292.679 0 0)
(293.075 0 0)
(293.46 0 0)
(293.834 0 0)
(294.196 0 0)
(294.547 0 0)
(294.886 0 0)
(295.214 0 0)
(295.531 0 0)
(295.835 0 0)
(296.128 0 0)
(296.413 0 0)
(296.678 0 0)
(296.933 0 0)
(297.189 0 0)
(297.428 0 0)
(297.62 0 0)
(297.893 0 0)
(247.929 0 0)
(249.016 0 0)
(250.088 0 0)
(251.146 0 0)
(252.191 0 0)
(253.222 0 0)
(254.24 0 0)
(255.246 0 0)
(256.238 0 0)
(257.217 0 0)
(258.184 0 0)
(259.138 0 0)
(260.08 0 0)
(261.009 0 0)
(261.926 0 0)
(262.831 0 0)
(263.724 0 0)
(264.606 0 0)
(265.475 0 0)
(266.332 0 0)
(267.178 0 0)
(268.012 0 0)
(268.835 0 0)
(269.646 0 0)
(270.446 0 0)
(271.235 0 0)
(272.012 0 0)
(272.778 0 0)
(273.533 0 0)
(274.277 0 0)
(275.009 0 0)
(275.731 0 0)
(276.442 0 0)
(277.142 0 0)
(277.831 0 0)
(278.509 0 0)
(279.176 0 0)
(279.833 0 0)
(280.479 0 0)
(281.114 0 0)
(281.738 0 0)
(282.352 0 0)
(282.955 0 0)
(283.548 0 0)
(284.13 0 0)
(284.701 0 0)
(285.262 0 0)
(285.812 0 0)
(286.352 0 0)
(286.881 0 0)
(287.399 0 0)
(287.907 0 0)
(288.405 0 0)
(288.892 0 0)
(289.368 0 0)
(289.834 0 0)
(290.289 0 0)
(290.734 0 0)
(291.169 0 0)
(291.592 0 0)
(292.005 0 0)
(292.408 0 0)
(292.8 0 0)
(293.181 0 0)
(293.551 0 0)
(293.911 0 0)
(294.26 0 0)
(294.599 0 0)
(294.927 0 0)
(295.243 0 0)
(295.55 0 0)
(295.844 0 0)
(296.128 0 0)
(296.403 0 0)
(296.665 0 0)
(296.912 0 0)
(297.16 0 0)
(297.372 0 0)
(297.646 0 0)
(249.186 0 0)
(250.222 0 0)
(251.245 0 0)
(252.256 0 0)
(253.254 0 0)
(254.24 0 0)
(255.214 0 0)
(256.176 0 0)
(257.126 0 0)
(258.064 0 0)
(258.99 0 0)
(259.905 0 0)
(260.808 0 0)
(261.7 0 0)
(262.581 0 0)
(263.45 0 0)
(264.308 0 0)
(265.155 0 0)
(265.991 0 0)
(266.816 0 0)
(267.631 0 0)
(268.434 0 0)
(269.227 0 0)
(270.008 0 0)
(270.78 0 0)
(271.54 0 0)
(272.291 0 0)
(273.03 0 0)
(273.759 0 0)
(274.478 0 0)
(275.187 0 0)
(275.885 0 0)
(276.572 0 0)
(277.25 0 0)
(277.917 0 0)
(278.574 0 0)
(279.221 0 0)
(279.858 0 0)
(280.485 0 0)
(281.101 0 0)
(281.708 0 0)
(282.304 0 0)
(282.891 0 0)
(283.467 0 0)
(284.034 0 0)
(284.59 0 0)
(285.136 0 0)
(285.673 0 0)
(286.2 0 0)
(286.716 0 0)
(287.223 0 0)
(287.72 0 0)
(288.206 0 0)
(288.683 0 0)
(289.15 0 0)
(289.607 0 0)
(290.054 0 0)
(290.491 0 0)
(290.918 0 0)
(291.335 0 0)
(291.743 0 0)
(292.14 0 0)
(292.527 0 0)
(292.904 0 0)
(293.271 0 0)
(293.628 0 0)
(293.975 0 0)
(294.312 0 0)
(294.639 0 0)
(294.956 0 0)
(295.262 0 0)
(295.558 0 0)
(295.844 0 0)
(296.12 0 0)
(296.386 0 0)
(296.64 0 0)
(296.889 0 0)
(297.105 0 0)
(297.39 0 0)
(250.385 0 0)
(251.374 0 0)
(252.351 0 0)
(253.317 0 0)
(254.271 0 0)
(255.214 0 0)
(256.146 0 0)
(257.067 0 0)
(257.977 0 0)
(258.876 0 0)
(259.764 0 0)
(260.641 0 0)
(261.508 0 0)
(262.364 0 0)
(263.21 0 0)
(264.045 0 0)
(264.87 0 0)
(265.684 0 0)
(266.488 0 0)
(267.282 0 0)
(268.066 0 0)
(268.84 0 0)
(269.604 0 0)
(270.358 0 0)
(271.101 0 0)
(271.835 0 0)
(272.559 0 0)
(273.274 0 0)
(273.978 0 0)
(274.673 0 0)
(275.358 0 0)
(276.033 0 0)
(276.699 0 0)
(277.354 0 0)
(278.001 0 0)
(278.637 0 0)
(279.265 0 0)
(279.882 0 0)
(280.49 0 0)
(281.089 0 0)
(281.678 0 0)
(282.258 0 0)
(282.828 0 0)
(283.389 0 0)
(283.94 0 0)
(284.482 0 0)
(285.014 0 0)
(285.537 0 0)
(286.051 0 0)
(286.555 0 0)
(287.05 0 0)
(287.536 0 0)
(288.012 0 0)
(288.479 0 0)
(288.936 0 0)
(289.384 0 0)
(289.823 0 0)
(290.252 0 0)
(290.672 0 0)
(291.082 0 0)
(291.483 0 0)
(291.875 0 0)
(292.257 0 0)
(292.63 0 0)
(292.993 0 0)
(293.347 0 0)
(293.692 0 0)
(294.026 0 0)
(294.352 0 0)
(294.668 0 0)
(294.974 0 0)
(295.271 0 0)
(295.558 0 0)
(295.835 0 0)
(296.103 0 0)
(296.36 0 0)
(296.614 0 0)
(296.833 0 0)
(297.125 0 0)
(251.531 0 0)
(252.476 0 0)
(253.409 0 0)
(254.332 0 0)
(255.245 0 0)
(256.147 0 0)
(257.039 0 0)
(257.921 0 0)
(258.793 0 0)
(259.654 0 0)
(260.506 0 0)
(261.348 0 0)
(262.179 0 0)
(263.001 0 0)
(263.814 0 0)
(264.616 0 0)
(265.409 0 0)
(266.193 0 0)
(266.967 0 0)
(267.731 0 0)
(268.486 0 0)
(269.231 0 0)
(269.968 0 0)
(270.694 0 0)
(271.412 0 0)
(272.12 0 0)
(272.819 0 0)
(273.509 0 0)
(274.189 0 0)
(274.861 0 0)
(275.523 0 0)
(276.176 0 0)
(276.821 0 0)
(277.456 0 0)
(278.082 0 0)
(278.699 0 0)
(279.307 0 0)
(279.906 0 0)
(280.496 0 0)
(281.077 0 0)
(281.649 0 0)
(282.212 0 0)
(282.767 0 0)
(283.312 0 0)
(283.849 0 0)
(284.376 0 0)
(284.895 0 0)
(285.405 0 0)
(285.906 0 0)
(286.398 0 0)
(286.882 0 0)
(287.356 0 0)
(287.822 0 0)
(288.279 0 0)
(288.726 0 0)
(289.165 0 0)
(289.596 0 0)
(290.017 0 0)
(290.43 0 0)
(290.833 0 0)
(291.228 0 0)
(291.614 0 0)
(291.991 0 0)
(292.359 0 0)
(292.718 0 0)
(293.068 0 0)
(293.41 0 0)
(293.742 0 0)
(294.066 0 0)
(294.38 0 0)
(294.685 0 0)
(294.982 0 0)
(295.269 0 0)
(295.548 0 0)
(295.818 0 0)
(296.076 0 0)
(296.333 0 0)
(296.555 0 0)
(296.852 0 0)
(252.627 0 0)
(253.53 0 0)
(254.422 0 0)
(255.304 0 0)
(256.177 0 0)
(257.041 0 0)
(257.895 0 0)
(258.739 0 0)
(259.575 0 0)
(260.401 0 0)
(261.218 0 0)
(262.026 0 0)
(262.824 0 0)
(263.614 0 0)
(264.394 0 0)
(265.166 0 0)
(265.928 0 0)
(266.682 0 0)
(267.427 0 0)
(268.163 0 0)
(268.89 0 0)
(269.608 0 0)
(270.318 0 0)
(271.019 0 0)
(271.711 0 0)
(272.395 0 0)
(273.07 0 0)
(273.736 0 0)
(274.394 0 0)
(275.043 0 0)
(275.683 0 0)
(276.315 0 0)
(276.939 0 0)
(277.554 0 0)
(278.16 0 0)
(278.758 0 0)
(279.348 0 0)
(279.929 0 0)
(280.501 0 0)
(281.065 0 0)
(281.621 0 0)
(282.168 0 0)
(282.707 0 0)
(283.238 0 0)
(283.76 0 0)
(284.274 0 0)
(284.779 0 0)
(285.276 0 0)
(285.765 0 0)
(286.245 0 0)
(286.717 0 0)
(287.181 0 0)
(287.636 0 0)
(288.083 0 0)
(288.521 0 0)
(288.951 0 0)
(289.373 0 0)
(289.786 0 0)
(290.191 0 0)
(290.588 0 0)
(290.976 0 0)
(291.356 0 0)
(291.728 0 0)
(292.091 0 0)
(292.446 0 0)
(292.792 0 0)
(293.13 0 0)
(293.459 0 0)
(293.781 0 0)
(294.093 0 0)
(294.397 0 0)
(294.693 0 0)
(294.98 0 0)
(295.259 0 0)
(295.53 0 0)
(295.789 0 0)
(296.049 0 0)
(296.273 0 0)
(296.574 0 0)
(253.675 0 0)
(254.538 0 0)
(255.391 0 0)
(256.235 0 0)
(257.07 0 0)
(257.897 0 0)
(258.715 0 0)
(259.524 0 0)
(260.325 0 0)
(261.118 0 0)
(261.902 0 0)
(262.677 0 0)
(263.444 0 0)
(264.202 0 0)
(264.953 0 0)
(265.694 0 0)
(266.428 0 0)
(267.153 0 0)
(267.87 0 0)
(268.579 0 0)
(269.279 0 0)
(269.972 0 0)
(270.656 0 0)
(271.332 0 0)
(272 0 0)
(272.66 0 0)
(273.312 0 0)
(273.955 0 0)
(274.591 0 0)
(275.218 0 0)
(275.838 0 0)
(276.449 0 0)
(277.053 0 0)
(277.648 0 0)
(278.236 0 0)
(278.816 0 0)
(279.387 0 0)
(279.951 0 0)
(280.506 0 0)
(281.054 0 0)
(281.594 0 0)
(282.126 0 0)
(282.65 0 0)
(283.166 0 0)
(283.674 0 0)
(284.174 0 0)
(284.666 0 0)
(285.15 0 0)
(285.627 0 0)
(286.096 0 0)
(286.556 0 0)
(287.009 0 0)
(287.454 0 0)
(287.891 0 0)
(288.32 0 0)
(288.741 0 0)
(289.154 0 0)
(289.56 0 0)
(289.957 0 0)
(290.347 0 0)
(290.729 0 0)
(291.102 0 0)
(291.468 0 0)
(291.826 0 0)
(292.176 0 0)
(292.518 0 0)
(292.853 0 0)
(293.179 0 0)
(293.497 0 0)
(293.808 0 0)
(294.11 0 0)
(294.404 0 0)
(294.691 0 0)
(294.969 0 0)
(295.24 0 0)
(295.501 0 0)
(295.762 0 0)
(295.987 0 0)
(296.292 0 0)
(254.678 0 0)
(255.502 0 0)
(256.318 0 0)
(257.126 0 0)
(257.926 0 0)
(258.718 0 0)
(259.502 0 0)
(260.278 0 0)
(261.046 0 0)
(261.806 0 0)
(262.558 0 0)
(263.303 0 0)
(264.039 0 0)
(264.768 0 0)
(265.489 0 0)
(266.203 0 0)
(266.909 0 0)
(267.607 0 0)
(268.297 0 0)
(268.98 0 0)
(269.655 0 0)
(270.322 0 0)
(270.982 0 0)
(271.634 0 0)
(272.279 0 0)
(272.916 0 0)
(273.545 0 0)
(274.167 0 0)
(274.781 0 0)
(275.388 0 0)
(275.988 0 0)
(276.579 0 0)
(277.164 0 0)
(277.74 0 0)
(278.309 0 0)
(278.871 0 0)
(279.425 0 0)
(279.972 0 0)
(280.511 0 0)
(281.043 0 0)
(281.567 0 0)
(282.084 0 0)
(282.593 0 0)
(283.095 0 0)
(283.59 0 0)
(284.077 0 0)
(284.556 0 0)
(285.028 0 0)
(285.493 0 0)
(285.95 0 0)
(286.399 0 0)
(286.841 0 0)
(287.276 0 0)
(287.703 0 0)
(288.123 0 0)
(288.535 0 0)
(288.94 0 0)
(289.338 0 0)
(289.728 0 0)
(290.11 0 0)
(290.485 0 0)
(290.853 0 0)
(291.213 0 0)
(291.565 0 0)
(291.91 0 0)
(292.248 0 0)
(292.578 0 0)
(292.901 0 0)
(293.216 0 0)
(293.524 0 0)
(293.824 0 0)
(294.117 0 0)
(294.402 0 0)
(294.679 0 0)
(294.95 0 0)
(295.211 0 0)
(295.472 0 0)
(295.699 0 0)
(296.005 0 0)
(255.638 0 0)
(256.426 0 0)
(257.207 0 0)
(257.98 0 0)
(258.746 0 0)
(259.505 0 0)
(260.256 0 0)
(261 0 0)
(261.737 0 0)
(262.466 0 0)
(263.189 0 0)
(263.904 0 0)
(264.612 0 0)
(265.312 0 0)
(266.006 0 0)
(266.692 0 0)
(267.371 0 0)
(268.043 0 0)
(268.708 0 0)
(269.366 0 0)
(270.016 0 0)
(270.66 0 0)
(271.296 0 0)
(271.925 0 0)
(272.548 0 0)
(273.163 0 0)
(273.771 0 0)
(274.372 0 0)
(274.966 0 0)
(275.553 0 0)
(276.132 0 0)
(276.705 0 0)
(277.271 0 0)
(277.829 0 0)
(278.381 0 0)
(278.925 0 0)
(279.463 0 0)
(279.993 0 0)
(280.516 0 0)
(281.032 0 0)
(281.542 0 0)
(282.044 0 0)
(282.539 0 0)
(283.027 0 0)
(283.508 0 0)
(283.982 0 0)
(284.449 0 0)
(284.909 0 0)
(285.362 0 0)
(285.807 0 0)
(286.246 0 0)
(286.678 0 0)
(287.102 0 0)
(287.52 0 0)
(287.93 0 0)
(288.334 0 0)
(288.73 0 0)
(289.12 0 0)
(289.502 0 0)
(289.877 0 0)
(290.246 0 0)
(290.607 0 0)
(290.961 0 0)
(291.308 0 0)
(291.648 0 0)
(291.981 0 0)
(292.307 0 0)
(292.626 0 0)
(292.937 0 0)
(293.242 0 0)
(293.54 0 0)
(293.83 0 0)
(294.114 0 0)
(294.39 0 0)
(294.66 0 0)
(294.92 0 0)
(295.182 0 0)
(295.409 0 0)
(295.716 0 0)
(256.557 0 0)
(257.311 0 0)
(258.059 0 0)
(258.799 0 0)
(259.533 0 0)
(260.26 0 0)
(260.98 0 0)
(261.694 0 0)
(262.401 0 0)
(263.101 0 0)
(263.795 0 0)
(264.481 0 0)
(265.162 0 0)
(265.835 0 0)
(266.502 0 0)
(267.163 0 0)
(267.816 0 0)
(268.463 0 0)
(269.104 0 0)
(269.738 0 0)
(270.365 0 0)
(270.985 0 0)
(271.599 0 0)
(272.207 0 0)
(272.807 0 0)
(273.401 0 0)
(273.989 0 0)
(274.57 0 0)
(275.144 0 0)
(275.711 0 0)
(276.272 0 0)
(276.827 0 0)
(277.374 0 0)
(277.915 0 0)
(278.45 0 0)
(278.977 0 0)
(279.499 0 0)
(280.013 0 0)
(280.521 0 0)
(281.022 0 0)
(281.517 0 0)
(282.005 0 0)
(282.486 0 0)
(282.96 0 0)
(283.428 0 0)
(283.89 0 0)
(284.344 0 0)
(284.792 0 0)
(285.234 0 0)
(285.668 0 0)
(286.097 0 0)
(286.518 0 0)
(286.933 0 0)
(287.341 0 0)
(287.742 0 0)
(288.137 0 0)
(288.525 0 0)
(288.906 0 0)
(289.281 0 0)
(289.649 0 0)
(290.01 0 0)
(290.365 0 0)
(290.713 0 0)
(291.055 0 0)
(291.389 0 0)
(291.717 0 0)
(292.039 0 0)
(292.353 0 0)
(292.661 0 0)
(292.963 0 0)
(293.258 0 0)
(293.545 0 0)
(293.827 0 0)
(294.101 0 0)
(294.37 0 0)
(294.629 0 0)
(294.89 0 0)
(295.117 0 0)
(295.425 0 0)
(257.437 0 0)
(258.159 0 0)
(258.875 0 0)
(259.584 0 0)
(260.287 0 0)
(260.984 0 0)
(261.675 0 0)
(262.36 0 0)
(263.038 0 0)
(263.711 0 0)
(264.377 0 0)
(265.037 0 0)
(265.691 0 0)
(266.339 0 0)
(266.98 0 0)
(267.616 0 0)
(268.245 0 0)
(268.868 0 0)
(269.485 0 0)
(270.096 0 0)
(270.701 0 0)
(271.299 0 0)
(271.892 0 0)
(272.478 0 0)
(273.058 0 0)
(273.632 0 0)
(274.199 0 0)
(274.761 0 0)
(275.316 0 0)
(275.865 0 0)
(276.408 0 0)
(276.944 0 0)
(277.474 0 0)
(277.999 0 0)
(278.516 0 0)
(279.028 0 0)
(279.533 0 0)
(280.033 0 0)
(280.525 0 0)
(281.012 0 0)
(281.492 0 0)
(281.966 0 0)
(282.434 0 0)
(282.896 0 0)
(283.351 0 0)
(283.8 0 0)
(284.243 0 0)
(284.679 0 0)
(285.109 0 0)
(285.533 0 0)
(285.951 0 0)
(286.362 0 0)
(286.767 0 0)
(287.166 0 0)
(287.558 0 0)
(287.944 0 0)
(288.324 0 0)
(288.697 0 0)
(289.064 0 0)
(289.425 0 0)
(289.78 0 0)
(290.128 0 0)
(290.47 0 0)
(290.805 0 0)
(291.135 0 0)
(291.457 0 0)
(291.774 0 0)
(292.085 0 0)
(292.389 0 0)
(292.686 0 0)
(292.978 0 0)
(293.263 0 0)
(293.542 0 0)
(293.814 0 0)
(294.081 0 0)
(294.339 0 0)
(294.599 0 0)
(294.826 0 0)
(295.133 0 0)
(258.281 0 0)
(258.973 0 0)
(259.658 0 0)
(260.337 0 0)
(261.011 0 0)
(261.68 0 0)
(262.342 0 0)
(262.999 0 0)
(263.651 0 0)
(264.296 0 0)
(264.937 0 0)
(265.571 0 0)
(266.2 0 0)
(266.823 0 0)
(267.44 0 0)
(268.052 0 0)
(268.658 0 0)
(269.258 0 0)
(269.853 0 0)
(270.442 0 0)
(271.025 0 0)
(271.602 0 0)
(272.174 0 0)
(272.74 0 0)
(273.3 0 0)
(273.854 0 0)
(274.403 0 0)
(274.945 0 0)