/*--------------------------------*- C++ -*----------------------------------*\
| =========                 |                                                 |
| \\      /  F ield         | OpenFOAM: The Open Source CFD Toolbox           |
|  \\    /   O peration     | Version:  2312                                  |
|   \\  /    A nd           | Website:  www.openfoam.com                      |
|    \\/     M anipulation  |                                                 |
\*---------------------------------------------------------------------------*/
FoamFile
{
    version     2.0;
    format      ascii;
    arch        "LSB;label=32;scalar=64";
    class       surfaceScalarField;
    location    "0.092";
    object      phi;
}
// * * * * * * * * * * * * * * * * * * * * * * * * * * * * * * * * * * * * * //

dimensions      [0 3 -1 0 0 0 0];

oriented        oriented;

internalField   nonuniform List<scalar> 
62015
(
34.3683
0.0671033
-33.6891
35.0682
0.0671725
35.7812
0.0671806
36.5016
0.0671148
37.2252
0.0669657
37.9486
0.0667253
38.6694
0.0663885
39.3857
0.0659509
40.096
0.0654102
40.7994
0.0647639
41.4953
0.0640111
42.183
0.0631511
42.8625
0.0621839
43.5334
0.0611095
44.1958
0.0599287
44.8498
0.058642
45.4954
0.0572507
46.1329
0.0557557
46.7623
0.0541581
47.3841
0.0524596
47.9983
0.0506617
48.6052
0.0487655
49.2052
0.0467732
49.7985
0.0446863
50.3853
0.0425064
50.966
0.0402356
51.5408
0.0378753
52.11
0.035428
52.6738
0.0328954
53.2325
0.0302794
53.7865
0.027582
54.3358
0.0248054
54.8808
0.0219519
55.4217
0.0190231
55.9588
0.0160218
56.4922
0.0129495
57.0221
0.00980907
57.5489
0.0066026
58.0726
0.00333191
58.5936
0
59.1119
-0.00339111
59.6277
-0.00683937
60.1412
-0.0103417
60.6527
-0.0138962
61.1622
-0.0175005
61.6699
-0.0211515
62.1759
-0.0248476
62.6804
-0.0285854
63.1836
-0.0323632
63.6855
-0.0361782
64.1863
-0.0400276
64.6861
-0.0439089
65.1849
-0.0478196
65.683
-0.0517575
66.1804
-0.0557192
66.6771
-0.0597028
67.1734
-0.0637052
67.6692
-0.067724
68.1646
-0.0717567
68.6598
-0.0758002
69.1547
-0.0798522
69.6494
-0.0839102
70.144
-0.087971
70.6386
-0.0920321
71.1331
-0.0960914
71.6276
-0.100146
72.1221
-0.104192
72.6167
-0.108229
73.1113
-0.112253
73.6061
-0.116261
74.101
-0.120251
74.596
-0.12422
75.0909
-0.128167
75.5866
-0.132086
76.0805
-0.13598
76.58
-0.139834
77.0628
-0.143683
77.5973
-0.147404
-0.151377
77.9729
34.1181
0.135363
-33.4624
34.7869
0.1354
35.4625
0.135296
36.1411
0.135031
36.8196
0.134591
37.4958
0.133967
38.168
0.133151
38.835
0.132137
39.4958
0.130921
40.1497
0.129501
40.7963
0.127876
41.4353
0.126044
42.0666
0.124006
42.6902
0.121764
43.3061
0.119317
43.9143
0.116668
44.515
0.113818
45.1084
0.11077
45.6946
0.107527
46.274
0.104091
46.8466
0.100464
47.4129
0.0966501
47.9729
0.092652
48.527
0.088473
49.0754
0.0841163
49.6184
0.0795857
50.1562
0.0748843
50.6891
0.0700161
51.2173
0.0649844
51.741
0.0597937
52.2605
0.054447
52.7759
0.0489489
53.2876
0.0433029
53.7958
0.0375138
54.3006
0.0315851
54.8022
0.0255212
55.3009
0.0193263
55.7968
0.0130048
56.2902
0.0065613
56.7811
0
57.2698
-0.00667457
57.7564
-0.0134579
58.2412
-0.0203455
58.7242
-0.0273325
59.2055
-0.0344143
59.6855
-0.0415862
60.164
-0.0488432
60.6414
-0.0561811
61.1177
-0.0635944
61.593
-0.0710787
62.0675
-0.0786285
62.5413
-0.0862396
63.0144
-0.0939064
63.4869
-0.101624
63.959
-0.109388
64.4307
-0.117193
64.9022
-0.125033
65.3734
-0.132904
65.8444
-0.140801
66.3154
-0.148719
66.7863
-0.156651
67.2573
-0.164594
67.7283
-0.172543
68.1995
-0.180491
68.6708
-0.188434
69.1423
-0.196367
69.614
-0.204284
70.086
-0.212181
70.5582
-0.220052
71.0307
-0.227893
71.5034
-0.235698
71.9766
-0.243461
72.4498
-0.25118
72.9238
-0.258845
73.3965
-0.266461
73.8746
-0.273998
74.3371
-0.281525
74.8483
-0.288804
-0.296562
75.2118
33.8803
0.204795
-33.2545
34.5134
0.204669
35.149
0.204311
35.7845
0.203703
36.418
0.202829
37.0479
0.201679
37.673
0.200245
38.2925
0.198521
38.9059
0.196503
39.5126
0.19419
40.1125
0.191579
40.7055
0.188672
41.2913
0.185468
41.8701
0.181969
42.442
0.178178
43.007
0.174097
43.5654
0.169728
44.1172
0.165075
44.6626
0.160142
45.202
0.154932
45.7355
0.149448
46.2633
0.143697
46.7856
0.137681
47.3027
0.131406
47.8148
0.124877
48.3221
0.118097
48.825
0.111073
49.3234
0.103809
49.8178
0.0963113
50.3084
0.0885844
50.7952
0.0806342
51.2786
0.0724665
51.7587
0.0640868
52.2357
0.0555013
52.7099
0.0467153
53.1813
0.0377356
53.6503
0.028568
54.1169
0.0192184
54.5813
0.00969368
55.0437
0
55.5043
-0.00985618
55.9631
-0.0198683
56.4204
-0.0300301
56.8763
-0.0403341
57.3309
-0.050774
57.7843
-0.0613433
58.2366
-0.0720343
58.6881
-0.0828408
59.1387
-0.0937554
59.5887
-0.104771
60.038
-0.115881
60.4869
-0.127078
60.9353
-0.138354
61.3834
-0.149703
61.8313
-0.161117
62.279
-0.172589
62.7267
-0.184111
63.1743
-0.195677
63.6219
-0.207278
64.0697
-0.218908
64.5176
-0.230559
64.9657
-0.242223
65.4141
-0.253893
65.8627
-0.265562
66.3117
-0.277222
66.761
-0.288867
67.2108
-0.300487
67.6609
-0.312076
68.1114
-0.323627
68.5624
-0.335131
69.0138
-0.346583
69.4657
-0.357974
69.9179
-0.369297
70.3711
-0.380544
70.8231
-0.391715
71.2804
-0.402771
71.7233
-0.413811
72.212
-0.424495
-0.435861
72.5624
33.625
0.275235
-33.0331
34.2203
0.274804
34.8153
0.274051
35.4084
0.272958
35.9981
0.271512
36.5835
0.269702
37.1639
0.267522
37.7387
0.264967
38.3075
0.262033
38.8701
0.258718
39.4263
0.255024
39.9762
0.250948
40.5196
0.246495
41.0567
0.241665
41.5875
0.236461
42.1123
0.230887
42.6311
0.224947
43.1441
0.218644
43.6515
0.211984
44.1535
0.20497
44.6503
0.19761
45.1421
0.189906
45.6292
0.181866
46.1116
0.173495
46.5897
0.1648
47.0636
0.155785
47.5336
0.146458
47.9998
0.136826
48.4625
0.126895
48.9218
0.116672
49.3779
0.106164
49.8311
0.0953777
50.2815
0.0843214
50.7292
0.0730024
51.1745
0.0614277
51.6175
0.0496057
52.0584
0.0375437
52.4973
0.0252502
52.9344
0.0127329
53.3698
0
53.8037
-0.0129401
54.2363
-0.026079
54.6676
-0.0394082
55.0977
-0.0529188
55.5269
-0.066603
55.9552
-0.080451
56.3826
-0.0944546
56.8095
-0.108605
57.2357
-0.122892
57.6616
-0.137308
58.087
-0.151843
58.5121
-0.166488
58.9371
-0.181234
59.3619
-0.196072
59.7867
-0.210991
60.2115
-0.225984
60.6365
-0.241039
61.0615
-0.256148
61.4868
-0.271301
61.9124
-0.28649
62.3383
-0.301703
62.7645
-0.316932
63.1912
-0.332166
63.6182
-0.347397
64.0458
-0.362615
64.4739
-0.37781
64.9025
-0.392973
65.3316
-0.408094
65.7613
-0.423163
66.1916
-0.438171
66.6224
-0.453109
67.0539
-0.467967
67.4858
-0.482735
67.9188
-0.497402
68.3509
-0.511971
68.7881
-0.52639
69.2119
-0.540785
69.6791
-0.554721
-0.569529
70.0158
33.3403
0.346465
-32.7843
33.8972
0.345588
34.4522
0.344302
35.0041
0.342592
35.552
0.340447
36.0954
0.337857
36.6336
0.334816
37.1664
0.331321
37.6935
0.32737
38.2149
0.32296
38.7305
0.318094
39.2403
0.312772
39.7442
0.306996
40.2425
0.300769
40.7353
0.294095
41.2226
0.286979
41.7046
0.279424
42.1815
0.271435
42.6535
0.263019
43.1207
0.254181
43.5834
0.244927
44.0417
0.235263
44.4958
0.225197
44.9459
0.214734
45.3922
0.203883
45.8349
0.192651
46.2742
0.181045
46.7102
0.169074
47.1431
0.156744
47.5732
0.144066
48.0005
0.131046
48.4253
0.117694
48.8478
0.104018
49.268
0.0900281
49.6861
0.0757322
50.1023
0.06114
50.5168
0.0462613
50.9296
0.0311051
51.341
0.0156813
51.751
0
52.1598
-0.015929
52.5675
-0.0320958
52.9742
-0.04849
53.3801
-0.0651008
53.7852
-0.0819185
54.1897
-0.0989322
54.5936
-0.116131
54.9971
-0.133504
55.4003
-0.151041
55.8032
-0.168731
56.2059
-0.186563
56.6086
-0.204525
57.0112
-0.222606
57.4139
-0.240796
57.8168
-0.259082
58.2198
-0.277454
58.6231
-0.295899
59.0267
-0.314408
59.4307
-0.332967
59.8351
-0.351566
60.2399
-0.370193
60.6453
-0.388836
61.0512
-0.407484
61.4577
-0.426125
61.8647
-0.444748
62.2724
-0.463341
62.6808
-0.481892
63.0898
-0.500391
63.4995
-0.518824
63.91
-0.537181
64.3211
-0.555451
64.7329
-0.573621
65.1453
-0.591682
65.5589
-0.609616
65.9717
-0.62743
66.3896
-0.64506
66.7949
-0.662659
67.2415
-0.679701
-0.697791
67.5645
33.0228
0.418263
-32.503
33.5419
0.416807
34.0581
0.414862
34.5706
0.412414
35.0789
0.409454
35.5826
0.405975
36.0813
0.401971
36.5749
0.397442
37.0632
0.392384
37.5463
0.386798
38.0241
0.380685
38.4966
0.374047
38.964
0.366888
39.4262
0.35921
39.8836
0.351018
40.3361
0.342317
40.784
0.333112
41.2274
0.32341
41.6664
0.313216
42.1013
0.302537
42.5322
0.29138
42.9592
0.279753
43.3826
0.267663
43.8026
0.255118
44.2192
0.242127
44.6327
0.228697
45.0433
0.214838
45.4511
0.200559
45.8562
0.185868
46.2589
0.170776
46.6593
0.155292
47.0575
0.139426
47.4537
0.123188
47.8481
0.106589
48.2407
0.0896382
48.6318
0.0723471
49.0214
0.0547267
49.4097
0.036788
49.7968
0.0185419
50.1829
0
50.568
-0.0188262
50.9522
-0.037925
51.3358
-0.0572845
51.7187
-0.076893
52.1011
-0.0967378
52.4831
-0.116807
52.8648
-0.137089
53.2462
-0.15757
53.6275
-0.178238
54.0087
-0.19908
54.39
-0.220084
54.7713
-0.241236
55.1527
-0.262524
55.5344
-0.283935
55.9164
-0.305455
56.2988
-0.327071
56.6815
-0.348771
57.0647
-0.370539
57.4484
-0.392365
57.8326
-0.414233
58.2174
-0.436131
58.6028
-0.458045
58.989
-0.479962
59.3757
-0.501867
59.7632
-0.523749
60.1515
-0.545592
60.5405
-0.567385
60.9303
-0.589113
61.3209
-0.610763
61.7122
-0.632321
62.1044
-0.653774
62.4974
-0.675109
62.8911
-0.696314
63.286
-0.71737
63.6804
-0.738283
64.0796
-0.758979
64.4671
-0.779635
64.894
-0.799643
-0.820861
65.2035
32.6729
0.490421
-32.1887
33.1554
0.488264
33.6345
0.485543
34.1097
0.482248
34.5807
0.478371
35.0472
0.473907
35.509
0.468851
35.9661
0.463204
36.4183
0.456963
36.8658
0.450129
37.3085
0.442706
37.7464
0.434695
38.1798
0.426099
38.6086
0.416924
39.0331
0.407175
39.4534
0.396856
39.8695
0.385975
40.2817
0.374537
40.6901
0.36255
41.0949
0.35002
41.4962
0.336957
41.8942
0.323368
42.289
0.309261
42.6808
0.294646
43.0698
0.279532
43.4561
0.263928
43.8398
0.247843
44.2212
0.231289
44.6003
0.214276
44.9774
0.196813
45.3525
0.178913
45.7258
0.160585
46.0974
0.141842
46.4676
0.122694
46.8363
0.103155
47.2037
0.083235
47.5699
0.0629472
47.9352
0.0423035
48.2995
0.021317
48.663
0
49.0258
-0.0216342
49.3879
-0.0435723
49.7496
-0.0658014
50.1109
-0.0883075
50.4719
-0.111078
50.8326
-0.134097
51.1932
-0.157353
51.5538
-0.18083
51.9144
-0.204515
52.2751
-0.228393
52.6359
-0.252451
52.997
-0.276672
53.3584
-0.301043
53.7202
-0.325549
54.0823
-0.350175
54.445
-0.374907
54.8082
-0.399729
55.1719
-0.424625
55.5363
-0.449583
55.9014
-0.474585
56.2671
-0.499617
56.6336
-0.524664
57.0008
-0.54971
57.3688
-0.574741
57.7376
-0.599741
58.1073
-0.624695
58.4778
-0.649587
58.8492
-0.674403
59.2214
-0.699128
59.5946
-0.723745
59.9686
-0.748241
60.3436
-0.772599
60.7193
-0.796807
61.0963
-0.820843
61.4729
-0.844714
61.8543
-0.868337
62.2247
-0.891911
62.6325
-0.914751
-0.938948
62.9291
32.2927
0.562745
-31.843
32.7403
0.559777
33.1843
0.556178
33.6244
0.551939
34.0604
0.547055
34.4921
0.541522
34.9196
0.535336
35.3426
0.528498
35.7613
0.521008
36.1757
0.512867
36.5858
0.504078
36.9917
0.494645
37.3935
0.484571
37.7913
0.473862
38.1853
0.462523
38.5756
0.450561
38.9622
0.437981
39.3455
0.424792
39.7254
0.411001
40.1021
0.396617
40.4759
0.381647
40.8468
0.366101
41.2149
0.349989
41.5805
0.333319
41.9436
0.316102
42.3045
0.298349
42.6632
0.28007
43.0199
0.261276
43.3747
0.241979
43.7278
0.222189
44.0792
0.20192
44.4292
0.181183
44.7778
0.159991
45.1251
0.138357
45.4714
0.116293
45.8166
0.0938123
46.1609
0.070929
46.5044
0.0476565
46.8473
0.0240088
47.1895
0
47.5313
-0.0243556
47.8726
-0.0490436
48.2137
-0.0740492
48.5546
-0.0993575
48.8953
-0.124953
49.236
-0.150822
49.5767
-0.176947
49.9175
-0.203313
50.2585
-0.229906
50.5997
-0.256708
50.9413
-0.283705
51.2832
-0.310878
51.6256
-0.338214
51.9684
-0.365695
52.3118
-0.393305
52.6558
-0.421028
53.0004
-0.448847
53.3457
-0.476745
53.6917
-0.504705
54.0385
-0.532712
54.3861
-0.560748
54.7344
-0.588796
55.0837
-0.616839
55.4338
-0.644862
55.7848
-0.672846
56.1367
-0.700775
56.4896
-0.728632
56.8434
-0.756401
57.1981
-0.784064
57.5538
-0.811604
57.9105
-0.839007
58.2682
-0.866253
58.6267
-0.893328
58.9865
-0.92021
59.3461
-0.946904
59.7104
-0.97332
60.0642
-0.999676
60.4538
-1.02522
-1.05225
60.7379
31.8849
0.63506
-31.4681
32.2994
0.631184
32.7104
0.626616
33.1176
0.621349
33.5209
0.615379
33.9203
0.608704
34.3157
0.601321
34.7071
0.593231
35.0947
0.584435
35.4783
0.574935
35.8582
0.564736
36.2343
0.55384
36.6069
0.542252
36.9759
0.529978
37.3416
0.517025
37.704
0.503399
38.0633
0.489106
38.4196
0.474157
38.773
0.458557
39.1237
0.442317
39.4718
0.425445
39.8174
0.407952
40.1607
0.389847
40.5018
0.371141
40.8408
0.351845
41.1779
0.33197
41.5132
0.311527
41.8469
0.290529
42.1789
0.268988
42.5095
0.246916
42.8388
0.224327
43.1669
0.201233
43.4939
0.177648
43.8199
0.153586
44.145
0.129061
44.4694
0.104087
44.793
0.0786789
45.1161
0.0528518
45.4388
0.0266202
45.761
0
46.083
-0.0269935
46.4047
-0.0543446
46.7264
-0.0820369
47.048
-0.110055
47.3696
-0.138381
47.6913
-0.167
48.0132
-0.195895
48.3353
-0.225048
48.6578
-0.254442
48.9806
-0.284061
49.3039
-0.313887
49.6277
-0.343902
49.952
-0.374089
50.2769
-0.404429
50.6025
-0.434906
50.9287
-0.465501
51.2557
-0.496197
51.5835
-0.526974
51.912
-0.557815
52.2414
-0.588702
52.5717
-0.619616
52.9029
-0.650539
53.235
-0.681453
53.568
-0.712339
53.902
-0.743179
54.237
-0.773954
54.573
-0.804647
54.91
-0.835238
55.248
-0.86571
55.5871
-0.896045
55.9271
-0.926223
56.2682
-0.956227
56.6102
-0.98604
56.9537
-1.01564
57.2969
-1.04503
57.6447
-1.07411
57.9828
-1.10312
58.3548
-1.13124
-1.16097
58.6268
31.4524
0.707206
-31.0667
31.8358
0.702337
32.2158
0.696721
32.5922
0.690353
32.9651
0.683229
33.3344
0.675349
33.7
0.666711
34.0622
0.657317
34.4208
0.647168
34.7759
0.636268
35.1277
0.624619
35.4763
0.612228
35.8216
0.599098
36.1639
0.585237
36.5033
0.57065
36.8398
0.555346
37.1737
0.539331
37.5049
0.522615
37.8337
0.505206
38.1601
0.487114
38.4843
0.468349
38.8064
0.44892
39.1266
0.42884
39.4448
0.408118
39.7614
0.386768
40.0763
0.364799
40.3897
0.342226
40.7017
0.319061
41.0125
0.295317
41.3221
0.271007
41.6306
0.246145
41.9382
0.220746
42.2449
0.194824
42.5508
0.168393
42.8562
0.141469
43.1609
0.114067
43.4652
0.0862035
43.7691
0.0578936
44.0727
0.0291534
44.3762
0
44.6795
-0.0295502
44.9827
-0.0594805
45.286
-0.0897733
45.5894
-0.120411
45.893
-0.151377
46.1968
-0.182652
46.5009
-0.214219
46.8054
-0.246059
47.1104
-0.278155
47.4158
-0.310487
47.7218
-0.343037
48.0283
-0.375786
48.3355
-0.408715
48.6435
-0.441805
48.9521
-0.475036
49.2615
-0.50839
49.5717
-0.541847
49.8828
-0.575387
50.1948
-0.608991
50.5077
-0.642639
50.8215
-0.676312
51.1363
-0.709989
51.452
-0.743651
51.7688
-0.777279
52.0866
-0.810852
52.4055
-0.84435
52.7254
-0.877754
53.0463
-0.911044
53.3684
-0.944201
53.6915
-0.977204
54.0156
-1.01003
54.3409
-1.04267
54.6672
-1.0751
54.9948
-1.10729
55.3225
-1.13925
55.6544
-1.17087
55.9773
-1.20241
56.3325
-1.233
-1.26529
56.593
30.998
0.779038
-30.6415
31.3523
0.773103
31.7033
0.766371
32.0512
0.758839
32.3957
0.750504
32.737
0.741366
33.075
0.731425
33.4099
0.720683
33.7417
0.709142
34.0704
0.696806
34.3962
0.683679
34.7191
0.669765
35.0393
0.655072
35.3568
0.639605
35.6717
0.623372
35.9842
0.606381
36.2944
0.588639
36.6023
0.570156
36.9082
0.550941
37.212
0.531004
37.514
0.510356
37.8141
0.489008
38.1127
0.466971
38.4096
0.444257
38.7052
0.420878
38.9993
0.396847
39.2923
0.372178
39.5842
0.346883
39.875
0.320976
40.1649
0.294473
40.4539
0.267388
40.7423
0.239734
41.03
0.21153
41.3171
0.182788
41.6039
0.153527
41.8902
0.123762
42.1763
0.0935091
42.4621
0.0627867
42.7479
0.031611
43.0335
0
43.3193
-0.0320286
43.6051
-0.0644569
43.8911
-0.097266
44.1773
-0.130438
44.4639
-0.163954
44.7508
-0.197795
45.0381
-0.231942
45.3259
-0.266374
45.6143
-0.301074
45.9033
-0.33602
46.1928
-0.371193
46.4831
-0.406573
46.7741
-0.44214
47.0659
-0.477873
47.3585
-0.513751
47.6519
-0.549755
47.9463
-0.585863
48.2415
-0.622054
48.5377
-0.658308
48.8349
-0.694604
49.133
-0.730921
49.4322
-0.767237
49.7324
-0.803531
50.0337
-0.839783
50.3361
-0.875972
50.6395
-0.912075
50.9441
-0.948072
51.2497
-0.983943
51.5565
-1.01967
51.8644
-1.05522
52.1734
-1.09058
52.4835
-1.12573
52.7946
-1.16065
53.1072
-1.19532
53.4199
-1.22973
53.7367
-1.26378
54.0451
-1.29773
54.3841
-1.33066
-1.3654
54.6335
30.5245
0.850427
-30.1953
30.8516
0.843364
31.1757
0.835458
31.4969
0.826709
31.8151
0.817114
32.1304
0.806674
32.4429
0.795391
32.7525
0.783265
33.0594
0.7703
33.3636
0.7565
33.6653
0.74187
33.9644
0.726415
34.2612
0.710143
34.5556
0.693058
34.8479
0.675171
35.1381
0.656487
35.4262
0.637017
35.7125
0.61677
35.997
0.595756
36.2798
0.573985
36.561
0.551469
36.8408
0.528219
37.1191
0.504246
37.3962
0.479564
37.6721
0.454186
37.9469
0.428124
38.2208
0.401393
38.4937
0.374007
38.7659
0.34598
39.0373
0.317328
39.3082
0.288067
39.5785
0.258211
39.8484
0.227777
40.1179
0.196783
40.3871
0.165244
40.6562
0.133178
40.9251
0.100602
41.194
0.0675351
41.4629
0.0339949
41.7319
0
42.0011
-0.0344309
42.2705
-0.0692785
42.5402
-0.104524
42.8102
-0.140147
43.0807
-0.176128
43.3516
-0.212447
43.6231
-0.249083
43.8951
-0.286017
44.1678
-0.323227
44.4412
-0.360692
44.7152
-0.398392
44.9901
-0.436304
45.2657
-0.474409
45.5422
-0.512683
45.8196
-0.551105
46.0979
-0.589654
46.3771
-0.628308
46.6573
-0.667044
46.9385
-0.70584
47.2207
-0.744675
47.504
-0.783526
47.7884
-0.82237
48.0738
-0.861186
48.3603
-0.89995
48.648
-0.938642
48.9367
-0.977237
49.2266
-1.01571
49.5177
-1.05405
49.8099
-1.09223
50.1032
-1.13021
50.3977
-1.168
50.6934
-1.20555
50.9901
-1.24285
51.2882
-1.27987
51.5865
-1.31663
51.8889
-1.35299
52.1833
-1.38924
52.5068
-1.42441
-1.46146
52.7456
30.0345
0.921258
-29.7308
30.3363
0.913014
30.6354
0.903887
30.9319
0.893876
31.2257
0.882981
31.5169
0.871203
31.8056
0.858544
32.0918
0.845005
32.3756
0.830591
32.6571
0.815306
32.9364
0.799156
33.2135
0.782146
33.4885
0.764283
33.7616
0.745574
34.0328
0.726028
34.3022
0.705652
34.5699
0.684458
34.836
0.662454
35.1006
0.63965
35.3638
0.616059
35.6257
0.59169
35.8864
0.566558
36.146
0.540673
36.4045
0.51405
36.6621
0.486701
36.9188
0.458641
37.1748
0.429884
37.4301
0.400445
37.6848
0.370341
37.939
0.339585
38.1927
0.308195
38.4461
0.276187
38.6993
0.243578
38.9522
0.210386
39.2051
0.176628
39.4579
0.142323
39.7107
0.107488
39.9636
0.0721434
40.2166
0.0363075
40.4699
0
40.7235
-0.0367594
40.9774
-0.0739508
41.2317
-0.111554
41.4865
-0.149548
41.7418
-0.187911
41.9977
-0.226624
42.2542
-0.265665
42.5113
-0.305011
42.7691
-0.344642
43.0277
-0.384535
43.2871
-0.424668
43.5474
-0.465018
43.8085
-0.505564
44.0705
-0.546282
44.3334
-0.58715
44.5973
-0.628144
44.8622
-0.669242
45.1281
-0.71042
45.3951
-0.751656
45.6631
-0.792925
45.9322
-0.834206
46.2025
-0.875472
46.4738
-0.916703
46.7463
-0.957873
47.0199
-0.99896
47.2947
-1.03994
47.5706
-1.08079
47.8478
-1.12148
48.126
-1.162
48.4055
-1.20232
48.6861
-1.24241
48.968
-1.28225
49.2508
-1.32183
49.5352
-1.3611
49.8198
-1.40008
50.1083
-1.43865
50.3893
-1.47709
50.698
-1.5144
-1.55366
50.9266
29.5306
0.991431
-29.2506
29.8089
0.981962
30.0848
0.971573
30.3583
0.960264
30.6294
0.948036
30.8983
0.934891
31.165
0.92083
31.4295
0.905856
31.6919
0.889974
31.9523
0.873189
32.2108
0.855505
32.4675
0.83693
32.7223
0.81747
32.9755
0.797134
33.2271
0.77593
33.4773
0.753866
33.7259
0.730953
33.9733
0.707202
34.2194
0.682622
34.4644
0.657225
34.7083
0.631024
34.9512
0.604031
35.1932
0.576259
35.4344
0.547722
35.6749
0.518434
35.9147
0.488409
36.1539
0.457663
36.3927
0.426211
36.6311
0.39407
36.8691
0.361255
37.1068
0.327784
37.3444
0.293674
37.5819
0.258943
37.8193
0.223608
38.0567
0.187689
38.2942
0.151204
38.5319
0.114173
38.7698
0.0766155
39.0079
0.0385509
39.2464
0
39.4853
-0.0390167
39.7246
-0.0784783
39.9645
-0.118364
40.2048
-0.158651
40.4458
-0.199318
40.6874
-0.240344
40.9298
-0.281705
41.1728
-0.32338
41.4166
-0.365345
41.6613
-0.407577
41.9068
-0.450054
42.1532
-0.492752
42.4005
-0.535647
42.6487
-0.578716
42.898
-0.621934
43.1482
-0.665278
43.3995
-0.708723
43.6519
-0.752247
43.9053
-0.795822
44.1599
-0.839427
44.4155
-0.883036
44.6723
-0.926624
44.9303
-0.970168
45.1894
-1.01364
45.4496
-1.05702
45.7111
-1.10028
45.9737
-1.1434
46.2376
-1.18635
46.5026
-1.2291
46.7688
-1.27164
47.0362
-1.31394
47.3048
-1.35597
47.5745
-1.39772
47.8457
-1.43914
48.1171
-1.48025
48.3924
-1.52092
48.6606
-1.56145
48.9551
-1.60079
-1.64214
49.1739
29.0151
1.06086
-28.7571
29.2716
1.05013
29.5259
1.03844
29.7781
1.02581
30.0283
1.01222
30.2764
0.997684
30.5227
0.982202
30.7671
0.965777
31.0097
0.948413
31.2505
0.930116
31.4898
0.910891
31.7274
0.890746
31.9636
0.869688
32.1983
0.847726
32.4318
0.824867
32.6639
0.801122
32.8949
0.776501
33.1248
0.751014
33.3537
0.724673
33.5817
0.697489
33.8088
0.669476
34.0351
0.640646
34.2608
0.611013
34.4858
0.580592
34.7103
0.549396
34.9343
0.517441
35.1579
0.484742
35.3812
0.451317
35.6043
0.417181
35.8272
0.382352
36.0499
0.346847
36.2726
0.310684
36.4954
0.273882
36.7182
0.236459
36.9411
0.198435
37.1643
0.15983
37.3877
0.120663
37.6115
0.0809552
37.8356
0.0407273
38.0602
0
38.2852
-0.0412049
38.5108
-0.0828657
38.737
-0.12496
38.9638
-0.167466
39.1912
-0.21036
39.4194
-0.25362
39.6483
-0.297223
39.8781
-0.341144
40.1086
-0.385361
40.3401
-0.429849
40.5724
-0.474584
40.8057
-0.519542
41.04
-0.564698
41.2752
-0.610027
41.5115
-0.655506
41.7488
-0.701108
41.9872
-0.746808
42.2267
-0.792582
42.4672
-0.838404
42.709
-0.884248
42.9518
-0.93009
43.1959
-0.975902
43.4411
-1.02166
43.6874
-1.06734
43.935
-1.11291
44.1838
-1.15836
44.4337
-1.20364
44.6849
-1.24875
44.9373
-1.29364
45.1908
-1.33831
45.4456
-1.38271
45.7016
-1.42683
45.9587
-1.47065
46.2172
-1.51412
46.4761
-1.55725
46.7387
-1.59993
46.9947
-1.64244
47.2756
-1.68373
-1.72707
47.485
28.4901
1.12945
-28.2526
28.7263
1.11743
28.9607
1.10443
29.1932
1.09045
29.4239
1.07548
29.6529
1.05954
29.8802
1.04262
30.106
1.02473
30.3302
1.00588
30.5529
0.986061
30.7743
0.965293
30.9943
0.943577
31.2131
0.920923
31.4307
0.897339
31.6472
0.872833
31.8627
0.847416
32.0773
0.821098
32.2909
0.793891
32.5038
0.765806
32.7159
0.736856
32.9274
0.707053
33.1382
0.676412
33.3486
0.644946
33.5585
0.61267
33.7681
0.579598
33.9773
0.545748
34.1863
0.511135
34.3952
0.475775
34.6039
0.439687
34.8126
0.402888
35.0213
0.365395
35.2301
0.327228
35.439
0.288407
35.6481
0.248949
35.8575
0.208875
36.0672
0.168207
36.2772
0.126963
36.4877
0.0851668
36.6986
0.0428384
36.9101
0
37.1221
-0.0433261
37.3347
-0.0871172
37.548
-0.131351
37.7619
-0.176003
37.9767
-0.22105
38.1921
-0.26647
38.4084
-0.312236
38.6256
-0.358326
38.8436
-0.404715
39.0626
-0.451377
39.2825
-0.498288
39.5033
-0.545422
39.7252
-0.592754
39.9481
-0.640259
40.1721
-0.68791
40.3971
-0.735682
40.6233
-0.783548
40.8505
-0.831484
41.0789
-0.879461
41.3085
-0.927453
41.5392
-0.975436
41.7711
-1.02338
42.0041
-1.07126
42.2384
-1.11905
42.4739
-1.16673
42.7105
-1.21426
42.9484
-1.26162
43.1875
-1.30878
43.4278
-1.35573
43.6693
-1.40242
43.9121
-1.44883
44.156
-1.49495
44.4011
-1.54074
44.6476
-1.58616
44.8945
-1.63123
45.1449
-1.67581
45.3893
-1.72022
45.6571
-1.76336
-1.80858
45.8575
27.9576
1.19716
-27.7391
28.1751
1.18383
28.3909
1.16948
28.6052
1.15413
28.8179
1.13777
29.0291
1.12041
29.239
1.10205
29.4474
1.08269
29.6546
1.06234
29.8605
1.04101
30.0653
1.01869
30.269
0.99541
30.4716
0.971164
30.6733
0.945965
30.8741
0.919822
31.0741
0.892746
31.2733
0.864747
31.4719
0.835837
31.6698
0.806028
31.8671
0.775332
32.064
0.743764
32.2605
0.711338
32.4566
0.678067
32.6524
0.643967
32.848
0.609054
33.0435
0.573343
33.2388
0.536853
33.4341
0.499599
33.6294
0.4616
33.8248
0.422874
34.0203
0.383441
34.2161
0.343318
34.412
0.302527
34.6083
0.261086
34.8049
0.219017
35.0019
0.176341
35.1994
0.133079
35.3974
0.0892538
35.5959
0.0448865
35.795
0
35.9947
-0.0453825
36.1951
-0.0912375
36.3962
-0.137541
36.5981
-0.184271
36.8008
-0.2314
37.0043
-0.278906
37.2086
-0.326763
37.4139
-0.374946
37.6201
-0.42343
37.8272
-0.472188
38.0353
-0.521196
38.2445
-0.570426
38.4546
-0.619853
38.6658
-0.669451
38.8782
-0.719191
39.0916
-0.769049
39.3061
-0.818996
39.5217
-0.869007
39.7386
-0.919052
39.9565
-0.969107
40.1757
-1.01914
40.396
-1.06913
40.6176
-1.11905
40.8403
-1.16886
41.0642
-1.21854
41.2894
-1.26807
41.5158
-1.31742
41.7434
-1.36655
41.9722
-1.41545
42.2022
-1.46408
42.4334
-1.51242
42.6659
-1.56043
42.8995
-1.6081
43.1345
-1.65539
43.3699
-1.70231
43.6087
-1.74871
43.8419
-1.79492
44.0973
-1.83983
-1.88684
44.2891
27.4195
1.26391
-27.2185
27.6196
1.24925
27.8183
1.23356
28.0157
1.21683
28.2117
1.19906
28.4065
1.18027
28.6001
1.16046
28.7925
1.13963
28.9839
1.11778
29.1742
1.09493
29.3636
1.07108
29.5521
1.04623
29.7398
1.0204
29.9267
0.993602
30.1129
0.965835
30.2984
0.937113
30.4834
0.90745
30.6679
0.876855
30.8519
0.845343
31.0355
0.812926
31.2188
0.779618
31.4018
0.745433
31.5846
0.710387
31.7673
0.674496
31.9498
0.637774
32.1324
0.600239
32.3149
0.561909
32.4975
0.522801
32.6803
0.482934
32.8632
0.442325
33.0464
0.400996
33.2299
0.358965
33.4137
0.316253
33.5979
0.272881
33.7825
0.228869
33.9676
0.18424
34.1533
0.139016
34.3395
0.0932196
34.5263
0.0468731
34.7138
0
34.902
-0.0473759
35.0909
-0.0952305
35.2805
-0.143539
35.471
-0.192278
35.6623
-0.241421
35.8545
-0.290943
36.0476
-0.340819
36.2416
-0.391023
36.4366
-0.441528
36.6325
-0.492308
36.8295
-0.543336
37.0275
-0.594585
37.2266
-0.646029
37.4267
-0.697641
37.628
-0.749391
37.8304
-0.801254
38.0339
-0.853201
38.2385
-0.905204
38.4443
-0.957236
38.6513
-1.00927
38.8595
-1.06127
39.0689
-1.11322
39.2794
-1.16508
39.4912
-1.21683
39.7042
-1.26844
39.9184
-1.31988
40.1338
-1.37113
40.3505
-1.42215
40.5683
-1.47291
40.7874
-1.52339
41.0076
-1.57356
41.2291
-1.62339
41.4517
-1.67286
41.6758
-1.72193
41.9003
-1.7706
42.128
-1.81874
42.3505
-1.86667
42.594
-1.91325
-1.96196
42.7776
26.8774
1.32967
-26.6926
27.0615
1.31367
27.2443
1.29661
27.426
1.27849
27.6066
1.25932
27.7861
1.2391
27.9647
1.21784
28.1423
1.19553
28.319
1.17219
28.4949
1.14783
28.67
1.12244
28.8444
1.09604
29.0181
1.06864
29.1913
1.04025
29.3639
1.01087
29.5361
0.98052
29.7078
0.94921
29.8791
0.916953
30.0502
0.88376
30.221
0.849645
30.3916
0.814624
30.5621
0.77871
30.7324
0.741919
30.9028
0.704268
31.0732
0.665772
31.2436
0.626449
31.4142
0.586317
31.585
0.545394
31.756
0.503699
31.9273
0.461252
32.0989
0.418071
32.2709
0.374179
32.4433
0.329595
32.6162
0.284341
32.7895
0.238439
32.9635
0.191911
33.138
0.144779
33.3131
0.0970682
33.4889
0.0488003
33.6655
0
33.8428
-0.0493084
34.0208
-0.0991005
34.1997
-0.14935
34.3794
-0.200034
34.56
-0.251124
34.7415
-0.302595
34.9239
-0.354422
35.1073
-0.406575
35.2917
-0.459031
35.4771
-0.51176
35.6635
-0.564736
35.851
-0.617931
36.0396
-0.671317
36.2292
-0.724866
36.42
-0.77855
36.6119
-0.83234
36.805
-0.886208
36.9992
-0.940126
37.1946
-0.994064
37.3911
-1.04799
37.5889
-1.10189
37.7878
-1.15571
37.988
-1.20944
38.1893
-1.26305
38.3919
-1.3165
38.5957
-1.36977
38.8006
-1.42283
39.0068
-1.47565
39.2143
-1.5282
39.4229
-1.58045
39.6327
-1.63237
39.8437
-1.68393
40.0559
-1.73512
40.2694
-1.78588
40.4835
-1.83623
40.7006
-1.88602
40.9129
-1.93558
41.1451
-1.98377
-2.03408
41.3207
26.3328
1.39438
-26.1631
26.502
1.37703
26.6702
1.3586
26.8374
1.33909
27.0037
1.31851
27.1691
1.29686
27.3337
1.27415
27.4976
1.25038
27.6607
1.22555
27.8232
1.19968
27.985
1.17277
28.1464
1.14483
28.3072
1.11587
28.4676
1.0859
28.6276
1.05493
28.7872
1.02297
28.9466
0.990035
29.1058
0.956136
29.2647
0.921287
29.4236
0.885501
29.5824
0.848793
29.7411
0.811179
29.8999
0.772675
30.0588
0.733296
30.2178
0.69306
30.377
0.651985
30.5364
0.610089
30.6961
0.567391
30.856
0.52391
31.0164
0.479666
31.1772
0.43468
31.3384
0.388971
31.5001
0.342563
31.6623
0.295476
31.8251
0.247734
31.9885
0.199359
32.1526
0.150374
32.3173
0.100802
32.4828
0.0506698
32.649
0
32.816
-0.051182
32.9839
-0.102851
33.1526
-0.154981
33.3221
-0.207546
33.4926
-0.260519
33.664
-0.313874
33.8364
-0.367585
34.0098
-0.421622
34.1841
-0.47596
34.3595
-0.53057
34.536
-0.585423
34.7135
-0.640492
34.8921
-0.695748
35.0719
-0.751162
35.2527
-0.806706
35.4347
-0.86235
35.6178
-0.918064
35.8021
-0.973821
35.9876
-1.02959
36.1743
-1.08534
36.3621
-1.14104
36.5512
-1.19667
36.7414
-1.25219
36.9328
-1.30757
37.1255
-1.36279
37.3193
-1.41781
37.5144
-1.47261
37.7107
-1.52715
37.9081
-1.5814
38.1068
-1.63534
38.3067
-1.68894
38.5077
-1.74216
38.7099
-1.79497
38.9134
-1.84735
39.1175
-1.89929
39.3246
-1.95066
39.5271
-2.00178
39.7484
-2.0515
-2.10334
39.9165
25.7872
1.45801
-25.6314
25.9426
1.43931
26.0972
1.41951
26.251
1.39861
26.404
1.37663
26.5564
1.35355
26.7081
1.32939
26.8592
1.30416
27.0097
1.27786
27.1597
1.25049
27.3093
1.22207
27.4585
1.1926
27.6073
1.16209
27.7558
1.13056
27.9041
1.09802
28.0521
1.06447
28.2
1.02993
28.3478
0.994415
28.4956
0.957933
28.6433
0.920502
28.791
0.882137
28.9389
0.842853
29.0868
0.802666
29.235
0.761593
29.3833
0.719652
29.532
0.676862
29.6809
0.633239
29.8302
0.588805
29.9799
0.543579
30.13
0.49758
30.2806
0.450831
30.4317
0.403352
30.5834
0.355167
30.7356
0.306295
30.8885
0.256762
31.042
0.20659
31.1963
0.155804
31.3512
0.104426
31.507
0.0524835
31.6635
0
31.8208
-0.0529985
31.979
-0.106486
32.1381
-0.160436
32.2981
-0.214822
32.459
-0.269617
32.6209
-0.324794
32.7838
-0.380324
32.9477
-0.436181
33.1126
-0.492335
33.2785
-0.548758
33.4456
-0.605422
33.6137
-0.662296
33.7829
-0.719354
33.9532
-0.776564
34.1246
-0.833896
34.2972
-0.891323
34.471
-0.948812
34.6459
-1.00634
34.8219
-1.06386
34.9992
-1.12136
35.1776
-1.1788
35.3573
-1.23616
35.5381
-1.29339
35.7201
-1.35048
35.9033
-1.40738
36.0877
-1.46408
36.2733
-1.52054
36.4601
-1.57672
36.6481
-1.63261
36.8373
-1.68816
37.0277
-1.74335
37.2192
-1.79815
37.4119
-1.85253
37.6059
-1.90645
37.8004
-1.95991
37.9979
-2.01278
38.1911
-2.06538
38.402
-2.11655
-2.16984
38.5629
25.2417
1.52053
-25.0987
25.3844
1.50048
25.5264
1.47931
25.6678
1.45703
25.8086
1.43364
25.9488
1.40915
26.0885
1.38356
26.2278
1.35687
26.3666
1.3291
26.5051
1.30025
26.6433
1.27033
26.7812
1.23935
26.9189
1.20732
27.0564
1.17424
27.1937
1.14014
27.331
1.10503
27.4682
1.06891
27.6054
1.0318
27.7426
0.993711
27.88
0.954662
28.0174
0.914668
28.1551
0.873744
28.2929
0.831906
28.4311