/*--------------------------------*- C++ -*----------------------------------*\
| =========                 |                                                 |
| \\      /  F ield         | OpenFOAM: The Open Source CFD Toolbox           |
|  \\    /   O peration     | Version:  2312                                  |
|   \\  /    A nd           | Website:  www.openfoam.com                      |
|    \\/     M anipulation  |                                                 |
\*---------------------------------------------------------------------------*/
FoamFile
{
    version     2.0;
    format      ascii;
    arch        "LSB;label=32;scalar=64";
    class       surfaceScalarField;
    location    "0.055";
    object      phi;
}
// * * * * * * * * * * * * * * * * * * * * * * * * * * * * * * * * * * * * * //

dimensions      [0 3 -1 0 0 0 0];

oriented        oriented;

internalField   nonuniform List<scalar> 
62015
(
77.6445
0.151497
-77.2597
78.0151
0.149372
78.3719
0.147119
78.7156
0.144741
79.047
0.142242
79.3665
0.139623
79.6747
0.136888
79.9721
0.134039
80.2593
0.131079
80.5366
0.12801
80.8045
0.124835
81.0635
0.121558
81.3139
0.11818
81.556
0.114705
81.7903
0.111136
82.0169
0.107475
82.2364
0.103725
82.4488
0.0998891
82.6545
0.0959701
82.8537
0.0919712
83.0468
0.0878955
83.2338
0.0837454
83.4149
0.0795245
83.5905
0.0752358
83.7606
0.0708821
83.9254
0.0664669
84.0851
0.0619929
84.2397
0.057464
84.3894
0.0528829
84.5344
0.0482529
84.6746
0.0435771
84.8101
0.0388592
84.9411
0.0341027
85.0676
0.02931
85.1895
0.0244858
85.307
0.0196321
85.42
0.0147534
85.5285
0.00985307
85.6325
0.00493375
85.7319
0
85.8268
-0.0049451
85.9168
-0.00989846
86.0023
-0.0148554
86.0834
-0.0198132
86.1576
-0.0247686
86.2256
-0.0297157
86.3008
-0.0346524
86.3643
-0.0395817
86.3532
-0.0444904
86.4445
-0.0493256
86.8326
-0.0542185
86.2495
-0.0593625
84.808
-0.0635607
90.0745
-0.0667649
93.0698
-0.0773226
59.0569
-0.0858559
14.434
-0.047075
0.485046
-0.00618815
-0.000295402
-6.10198e-05
-5.31845e-06
1.7445e-07
1.62028e-08
1.90101e-10
1.55961e-11
-2.70285e-12
-2.2667e-13
5.80484e-15
5.02444e-16
1.6533e-17
1.22269e-18
-1.56519e-19
-1.22191e-20
3.61615e-22
3.16839e-23
1.59584e-24
9.94301e-26
-1.70223e-26
-1.26893e-27
4.70583e-29
4.29541e-30
2.89593e-31
1.59442e-32
-3.61084e-33
-2.62288e-34
1.08707e-35
1.05718e-36
1.08521e-37
5.766e-39
-1.42863e-39
-1.03483e-40
3.5991e-42
4.16992e-43
8.04364e-44
4.46164e-45
-9.7879e-46
-7.31259e-47
4.07299e-49
1.05322e-49
1.89105e-49
75.8426
0.300581
-75.5018
76.1714
0.296236
76.4883
0.291648
76.7939
0.286824
77.0887
0.281767
77.3732
0.276483
77.648
0.270976
77.9134
0.265253
78.1698
0.259317
78.4178
0.253173
78.6575
0.246828
78.8895
0.240286
79.114
0.233553
79.3313
0.226633
79.5418
0.219532
79.7457
0.212255
79.9433
0.204809
80.1349
0.197197
80.3206
0.189427
80.5008
0.181503
80.6755
0.173431
80.8451
0.165217
81.0096
0.156868
81.1693
0.148387
81.3243
0.139783
81.4747
0.13106
81.6207
0.122224
81.7624
0.113283
81.8998
0.104241
82.0332
0.095106
82.1625
0.0858829
82.2879
0.0765788
82.4093
0.0671996
82.5269
0.0577526
82.6406
0.0482433
82.7505
0.0386788
82.8566
0.0290655
82.9589
0.01941
83.0574
0.00971934
83.1519
0
83.2426
-0.00974122
83.3292
-0.0194975
83.4117
-0.0292621
83.4905
-0.0390279
83.5651
-0.0487882
83.6325
-0.058536
83.6984
-0.0682605
83.7729
-0.0779621
83.8107
-0.0876483
83.7962
-0.0972463
84.0166
-0.10671
84.27
-0.116558
83.0315
-0.126451
83.0287
-0.133064
90.7825
-0.142325
82.5938
-0.170732
39.3547
-0.157824
5.4525
-0.0536794
0.054965
-0.00304048
-0.000144697
-3.76509e-06
-1.68735e-07
4.77848e-08
2.10368e-09
-9.26034e-11
-4.17994e-12
-3.09599e-13
-1.2365e-14
2.62796e-15
1.08244e-16
-4.98538e-18
-2.34376e-19
-3.06025e-20
-1.06394e-21
2.69454e-22
1.06853e-23
-5.44759e-25
-2.79924e-26
-5.51459e-27
-1.75393e-28
5.34304e-29
2.08451e-30
-9.97654e-32
-5.99311e-33
-1.95514e-33
-6.03817e-35
1.94972e-35
7.66398e-37
-1.63382e-38
-1.85091e-39
-1.31629e-39
-4.15799e-41
1.19683e-41
4.92605e-43
2.71488e-44
-1.85966e-46
-1.53685e-45
1.0319e-47
-5.19073e-47
74.0715
0.447204
-73.7707
74.362
0.44056
74.6423
0.43357
74.9128
0.426242
75.174
0.418582
75.4263
0.410596
75.6702
0.402292
75.906
0.393677
76.1341
0.384758
76.3547
0.375541
76.5684
0.366035
76.7752
0.356246
76.9757
0.346182
77.1699
0.33585
77.3583
0.325258
77.5409
0.314414
77.7182
0.303325
77.8902
0.291999
78.0572
0.280444
78.2194
0.268669
78.377
0.25668
78.5301
0.244488
78.679
0.232099
78.8236
0.219522
78.9643
0.206767
79.1011
0.193841
79.2341
0.180753
79.3635
0.167512
79.4892
0.154127
79.6115
0.140607
79.7304
0.12696
79.8459
0.113197
79.9581
0.0993261
80.067
0.0853568
80.1727
0.0712978
80.2752
0.0571596
80.3745
0.0429512
80.4705
0.0286817
80.5633
0.0143615
80.6529
0
80.7392
-0.014393
80.8221
-0.0288077
80.9015
-0.0432346
80.9774
-0.0576627
81.0504
-0.0720828
81.1185
-0.0864859
81.1806
-0.100858
81.2475
-0.115188
81.3147
-0.129487
81.3204
-0.14374
81.3535
-0.157774
81.6946
-0.171809
81.5178
-0.186723
79.9664
-0.199877
82.8855
-0.208003
89.2972
-0.23272
65.8086
-0.272293
21.2492
-0.182614
1.29585
-0.0332261
0.00170428
-0.000611798
-1.90854e-05
1.10061e-06
3.39631e-08
4.16203e-09
1.1796e-10
-3.18783e-11
-9.26457e-13
4.84457e-14
1.62866e-15
4.08977e-16
1.0329e-17
-3.04756e-18
-8.57364e-20
3.98098e-21
1.62007e-22
7.15334e-23
1.68381e-24
-5.5711e-25
-1.55692e-26
3.93855e-28
2.72483e-29
2.38211e-29
5.47344e-31
-1.84404e-31
-5.2622e-33
-1.88524e-34
3.98483e-36
1.46361e-35
3.41872e-37
-9.8572e-38
-3.02219e-39
-5.7046e-40
-6.87064e-42
1.5235e-41
3.7446e-43
-6.28267e-44
-1.49546e-45
-2.42376e-45
72.3183
0.591248
-72.0534
72.5743
0.582246
72.8215
0.572805
73.0603
0.562933
73.291
0.552637
73.5141
0.541928
73.73
0.530813
73.9388
0.519301
74.141
0.5074
74.3369
0.49512
74.5266
0.48247
74.7106
0.469459
74.889
0.456096
75.0621
0.442391
75.2301
0.428353
75.3933
0.413993
75.5518
0.399319
75.7059
0.384342
75.8556
0.369072
76.0013
0.353519
76.143
0.337695
76.281
0.321608
76.4153
0.30527
76.5461
0.288692
76.6734
0.271885
76.7975
0.254858
76.9185
0.237625
77.0363
0.220196
77.1511
0.202582
77.263
0.184795
77.3721
0.166846
77.4783
0.148747
77.5818
0.130511
77.6826
0.112148
77.7806
0.0936711
77.876
0.0750921
77.9687
0.056423
78.0588
0.0376766
78.1461
0.0188647
78.2307
0
78.3126
-0.0189051
78.3917
-0.0378379
78.468
-0.0567858
78.5412
-0.0757355
78.6117
-0.0946755
78.6794
-0.113592
78.7417
-0.132473
78.8013
-0.151299
78.87
-0.170064
78.9183
-0.188794
78.9045
-0.207379
79.0481
-0.225634
79.3746
-0.244431
78.5305
-0.26397
77.7125
-0.277813
83.9738
-0.2915
82.2135
-0.343174
45.6407
-0.350296
8.61414
-0.150477
0.167592
-0.0127232
-0.000274768
-4.80467e-05
-1.0804e-06
3.30044e-07
7.65234e-09
-3.97422e-10
-1.06013e-11
-4.59204e-12
-9.34451e-14
2.91695e-14
6.56188e-16
-1.80822e-17
-7.77579e-19
-7.65792e-19
-1.47201e-20
4.84411e-21
1.09339e-22
2.5198e-24
-6.62427e-26
-2.3748e-25
-4.48161e-27
1.42224e-27
3.33967e-29
4.65336e-30
3.61351e-32
-1.32819e-31
-2.54897e-33
6.28433e-34
1.66485e-35
7.08572e-36
9.58889e-38
-1.22712e-37
-2.48393e-39
1.9979e-40
9.9977e-42
1.44639e-41
-1.58599e-43
2.40347e-43
70.5798
0.732602
-70.3472
70.8048
0.7212
71.0223
0.709273
71.2325
0.69683
71.4359
0.683882
71.6326
0.670438
71.8231
0.656509
72.0076
0.642104
72.1864
0.627234
72.3597
0.611909
72.5279
0.59614
72.691
0.579938
72.8494
0.563314
73.0033
0.54628
73.1528
0.528846
73.2982
0.511024
73.4396
0.492827
73.5772
0.474265
73.7113
0.455351
73.8418
0.436098
73.969
0.416518
74.093
0.396623
74.2139
0.376426
74.3319
0.355941
74.4471
0.33518
74.5595
0.314156
74.6693
0.292883
74.7765
0.271374
74.8812
0.249644
74.9835
0.227705
75.0834
0.205572
75.1811
0.183259
75.2764
0.16078
75.3695
0.13815
75.4604
0.115382
75.5491
0.092492
75.6357
0.0694942
75.72
0.0464028
75.8021
0.023233
75.882
0
75.9597
-0.0232813
76.0351
-0.0465961
76.1081
-0.0699288
76.1787
-0.0932637
76.2468
-0.116586
76.3128
-0.139881
76.3757
-0.163133
76.4334
-0.186324
76.4938
-0.209431
76.5603
-0.232469
76.5805
-0.255442
76.587
-0.278088
76.8619
-0.300526
76.9165
-0.324335
75.5427
-0.346755
76.8941
-0.3598
84.056
-0.390775
68.7556
-0.464423
26.8546
-0.366298
2.45592
-0.0916417
0.00959136
-0.00304961
-6.0792e-05
2.99422e-06
6.52323e-08
4.62166e-08
8.01036e-10
-2.48892e-10
-4.78692e-12
-9.9717e-15
2.42912e-15
7.22799e-15
1.19718e-16
-3.6929e-17
-7.20768e-19
-6.98456e-20
-4.38695e-22
2.06626e-21
3.38255e-23
-9.30002e-24
-1.94423e-25
-5.88881e-26
-6.44815e-28
1.04417e-27
1.74639e-29
-3.01586e-30
-7.97572e-32
-6.84611e-32
-8.96003e-34
8.45624e-34
1.50677e-35
8.95772e-37
-2.36143e-38
-1.16204e-37
-1.70987e-39
8.73886e-40
1.11473e-41
1.82427e-41
68.8571
0.871176
-68.6533
69.0543
0.857345
69.2451
0.842911
69.4297
0.827885
69.6083
0.812278
69.7814
0.7961
69.949
0.779363
70.1115
0.762078
70.2692
0.744258
70.4221
0.725913
70.5707
0.707057
70.715
0.687702
70.8552
0.66786
70.9916
0.647544
71.1243
0.626768
71.2535
0.605544
71.3794
0.583886
71.5021
0.561809
71.6217
0.539324
71.7384
0.516448
71.8524
0.493195
71.9637
0.469577
72.0724
0.445612
72.1787
0.421313
72.2826
0.396695
72.3843
0.371774
72.4838
0.346566
72.5812
0.321086
72.6766
0.295349
72.7701
0.269371
72.8616
0.24317
72.9512
0.216761
73.039
0.19016
73.125
0.163385
73.2093
0.136451
73.2918
0.109375
73.3725
0.0821755
73.4515
0.0548683
73.5287
0.0274706
73.6041
0
73.6777
-0.0275262
73.7495
-0.0550907
73.8194
-0.0826754
73.8874
-0.110264
73.9533
-0.137836
74.0173
-0.165376
74.0796
-0.192866
74.138
-0.220289
74.1932
-0.247619
74.2562
-0.274839
74.3119
-0.301989
74.3077
-0.328976
74.3877
-0.355442
74.7222
-0.382291
74.2618
-0.410849
73.0296
-0.433203
77.4056
-0.448733
80.2863
-0.511926
51.6168
-0.564993
12.9464
-0.312236
0.460417
-0.0418665
-0.000392007
-0.000426492
-6.58216e-06
1.9433e-06
3.32382e-08
1.35178e-09
4.85551e-12
-6.19843e-11
-9.17401e-13
2.51933e-13
4.44434e-15
8.92591e-16
8.76992e-18
-1.61571e-17
-2.37973e-19
5.13054e-20
1.02247e-21
5.76709e-22
6.52617e-24
-7.29476e-24
-1.1065e-25
7.81306e-27
3.05069e-28
5.61191e-28
6.96117e-30
-5.06322e-30
-8.34411e-32
-2.17781e-32
-9.02648e-35
8.12697e-34
1.10337e-35
-3.73539e-36
-8.12328e-38
-9.71791e-38
1.52935e-39
-1.05306e-39
67.1523
1.0069
-66.9744
67.3247
0.990627
67.4915
0.973678
67.653
0.956065
67.8095
0.937802
67.9611
0.918899
68.1082
0.899369
68.2509
0.879225
68.3894
0.85848
68.524
0.837148
68.6548
0.815242
68.782
0.792775
68.9059
0.769762
69.0264
0.746217
69.1439
0.722155
69.2584
0.69759
69.3701
0.672538
69.4792
0.647015
69.5857
0.621034
69.6899
0.594614
69.7917
0.567769
69.8913
0.540516
69.9889
0.512871
70.0845
0.484852
70.1781
0.456474
70.27
0.427756
70.3601
0.398715
70.4485
0.369368
70.5353
0.339733
70.6206
0.309828
70.7043
0.279671
70.7866
0.249282
70.8674
0.218676
70.9469
0.187874
71.0249
0.156895
71.1016
0.125757
71.1769
0.0944791
71.2508
0.0630807
71.3234
0.0315814
71.3946
0
71.4644
-0.0316436
71.5328
-0.0633294
71.5996
-0.0950383
71.665
-0.12675
71.7288
-0.158445
71.7908
-0.190103
71.8516
-0.221703
71.9105
-0.253228
71.9653
-0.284655
72.0206
-0.315951
72.0847
-0.347123
72.121
-0.378213
72.1145
-0.408942
72.3031
-0.439134
72.5321
-0.470749
71.5144
-0.502645
71.4676
-0.522414
78.0468
-0.550982
71.4388
-0.650286
34.4932
-0.605608
4.91383
-0.218824
0.0518022
-0.0142888
-0.000220151
-1.95262e-05
-1.75707e-07
4.89437e-07
6.66587e-09
-1.55702e-09
-2.55336e-11
-8.88344e-12
-9.27385e-14
1.15146e-13
1.56921e-15
-2.25754e-16
-4.70871e-18
-4.83599e-18
-5.35917e-20
4.57656e-20
6.49374e-22
3.92859e-23
-6.29629e-25
-4.0586e-24
-4.78574e-26
2.61704e-26
4.18243e-28
2.31207e-28
1.79176e-30
-5.04011e-30
-6.45935e-32
9.18385e-33
2.89713e-34
7.03971e-34
7.42398e-36
-7.64705e-36
-7.04977e-38
-1.14223e-37
65.4681
1.13973
-65.3133
65.6181
1.12101
65.7634
1.10155
65.9042
1.08135
66.0407
1.06044
66.1731
1.03883
66.3016
1.01653
66.4264
0.993556
66.5477
0.969919
66.6657
0.945636
66.7804
0.92072
66.8922
0.895188
67.0011
0.869055
67.1073
0.842336
67.2109
0.815047
67.3121
0.787206
67.411
0.758827
67.5076
0.729928
67.6023
0.700527
67.6949
0.670641
67.7857
0.640287
67.8747
0.609484
67.9621
0.578249
68.0479
0.546601
68.1321
0.514559
68.215
0.482142
68.2965
0.449369
68.3766
0.416259
68.4556
0.382832
68.5333
0.349108
68.6099
0.315106
68.6853
0.280847
68.7597
0.246352
68.833
0.21164
68.9053
0.176733
68.9766
0.141651
69.0468
0.106416
69.116
0.0710476
69.1843
0.0355686
69.2515
0
69.3176
-0.0356368
69.3827
-0.0713201
69.4466
-0.107028
69.5094
-0.142739
69.5711
-0.178431
69.6314
-0.214082
69.6904
-0.24967
69.7485
-0.285171
69.8044
-0.320568
69.8569
-0.35583
69.9141
-0.390926
69.9749
-0.425895
69.9887
-0.460717
70.0153
-0.494916
70.2987
-0.528974
70.2249
-0.565448
68.9311
-0.59799
71.0195
-0.615861
76.9415
-0.673344
58.7047
-0.783603
20.2149
-0.567946
1.41411
-0.127437
0.00207615
-0.00355639
-4.59546e-05
8.86257e-06
1.36507e-07
7.70291e-08
7.96445e-10
-7.52564e-10
-9.7106e-12
6.1145e-13
1.7579e-14
3.62276e-14
3.88737e-16
-2.5834e-16
-3.52155e-18
-8.03656e-19
-3.28729e-21
2.64133e-20
2.98888e-22
-1.12554e-22
-1.8602e-24
-1.87859e-24
-1.634e-26
2.79071e-26
3.4507e-28
3.04622e-29
-6.05688e-31
-4.46472e-30
-4.62972e-32
3.19399e-32
4.93091e-34
5.82243e-34
-1.19249e-35
4.66157e-36
63.8065
1.26964
-63.6725
63.9365
1.24848
64.0625
1.2265
64.1846
1.20374
64.3032
1.18021
64.4182
1.15591
64.53
1.13087
64.6387
1.10509
64.7444
1.0786
64.8473
1.0514
64.9476
1.02353
65.0453
0.994977
65.1408
0.965777
65.2339
0.935941
65.325
0.905487
65.414
0.874433
65.5012
0.842796
65.5867
0.810596
65.6704
0.777849
65.7526
0.744576
65.8334
0.710796
65.9127
0.676527
65.9907
0.641791
66.0676
0.606607
66.1432
0.570994
66.2178
0.534974
66.2914
0.498568
66.3639
0.461797
66.4356
0.424681
66.5064
0.387243
66.5764
0.349504
66.6455
0.311487
66.7139
0.273212
66.7816
0.234703
66.8485
0.195982
66.9148
0.157072
66.9803
0.117996
67.0451
0.0787766
67.1092
0.0394367
67.1726
0
67.2353
-0.0395102
67.2972
-0.0790706
67.3584
-0.118657
67.4187
-0.158246
67.4782
-0.197814
67.5367
-0.237337
67.5943
-0.276791
67.651
-0.316151
67.7069
-0.355395
67.7601
-0.394501
67.8118
-0.433428
67.8716
-0.472161
67.9227
-0.510769
67.9212
-0.549075
68.0153
-0.586554
68.3191
-0.624815
67.8107
-0.665476
66.8213
-0.695523
71.3017
-0.717763
72.6553
-0.817272
44.5285
-0.877913
10.2013
-0.468396
0.298098
-0.0622116
-0.000684687
-0.00060375
-6.11817e-06
4.53242e-06
5.6304e-08
1.56786e-09
-3.84172e-11
-2.47295e-10
-2.57685e-12
1.30725e-12
1.75395e-14
7.94657e-15
5.55312e-17
-1.56124e-16
-1.71637e-18
3.54161e-19
7.00801e-21
1.3022e-20
1.16805e-22
-1.37617e-22
-1.68078e-24
-6.24031e-25
-1.8711e-27
2.52646e-26
2.58143e-28
-9.97732e-29
-1.80721e-30
-3.87584e-30
-3.23049e-32
5.3581e-32
4.46971e-34
6.48803e-34
62.1694
1.39661
-62.054
62.2815
1.37301
62.3901
1.34855
62.4955
1.32324
62.5978
1.2971
62.6973
1.27015
62.794
1.24239
62.8881
1.21385
62.9798
1.18455
63.0691
1.15449
63.1563
1.12369
63.2414
1.09218
63.3245
1.05997
63.4059
1.02707
63.4856
0.993519
63.5636
0.959318
63.6402
0.924493
63.7154
0.889063
63.7893
0.853047
63.862
0.816467
63.9335
0.779342
64.004
0.741693
64.0736
0.703542
64.1422
0.66491
64.21
0.62582
64.277
0.586292
64.3433
0.54635
64.4089
0.506017
64.4739
0.465314
64.5383
0.424265
64.6022
0.382894
64.6655
0.341225
64.7284
0.29928
64.7908
0.257083
64.8528
0.21466
64.9143
0.172035
64.9754
0.129231
65.0361
0.0862742
65.0964
0.0431886
65.1562
0
65.2156
-0.0432669
65.2745
-0.0865874
65.3329
-0.129935
65.3908
-0.173285
65.4482
-0.216612
65.505
-0.25989
65.561
-0.303093
65.6164
-0.346196
65.6713
-0.389171
65.7253
-0.431998
65.7765
-0.474646
65.8289
-0.517071
65.89
-0.559286
65.9263
-0.601358
65.9264
-0.642877
66.1049
-0.683604
66.3112
-0.726398
65.3871
-0.769524
65.4056
-0.795159
71.4179
-0.833786
65.0682
-0.973437
31.1648
-0.905826
4.36801
-0.343994
0.0433276
-0.0255816
-0.000305746
-4.12551e-05
-1.40675e-07
1.54968e-06
1.58397e-08
-5.87902e-09
-7.94742e-11
-6.20713e-11
-4.87514e-13
8.40401e-13
9.10136e-15
-2.65978e-16
-1.93791e-17
-8.02234e-17
-7.24838e-19
5.96264e-19
7.40755e-21
5.52447e-21
3.34024e-23
-1.28542e-22
-1.30527e-24
1.12312e-25
5.02335e-27
2.24209e-26
1.92082e-28
-2.05609e-28
-2.60765e-30
-3.42491e-30
8.16371e-32
-2.24412e-32
60.5585
1.52064
-60.4598
60.6544
1.49462
60.7474
1.46769
60.8378
1.43986
60.9255
1.41115
61.0109
1.38157
61.094
1.35114
61.175
1.31987
61.254
1.2878
61.331
1.25492
61.4064
1.22126
61.48
1.18684
61.5521
1.15167
61.6228
1.11578
61.6921
1.07919
61.7602
1.04191
61.8271
1.00396
61.893
0.965377
61.9579
0.926168
62.0219
0.886359
62.0851
0.84597
62.1476
0.805025
62.2093
0.763546
62.2705
0.721556
62.331
0.679078
62.3911
0.636137
62.4508
0.592754
62.51
0.548955
62.5689
0.504764
62.6274
0.460206
62.6856
0.415306
62.7436
0.370088
62.8014
0.324578
62.8589
0.278801
62.9163
0.232784
62.9734
0.186552
63.0304
0.140131
63.0872
0.0935478
63.1439
0.0468285
63.2003
0
63.2566
-0.0469111
63.3126
-0.093878
63.3684
-0.140873
63.424
-0.187871
63.4792
-0.234842
63.5342
-0.281761
63.5888
-0.328601
63.6429
-0.375332
63.6966
-0.421928
63.7501
-0.468362
63.8025
-0.51461
63.8524
-0.560635
63.9068
-0.606394
63.966
-0.651942
63.9865
-0.697274
64.0103
-0.741752
64.2605
-0.785875
64.249
-0.833225
63.1058
-0.87624
64.6934
-0.898549
70.343
-0.968261
55.2591
-1.12161
20.0843
-0.862491
1.57597
-0.228574
0.00270416
-0.00888127
-9.06398e-05
2.31371e-05
3.23157e-07
4.23459e-07
3.45255e-09
-4.11765e-09
-4.45262e-11
-7.41097e-12
9.41514e-15
4.47021e-13
4.05259e-15
-2.1935e-15
-2.90259e-17
-3.78007e-17
-2.66966e-19
5.87887e-19
6.01114e-21
1.4252e-21
-4.95664e-24
-1.15529e-22
-1.0051e-24
6.23726e-25
9.03787e-27
2.06848e-26
1.47112e-28
-3.24831e-28
-3.07875e-30
-3.44377e-30
58.9749
1.64172
-58.8912
59.0563
1.61331
59.1353
1.58393
59.2121
1.55361
59.2868
1.52236
59.3596
1.49019
59.4304
1.45713
59.4995
1.42319
59.5671
1.38838
59.6331
1.35274
59.6976
1.31627
59.7609
1.27899
59.823
1.24093
59.884
1.20211
59.944
1.16254
60.003
1.12225
60.0612
1.08126
60.1186
1.03959
60.1753
0.99726
60.2315
0.954299
60.287
0.910727
60.3421
0.866569
60.3968
0.821847
60.4511
0.776586
60.5051
0.730811
60.5588
0.684546
60.6124
0.637816
60.6657
0.590647
60.7189
0.543065
60.7721
0.495096
60.8251
0.446766
60.8782
0.398101
60.9312
0.349129
60.9842
0.299875
61.0373
0.250369
61.0904
0.200636
61.1435
0.150705
61.1967
0.100603
61.2499
0.0503591
61.3031
0
61.3564
-0.0504454
61.4097
-0.100949
61.463
-0.151482
61.5163
-0.202016
61.5695
-0.252523
61.6227
-0.302972
61.6757
-0.353337
61.7286
-0.403587
61.7811
-0.453695
61.8336
-0.503629
61.886
-0.553364
61.937
-0.602873
61.9866
-0.65211
62.0433
-0.701045
62.0972
-0.749772
62.1057
-0.798133
62.1731
-0.845385
62.4533
-0.893168
62.1463
-0.944529
61.1142
-0.984723
64.4433
-1.00872
67.4375
-1.12111
44.7287
-1.23815
11.9145
-0.765901
0.479717
-0.139791
-0.00115395
-0.00259377
-2.16538e-05
1.84025e-05
2.00309e-07
8.13102e-08
3.75704e-10
-2.26587e-09
-2.07235e-11
6.19932e-12
9.72986e-14
2.22516e-13
1.6713e-15
-2.39896e-15
-2.51441e-17
-1.55451e-17
-6.08472e-20
5.35495e-19
4.73408e-21
-1.05985e-21
-2.50009e-23
-1.08012e-22
-8.12153e-25
1.10682e-24
1.25491e-26
2.06188e-26
-5.03791e-28
1.22475e-28
57.4197
1.75987
-57.3495
57.4881
1.7291
57.5546
1.69731
57.6192
1.66453
57.6821
1.63077
57.7434
1.59606
57.8033
1.56041
57.8617
1.52383
57.9189
1.48635
57.9749
1.44799
58.0298
1.40876
58.0837
1.36869
58.1368
1.32779
58.189
1.2861
58.2404
1.24362
58.2913
1.20039
58.3415
1.15642
58.3913
1.11174
58.4406
1.06637
58.4895
1.02033
58.5381
0.973659
58.5865
0.926369
58.6347
0.878488
58.6828
0.830042
58.7308
0.781057
58.7787
0.731558
58.8266
0.681573
58.8746
0.631127
58.9226
0.580248
58.9708
0.528964
59.0191
0.477301
59.0675
0.425289
59.1162
0.372954
59.165
0.320325
59.2141
0.267431
59.2634
0.214301
59.3129
0.160964
59.3627
0.107448
59.4127
0.0537838
59.4629
0
59.5134
-0.0538735
59.5641
-0.107807
59.615
-0.161771
59.666
-0.215734
59.7173
-0.269668
59.7686
-0.323542
59.8201
-0.377325
59.8716
-0.430988
59.9231
-0.4845
59.9745
-0.537831
60.0261
-0.590949
60.0777
-0.643828
60.1276
-0.696438
60.1778
-0.748723
60.2363
-0.800681
60.2821
-0.852422
60.2866
-0.903572
60.4085
-0.953511
60.6596
-1.00521
60.0505
-1.05939
59.4997
-1.09488
64.2381
-1.12895
62.7163
-1.28629
34.7395
-1.30683
6.53976
-0.644225
0.123288
-0.0801336
-0.000828402
-0.000603862
-3.70794e-06
1.04497e-05
9.7289e-08
-7.37024e-09
-2.50131e-10
-1.16909e-09
-9.09186e-12
8.59098e-12
9.46183e-14
1.06397e-13
6.07398e-16
-2.23493e-15
-2.02349e-17
-3.33741e-18
3.88458e-20
5.01542e-19
3.90852e-21
-2.98579e-21
-3.93588e-23
-1.09927e-22
-7.14186e-25
1.73923e-24
2.27077e-26
1.71247e-26
55.8938
1.87512
-55.8355
55.9505
1.84201
56.0057
1.80784
56.0594
1.77264
56.1117
1.73642
56.1627
1.69921
56.2127
1.66101
56.2615
1.62184
56.3093
1.58174
56.3563
1.54071
56.4025
1.49878
56.448
1.45597
56.4928
1.41231
56.5371
1.3678
56.5809
1.32248
56.6242
1.27637
56.6673
1.2295
56.7101
1.18188
56.7526
1.13354
56.795
1.08451
56.8374
1.03481
56.8796
0.984469
56.9219
0.933512
56.9643
0.881965
57.0068
0.829856
57.0494
0.777211
57.0922
0.72406
57.1352
0.670427
57.1785
0.616344
57.2221
0.561839
57.266
0.506939
57.3102
0.451674
57.3548
0.396074
57.3997
0.340168
57.4451
0.283987
57.4908
0.22756
57.537
0.170916
57.5836
0.114088
57.6306
0.057106
57.678
0
57.7258
-0.0571986
57.774
-0.114459
57.8225
-0.17175
57.8715
-0.229039
57.9207
-0.286297
57.9703
-0.34349
58.0202
-0.400588
58.0703
-0.45756
58.1207
-0.514373
58.1712
-0.570997
58.2218
-0.627398
58.2728
-0.683546
58.3237
-0.739413
58.3729
-0.794963
58.4243
-0.850137
58.4835
-0.90497
58.5199
-0.959546
58.5306
-1.01325
58.7058
-1.06589
58.8683
-1.12159
58.0237
-1.17696
58.2597
-1.20741
63.651
-1.26145
56.7264
-1.4531
26.0823
-1.32536
3.36325
-0.522498
0.0255341
-0.0439662
-0.000418687
-6.41964e-05
2.43049e-07
5.54747e-06
4.45122e-08
-2.60361e-08
-3.14352e-10
-5.97547e-10
-3.85947e-12
8.35308e-12
7.8452e-14
4.63684e-14
1.17082e-16
-2.09233e-15
-1.68486e-17
4.50865e-18
9.84351e-20
5.08947e-19
3.53572e-21
-5.07576e-21
-5.51779e-23
-1.26397e-22
2.78578e-24
-7.35127e-25
54.3977
1.98748
-54.3502
54.4439
1.95207
54.489
1.91556
54.5328
1.87798
54.5756
1.83934
54.6175
1.79967
54.6585
1.75897
54.6986
1.71727
54.7381
1.67459
54.7769
1.63096
54.8152
1.58638
54.8531
1.5409
54.8905
1.49452
54.9276
1.44727
54.9644
1.39917
55.0011
1.35025
55.0376
1.30054
55.074
1.25005
55.1105
1.19882
55.147
1.14687
55.1835
1.09423
55.2203
1.04091
55.2572
0.98696
55.2943
0.932395
55.3318
0.877247
55.3695
0.821542
55.4076
0.765311
55.4461
0.708582
55.485
0.651385
55.5244
0.593748
55.5642
0.535704
55.6046
0.477281
55.6454
0.418511
55.6868
0.359423
55.7287
0.30005
55.7711
0.240422
55.8142
0.180572
55.8577
0.12053
55.9019
0.0603286
55.9466
0
55.9919
-0.0604238
56.0377
-0.12091
56.084
-0.181427
56.1309
-0.241942
56.1783
-0.302423
56.2261
-0.362836
56.2744
-0.423149
56.3232
-0.483329
56.3723
-0.543343
56.4218
-0.60316
56.4715
-0.662744
56.5216
-0.722065
56.5722
-0.781089
56.6225
-0.839788
56.6715
-0.89812
56.7245
-0.956026
56.7829
-1.01358
56.8107
-1.07081
56.8366
-1.12687
57.0533
-1.18227
57.0838
-1.24182
56.1199
-1.29663
57.3063
-1.32353
62.4117
-1.4063
50.2203
-1.61016
19.1069
-1.30432
1.65373
-0.416345
0.00256272
-0.023683
-0.000198211
6.00333e-05
8.86131e-07
2.94482e-06
2.02878e-08
-2.76691e-08
-2.74038e-10
-3.08738e-10
-1.50297e-12
7.84566e-12
6.56706e-14
1.28691e-14
-1.38484e-16
-2.0978e-15
-1.5287e-17
1.11916e-17
1.50281e-19
5.79922e-19
3.63346e-21
-8.08081e-21
-1.67666e-22
-7.82552e-23
52.9319
2.09699
-52.8941
52.9688
2.05931
53.0047
2.02051
53.0398
1.98059
53.0741
1.93957
53.1076
1.89748
53.1405
1.85434
53.1729
1.81015
53.2048
1.76496
53.2364
1.71877
53.2676
1.67161
53.2985
1.6235
53.3292
1.57447
53.3598
1.52454
53.3904
1.47373
53.421
1.42208
53.4516
1.3696
53.4823
1.31632
53.5132
1.26226
53.5443
1.20746
53.5756
1.15195
53.6073
1.09574
53.6393
1.03887
53.6717
0.981373
53.7046
0.923267
53.7379
0.864586
53.7717
0.805362
53.806
0.745622
53.8409
0.685398
53.8764
0.624721
53.9125
0.563621
53.9492
0.502131
53.9866
0.440282
54.0246
0.378106
54.0633
0.315635
54.1027
0.252902
54.1428
0.189938
54.1836
0.126778
54.225
0.0634546
54.2672
0
54.3101
-0.0635519
54.3536
-0.127168
54.3978
-0.190814
54.4427
-0.254457
54.4882
-0.318062
54.5344
-0.381597
54.5811
-0.445026
54.6285
-0.508318
54.6763
-0.571436
54.7247
-0.634348
54.7736
-0.69702
54.8228
-0.759417
54.8726
-0.821506
54.9229
-0.883253
54.9729
-0.944631
55.022
-1.00559
55.0767
-1.06607
55.1332
-1.1262
55.1544
-1.18588
55.2016
-1.24414
55.4413
-1.30238
55.3212
-1.36536
54.3688
-1.41816
56.5013
-1.44436
60.4843
-1.56127
43.8756
-1.74971
13.826
-1.261
0.798786
-0.332244
-0.0018856
-0.0129098
-9.42047e-05
8.00956e-05
8.52288e-07
1.625e-06
9.39553e-09
-2.63028e-08
-2.31335e-10
-1.59877e-10
-3.74319e-13
7.75503e-12
5.91573e-14
-9.22784e-15
-3.11266e-16
-2.33721e-15
-1.56545e-17
1.89877e-17
2.15891e-19
7.62479e-19
-1.32805e-20
4.51251e-21
51.4968
2.20368
-51.4676
51.5253
2.16378
51.5531
2.12272
51.5802
2.0805
51.6068
2.03716
51.633
1.9927
51.6587
1.94716
51.6841
1.90054
51.7092
1.85288
51.7341
1.80419
51.7589
1.75451
51.7836
1.70384
51.8083
1.65222
51.8331
1.59967
51.858
1.54622
51.883
1.49189
51.9083
1.43671
51.9338
1.38071
51.9596
1.3239
51.9859
1.26633
52.0125
1.20802
52.0395
1.149
52.0671
1.08929
52.0952
1.02894
52.1238
0.967954
52.1531
0.90638
52.1829
0.844245
52.2135
0.781578
52.2447
0.718414
52.2766
0.654782
52.3093
0.590716
52.3427
0.526247
52.3768
0.461409
52.4118
0.396234
52.4475
0.330756
52.484
0.265009
52.5214
0.199025
52.5595
0.13284
52.5985
0.0664869
52.6382
0
52.6788
-0.0665861
52.7202
-0.133237
52.7624
-0.199917
52.8054
-0.266593
52.8491
-0.333229
52.8936
-0.399791
52.9388
-0.466243
52.9847
-0.53255
53.0313
-0.598679
53.0785
-0.664593
53.1264
-0.730257
53.1748
-0.795638
53.2238
-0.860699
53.2733
-0.925406
53.3236
-0.989725
53.3734
-1.05363
53.4229
-1.11705
53.479
-1.17997
53.5329
-1.24251
53.5505
-1.30445
53.6211
-1.36478
53.8647
-1.42588
53.6003
-1.49171
52.77
-1.54164
55.7041
-1.57053
58.0347
-1.72252
38.1675
-1.87015
10.0377
-1.21322
0.391352
-0.2707
-0.00232265
-0.00736791
-4.67408e-05
7.84379e-05
7.31953e-07
9.62427e-07
4.37622e-09
-2.5658e-08
-2.06309e-10
-7.90739e-11
2.45081e-13
8.40521e-12
5.94903e-14
-2.78724e-14
-4.79004e-16
-2.96423e-15
-1.85845e-17
3.028e-17
1.16485e-18
3.13163e-19
50.0925
2.30759
-50.0711
50.1135
2.26552
50.134
2.22224
50.1541
2.17777
50.1738
2.13214
50.1933
2.08537
50.2125
2.03748
50.2316
1.98848
50.2507
1.93841
50.2696
1.88728
50.2887
1.83512
50.3078
1.78196
50.3271
1.72781
50.3466
1.67271
50.3663
1.61668
50.3864
1.55974
50.4068
1.50193
50.4277
1.44327
50.4489
1.38379
50.4707
1.32352
50.493
1.26249
50.5159
1.20073
50.5394
1.13826
50.5636
1.07512
50.5884
1.01134
50.6139
0.946956
50.6402
0.881992
50.6672
0.816482
50.6951
0.75046
50.7237
0.683958
50.7532
0.61701
50.7835
0.54965
50.8147
0.481909
50.8468
0.413824
50.8798
0.345427
50.9136
0.276755
50.9484
0.207841
50.9841
0.13872
51.0207
0.0694283
51.0582
0
51.0966
-0.069529
51.1359
-0.139123
51.1762
-0.208746
51.2173
-0.278363
51.2593
-0.347938
51.3021
-0.417435
51.3458
-0.486818
51.3903
-0.55605
51.4356
-0.625097
51.4817
-0.693921
51.5285
-0.762488
51.576
-0.830761
51.6242
-0.898704
51.673
-0.966282
51.7226
-1.03346
51.7728
-1.1002
51.8226
-1.16648
51.8727
-1.23222
51.9299
-1.29741
51.9811
-1.36222
51.9977
-1.42625
52.0902
-1.48855
52.3228
-1.55243
51.939
-1.62049
51.2985
-1.66734
54.8103
-1.70185
55.3357
-1.88579
33.3635
-1.9758
7.4449
-1.17578
0.2014
-0.229531
-0.00206738
-0.00456838
-2.49794e-05
7.56347e-05
6.46696e-07
6.3497e-07
1.94298e-09
-2.70098e-08
-2.02563e-10
-3.33504e-11
6.71823e-13
1.02277e-11
6.84051e-14
-4.7444e-14
-6.96154e-16
-4.33622e-15
4.90766e-17
-2.65309e-17
48.7192
2.40877
-48.7047
48.7335
2.36456
48.7475
2.31911
48.7613
2.27244
48.7748
2.22458
48.7883
2.17554
48.8018
2.12535
48.8152
2.07403
48.8288
2.0216
48.8425
1.96809
48.8563
1.91352
48.8704
1.85791
48.8848
1.8013
48.8996
1.7437
48.9147
1.68516
48.9303
1.62568
48.9463
1.56531
48.9629
1.50406
48.98
1.44197
48.9978
1.37907
49.0162
1.31539
49.0353
1.25096
49.0551
1.18581
49.0757
1.11997
49.097
1.05347
49.1192
0.986349
49.1422
0.918635
49.166
0.850363
49.1907
0.781565
49.2164
0.712276
49.2429
0.642529
49.2704
0.572359
49.2989
0.501802
49.3283
0.430891
49.3587
0.359662
49.3901
0.288151
49.4225
0.216393
49.4558
0.144425
49.4902
0.0722814
49.5256
0
49.562
-0.0723833
49.5993
-0.144832
49.6377
-0.217309
49.677
-0.289779
49.7173
-0.362204
49.7586
-0.434546
49.8008
-0.50677
49.8439
-0.578839
49.8879
-0.650715
49.9327
-0.722361
49.9785
-0.793742
50.025
-0.864819
50.0724
-0.935557
50.1205
-1.00592
50.1692
-1.07587
50.2188
-1.14537
50.2692
-1.21438
50.319
-1.28288
50.3699
-1.35079
50.4278
-1.41812
50.4767
-1.48502
50.4944
-1.55097
50.6045
-1.61515
50.8179
-1.68165
50.3492
-1.75142
49.9151
-1.79555
53.7689
-1.83739
52.6718
-2.04754
29.5724
-2.07496
5.75078
-1.15987
0.112974
-0.206189
-0.0018126
-0.00320641
-1.49007e-05
7.7209e-05
6.18661e-07
4.96533e-07
7.13101e-10
-3.14545e-08
-2.24189e-10
-1.2708e-11
1.04804e-12
1.41327e-11
9.1106e-14
-6.84753e-14
-7.27413e-15
-9.73734e-16
47.3769
2.50726
-47.3685
47.3852
2.46095
47.3934
2.41338
47.4015
2.36455
47.4096
2.31451
47.4177
2.26325
47.426
2.21082
47.4344
2.15722
47.443
2.10249
47.4519
2.04665
47.4611
1.98973
47.4707
1.93174
47.4807
1.87273
47.4912
1.8127
47.5022
1.7517
47.5137
1.68975
47.5258
1.62688
47.5386
1.56312
47.552
1.49849
47.5661
1.43303
47.581
1.36677
47.5966
1.29975
47.6131
1.23198
47.6304
1.16351
47.6486
1.09437
47.6676
1.02459
47.6876
0.954206
47.7085
0.883249
47.7304
0.811754
47.7533
0.739757
47.7771
0.667293
47.802
0.594397
47.8279
0.521103
47.8549
0.44745
47.8829
0.373472
47.912
0.299207
47.9421
0.224689
47.9733
0.149958
48.0056
0.0750491
48.039
0
48.0734
-0.075152
48.1089
-0.150369
48.1455
-0.225615
48.1831
-0.30085
48.2218
-0.376038
48.2615
-0.45114
48.3022
-0.52612
48.3439
-0.600937
48.3866
-0.675557
48.4303
-0.74994
48.4749
-0.824049
48.5204
-0.897845
48.5668
-0.971292
48.6141
-1.04435
48.6622
-1.11699
48.711
-1.18916
48.7608
-1.26084
48.8113
-1.33198
48.8614
-1.40255
48.9129
-1.47248
48.9713
-1.54179
49.0187
-1.61063
49.0386
-1.67838
49.1606
-1.74432
49.3538
-1.81318
48.8364
-1.88433
48.5791
-1.92649
52.575
-1.97572
50.2764
-2.20551
26.8037
-2.17735
4.71273
-1.174
0.0719341
-0.19919
-0.0016866
-0.00266912
-1.05362e-05
8.58471e-05