/*--------------------------------*- C++ -*----------------------------------*\
| =========                 |                                                 |
| \\      /  F ield         | OpenFOAM: The Open Source CFD Toolbox           |
|  \\    /   O peration     | Version:  2312                                  |
|   \\  /    A nd           | Website:  www.openfoam.com                      |
|    \\/     M anipulation  |                                                 |
\*---------------------------------------------------------------------------*/
FoamFile
{
    version     2.0;
    format      ascii;
    arch        "LSB;label=32;scalar=64";
    class       volVectorField;
    location    "0.554";
    object      U;
}
// * * * * * * * * * * * * * * * * * * * * * * * * * * * * * * * * * * * * * //

dimensions      [0 1 -1 0 0 0 0];

internalField   nonuniform List<vector> 
31205
(
(255.293 0 0)
(253.336 0 0)
(251.317 0 0)
(249.233 0 0)
(247.082 0 0)
(244.86 0 0)
(242.563 0 0)
(240.187 0 0)
(237.728 0 0)
(235.18 0 0)
(232.538 0 0)
(229.794 0 0)
(226.942 0 0)
(223.973 0 0)
(220.877 0 0)
(217.642 0 0)
(214.254 0 0)
(210.699 0 0)
(206.955 0 0)
(203 0 0)
(198.803 0 0)
(194.33 0 0)
(189.532 0 0)
(184.348 0 0)
(178.695 0 0)
(172.453 0 0)
(165.462 0 0)
(157.572 0 0)
(148.799 0 0)
(139.514 0 0)
(130.444 0 0)
(122.396 0 0)
(115.898 0 0)
(111.063 0 0)
(107.702 0 0)
(105.508 0 0)
(104.183 0 0)
(103.486 0 0)
(103.241 0 0)
(103.324 0 0)
(103.647 0 0)
(104.151 0 0)
(104.791 0 0)
(105.538 0 0)
(106.368 0 0)
(107.264 0 0)
(108.214 0 0)
(109.207 0 0)
(110.235 0 0)
(111.294 0 0)
(112.376 0 0)
(113.479 0 0)
(114.598 0 0)
(115.732 0 0)
(116.878 0 0)
(118.033 0 0)
(119.197 0 0)
(120.367 0 0)
(121.543 0 0)
(122.723 0 0)
(123.907 0 0)
(125.094 0 0)
(126.283 0 0)
(127.473 0 0)
(128.664 0 0)
(129.855 0 0)
(131.046 0 0)
(132.237 0 0)
(133.428 0 0)
(134.617 0 0)
(135.805 0 0)
(136.992 0 0)
(138.177 0 0)
(139.359 0 0)
(140.544 0 0)
(141.71 0 0)
(142.928 0 0)
(143.973 0 0)
(145.542 0 0)
(253.212 0 0)
(251.251 0 0)
(249.23 0 0)
(247.145 0 0)
(244.993 0 0)
(242.771 0 0)
(240.476 0 0)
(238.102 0 0)
(235.645 0 0)
(233.101 0 0)
(230.463 0 0)
(227.724 0 0)
(224.877 0 0)
(221.914 0 0)
(218.823 0 0)
(215.595 0 0)
(212.213 0 0)
(208.663 0 0)
(204.924 0 0)
(200.973 0 0)
(196.779 0 0)
(192.304 0 0)
(187.501 0 0)
(182.306 0 0)
(176.633 0 0)
(170.359 0 0)
(163.326 0 0)
(155.415 0 0)
(146.699 0 0)
(137.603 0 0)
(128.855 0 0)
(121.198 0 0)
(115.072 0 0)
(110.533 0 0)
(107.38 0 0)
(105.316 0 0)
(104.063 0 0)
(103.399 0 0)
(103.162 0 0)
(103.236 0 0)
(103.54 0 0)
(104.017 0 0)
(104.627 0 0)
(105.339 0 0)
(106.133 0 0)
(106.992 0 0)
(107.903 0 0)
(108.857 0 0)
(109.847 0 0)
(110.866 0 0)
(111.909 0 0)
(112.972 0 0)
(114.053 0 0)
(115.147 0 0)
(116.254 0 0)
(117.371 0 0)
(118.496 0 0)
(119.629 0 0)
(120.767 0 0)
(121.909 0 0)
(123.056 0 0)
(124.206 0 0)
(125.357 0 0)
(126.511 0 0)
(127.666 0 0)
(128.821 0 0)
(129.977 0 0)
(131.133 0 0)
(132.288 0 0)
(133.443 0 0)
(134.596 0 0)
(135.748 0 0)
(136.9 0 0)
(138.048 0 0)
(139.199 0 0)
(140.331 0 0)
(141.515 0 0)
(142.532 0 0)
(144.053 0 0)
(251.021 0 0)
(249.056 0 0)
(247.031 0 0)
(244.943 0 0)
(242.789 0 0)
(240.565 0 0)
(238.269 0 0)
(235.894 0 0)
(233.438 0 0)
(230.894 0 0)
(228.256 0 0)
(225.518 0 0)
(222.673 0 0)
(219.71 0 0)
(216.62 0 0)
(213.392 0 0)
(210.01 0 0)
(206.458 0 0)
(202.716 0 0)
(198.758 0 0)
(194.555 0 0)
(190.066 0 0)
(185.242 0 0)
(180.017 0 0)
(174.3 0 0)
(167.964 0 0)
(160.863 0 0)
(152.917 0 0)
(144.269 0 0)
(135.401 0 0)
(127.034 0 0)
(119.827 0 0)
(114.123 0 0)
(109.922 0 0)
(107.005 0 0)
(105.094 0 0)
(103.931 0 0)
(103.314 0 0)
(103.095 0 0)
(103.168 0 0)
(103.458 0 0)
(103.913 0 0)
(104.496 0 0)
(105.177 0 0)
(105.937 0 0)
(106.761 0 0)
(107.635 0 0)
(108.553 0 0)
(109.504 0 0)
(110.485 0 0)
(111.49 0 0)
(112.516 0 0)
(113.558 0 0)
(114.615 0 0)
(115.684 0 0)
(116.763 0 0)
(117.851 0 0)
(118.946 0 0)
(120.047 0 0)
(121.153 0 0)
(122.263 0 0)
(123.377 0 0)
(124.493 0 0)
(125.611 0 0)
(126.73 0 0)
(127.851 0 0)
(128.972 0 0)
(130.093 0 0)
(131.213 0 0)
(132.334 0 0)
(133.454 0 0)
(134.572 0 0)
(135.69 0 0)
(136.805 0 0)
(137.923 0 0)
(139.023 0 0)
(140.172 0 0)
(141.163 0 0)
(142.634 0 0)
(248.781 0 0)
(246.812 0 0)
(244.782 0 0)
(242.691 0 0)
(240.534 0 0)
(238.308 0 0)
(236.009 0 0)
(233.632 0 0)
(231.174 0 0)
(228.629 0 0)
(225.99 0 0)
(223.251 0 0)
(220.404 0 0)
(217.44 0 0)
(214.348 0 0)
(211.116 0 0)
(207.729 0 0)
(204.171 0 0)
(200.419 0 0)
(196.449 0 0)
(192.228 0 0)
(187.715 0 0)
(182.859 0 0)
(177.59 0 0)
(171.811 0 0)
(165.396 0 0)
(158.213 0 0)
(150.235 0 0)
(141.681 0 0)
(133.083 0 0)
(125.135 0 0)
(118.404 0 0)
(113.139 0 0)
(109.283 0 0)
(106.611 0 0)
(104.859 0 0)
(103.792 0 0)
(103.228 0 0)
(103.032 0 0)
(103.108 0 0)
(103.389 0 0)
(103.826 0 0)
(104.384 0 0)
(105.037 0 0)
(105.767 0 0)
(106.557 0 0)
(107.398 0 0)
(108.28 0 0)
(109.195 0 0)
(110.14 0 0)
(111.109 0 0)
(112.097 0 0)
(113.103 0 0)
(114.123 0 0)
(115.156 0 0)
(116.198 0 0)
(117.25 0 0)
(118.309 0 0)
(119.374 0 0)
(120.445 0 0)
(121.519 0 0)
(122.597 0 0)
(123.678 0 0)
(124.762 0 0)
(125.847 0 0)
(126.933 0 0)
(128.019 0 0)
(129.107 0 0)
(130.194 0 0)
(131.281 0 0)
(132.367 0 0)
(133.453 0 0)
(134.538 0 0)
(135.62 0 0)
(136.706 0 0)
(137.775 0 0)
(138.89 0 0)
(139.854 0 0)
(141.279 0 0)
(246.52 0 0)
(244.546 0 0)
(242.513 0 0)
(240.418 0 0)
(238.258 0 0)
(236.029 0 0)
(233.728 0 0)
(231.35 0 0)
(228.89 0 0)
(226.342 0 0)
(223.702 0 0)
(220.961 0 0)
(218.111 0 0)
(215.143 0 0)
(212.047 0 0)
(208.81 0 0)
(205.416 0 0)
(201.848 0 0)
(198.084 0 0)
(194.097 0 0)
(189.854 0 0)
(185.311 0 0)
(180.416 0 0)
(175.092 0 0)
(169.241 0 0)
(162.737 0 0)
(155.475 0 0)
(147.487 0 0)
(139.066 0 0)
(130.779 0 0)
(123.276 0 0)
(117.025 0 0)
(112.188 0 0)
(108.664 0 0)
(106.226 0 0)
(104.627 0 0)
(103.654 0 0)
(103.142 0 0)
(102.97 0 0)
(103.052 0 0)
(103.325 0 0)
(103.746 0 0)
(104.282 0 0)
(104.909 0 0)
(105.609 0 0)
(106.368 0 0)
(107.176 0 0)
(108.024 0 0)
(108.906 0 0)
(109.815 0 0)
(110.749 0 0)
(111.702 0 0)
(112.672 0 0)
(113.657 0 0)
(114.654 0 0)
(115.662 0 0)
(116.678 0 0)
(117.702 0 0)
(118.732 0 0)
(119.768 0 0)
(120.808 0 0)
(121.852 0 0)
(122.899 0 0)
(123.948 0 0)
(124.999 0 0)
(126.052 0 0)
(127.105 0 0)
(128.16 0 0)
(129.214 0 0)
(130.268 0 0)
(131.322 0 0)
(132.376 0 0)
(133.429 0 0)
(134.479 0 0)
(135.533 0 0)
(136.571 0 0)
(137.654 0 0)
(138.59 0 0)
(139.973 0 0)
(244.249 0 0)
(242.271 0 0)
(240.234 0 0)
(238.136 0 0)
(235.974 0 0)
(233.743 0 0)
(231.439 0 0)
(229.059 0 0)
(226.597 0 0)
(224.048 0 0)
(221.405 0 0)
(218.661 0 0)
(215.808 0 0)
(212.836 0 0)
(209.735 0 0)
(206.491 0 0)
(203.088 0 0)
(199.509 0 0)
(195.73 0 0)
(191.723 0 0)
(187.454 0 0)
(182.877 0 0)
(177.936 0 0)
(172.552 0 0)
(166.62 0 0)
(160.025 0 0)
(152.696 0 0)
(144.731 0 0)
(136.489 0 0)
(128.552 0 0)
(121.507 0 0)
(115.727 0 0)
(111.297 0 0)
(108.085 0 0)
(105.865 0 0)
(104.409 0 0)
(103.523 0 0)
(103.06 0 0)
(102.911 0 0)
(102.997 0 0)
(103.264 0 0)
(103.67 0 0)
(104.185 0 0)
(104.787 0 0)
(105.459 0 0)
(106.188 0 0)
(106.965 0 0)
(107.78 0 0)
(108.629 0 0)
(109.505 0 0)
(110.404 0 0)
(111.323 0 0)
(112.259 0 0)
(113.21 0 0)
(114.172 0 0)
(115.146 0 0)
(116.128 0 0)
(117.118 0 0)
(118.114 0 0)
(119.116 0 0)
(120.122 0 0)
(121.133 0 0)
(122.147 0 0)
(123.163 0 0)
(124.181 0 0)
(125.201 0 0)
(126.222 0 0)
(127.244 0 0)
(128.266 0 0)
(129.289 0 0)
(130.311 0 0)
(131.333 0 0)
(132.354 0 0)
(133.374 0 0)
(134.397 0 0)
(135.404 0 0)
(136.455 0 0)
(137.365 0 0)
(138.706 0 0)
(241.971 0 0)
(239.99 0 0)
(237.951 0 0)
(235.85 0 0)
(233.685 0 0)
(231.452 0 0)
(229.147 0 0)
(226.765 0 0)
(224.301 0 0)
(221.75 0 0)
(219.104 0 0)
(216.357 0 0)
(213.501 0 0)
(210.524 0 0)
(207.417 0 0)
(204.165 0 0)
(200.752 0 0)
(197.159 0 0)
(193.363 0 0)
(189.334 0 0)
(185.035 0 0)
(180.42 0 0)
(175.428 0 0)
(169.975 0 0)
(163.96 0 0)
(157.277 0 0)
(149.902 0 0)
(141.999 0 0)
(133.983 0 0)
(126.427 0 0)
(119.846 0 0)
(114.523 0 0)
(110.475 0 0)
(107.551 0 0)
(105.531 0 0)
(104.206 0 0)
(103.4 0 0)
(102.982 0 0)
(102.854 0 0)
(102.945 0 0)
(103.205 0 0)
(103.597 0 0)
(104.092 0 0)
(104.67 0 0)
(105.315 0 0)
(106.016 0 0)
(106.762 0 0)
(107.546 0 0)
(108.363 0 0)
(109.206 0 0)
(110.073 0 0)
(110.959 0 0)
(111.861 0 0)
(112.778 0 0)
(113.708 0 0)
(114.648 0 0)
(115.597 0 0)
(116.553 0 0)
(117.517 0 0)
(118.486 0 0)
(119.46 0 0)
(120.437 0 0)
(121.419 0 0)
(122.403 0 0)
(123.389 0 0)
(124.377 0 0)
(125.366 0 0)
(126.357 0 0)
(127.348 0 0)
(128.339 0 0)
(129.33 0 0)
(130.321 0 0)
(131.312 0 0)
(132.301 0 0)
(133.294 0 0)
(134.271 0 0)
(135.292 0 0)
(136.175 0 0)
(137.476 0 0)
(239.688 0 0)
(237.705 0 0)
(235.663 0 0)
(233.561 0 0)
(231.394 0 0)
(229.159 0 0)
(226.852 0 0)
(224.468 0 0)
(222.003 0 0)
(219.449 0 0)
(216.801 0 0)
(214.051 0 0)
(211.19 0 0)
(208.208 0 0)
(205.094 0 0)
(201.832 0 0)
(198.408 0 0)
(194.8 0 0)
(190.984 0 0)
(186.93 0 0)
(182.598 0 0)
(177.94 0 0)
(172.89 0 0)
(167.365 0 0)
(161.261 0 0)
(154.501 0 0)
(147.107 0 0)
(139.312 0 0)
(131.566 0 0)
(124.417 0 0)
(118.299 0 0)
(113.411 0 0)
(109.72 0 0)
(107.061 0 0)
(105.224 0 0)
(104.018 0 0)
(103.286 0 0)
(102.91 0 0)
(102.801 0 0)
(102.896 0 0)
(103.149 0 0)
(103.526 0 0)
(104.002 0 0)
(104.557 0 0)
(105.177 0 0)
(105.85 0 0)
(106.567 0 0)
(107.321 0 0)
(108.107 0 0)
(108.919 0 0)
(109.753 0 0)
(110.607 0 0)
(111.477 0 0)
(112.362 0 0)
(113.259 0 0)
(114.167 0 0)
(115.083 0 0)
(116.008 0 0)
(116.939 0 0)
(117.876 0 0)
(118.818 0 0)
(119.764 0 0)
(120.714 0 0)
(121.667 0 0)
(122.622 0 0)
(123.579 0 0)
(124.537 0 0)
(125.497 0 0)
(126.457 0 0)
(127.418 0 0)
(128.379 0 0)
(129.34 0 0)
(130.301 0 0)
(131.26 0 0)
(132.223 0 0)
(133.172 0 0)
(134.161 0 0)
(135.019 0 0)
(136.28 0 0)
(237.402 0 0)
(235.416 0 0)
(233.373 0 0)
(231.269 0 0)
(229.1 0 0)
(226.864 0 0)
(224.555 0 0)
(222.17 0 0)
(219.702 0 0)
(217.146 0 0)
(214.494 0 0)
(211.74 0 0)
(208.875 0 0)
(205.887 0 0)
(202.764 0 0)
(199.493 0 0)
(196.055 0 0)
(192.43 0 0)
(188.591 0 0)
(184.508 0 0)
(180.139 0 0)
(175.433 0 0)
(170.321 0 0)
(164.717 0 0)
(158.528 0 0)
(151.704 0 0)
(144.326 0 0)
(136.685 0 0)
(129.25 0 0)
(122.526 0 0)
(116.864 0 0)
(112.389 0 0)
(109.029 0 0)
(106.612 0 0)
(104.943 0 0)
(103.846 0 0)
(103.181 0 0)
(102.842 0 0)
(102.751 0 0)
(102.849 0 0)
(103.096 0 0)
(103.459 0 0)
(103.916 0 0)
(104.449 0 0)
(105.044 0 0)
(105.69 0 0)
(106.379 0 0)
(107.104 0 0)
(107.86 0 0)
(108.642 0 0)
(109.445 0 0)
(110.268 0 0)
(111.107 0 0)
(111.96 0 0)
(112.826 0 0)
(113.702 0 0)
(114.587 0 0)
(115.481 0 0)
(116.381 0 0)
(117.287 0 0)
(118.198 0 0)
(119.113 0 0)
(120.032 0 0)
(120.954 0 0)
(121.878 0 0)
(122.805 0 0)
(123.733 0 0)
(124.663 0 0)
(125.593 0 0)
(126.525 0 0)
(127.456 0 0)
(128.388 0 0)
(129.32 0 0)
(130.25 0 0)
(131.184 0 0)
(132.104 0 0)
(133.064 0 0)
(133.896 0 0)
(135.119 0 0)
(235.111 0 0)
(233.123 0 0)
(231.079 0 0)
(228.973 0 0)
(226.804 0 0)
(224.566 0 0)
(222.256 0 0)
(219.868 0 0)
(217.398 0 0)
(214.839 0 0)
(212.184 0 0)
(209.426 0 0)
(206.554 0 0)
(203.559 0 0)
(200.427 0 0)
(197.144 0 0)
(193.691 0 0)
(190.046 0 0)
(186.183 0 0)
(182.068 0 0)
(177.657 0 0)
(172.898 0 0)
(167.718 0 0)
(162.032 0 0)
(155.762 0 0)
(148.896 0 0)
(141.574 0 0)
(134.133 0 0)
(127.045 0 0)
(120.756 0 0)
(115.538 0 0)
(111.451 0 0)
(108.397 0 0)
(106.202 0 0)
(104.685 0 0)
(103.688 0 0)
(103.084 0 0)
(102.779 0 0)
(102.704 0 0)
(102.805 0 0)
(103.045 0 0)
(103.395 0 0)
(103.834 0 0)
(104.346 0 0)
(104.917 0 0)
(105.537 0 0)
(106.199 0 0)
(106.896 0 0)
(107.623 0 0)
(108.375 0 0)
(109.149 0 0)
(109.941 0 0)
(110.75 0 0)
(111.573 0 0)
(112.408 0 0)
(113.254 0 0)
(114.109 0 0)
(114.971 0 0)
(115.841 0 0)
(116.717 0 0)
(117.597 0 0)
(118.483 0 0)
(119.372 0 0)
(120.264 0 0)
(121.159 0 0)
(122.056 0 0)
(122.955 0 0)
(123.855 0 0)
(124.757 0 0)
(125.659 0 0)
(126.561 0 0)
(127.464 0 0)
(128.368 0 0)
(129.269 0 0)
(130.175 0 0)
(131.067 0 0)
(131.998 0 0)
(132.806 0 0)
(133.992 0 0)
(232.816 0 0)
(230.828 0 0)
(228.782 0 0)
(226.675 0 0)
(224.504 0 0)
(222.265 0 0)
(219.953 0 0)
(217.564 0 0)
(215.091 0 0)
(212.529 0 0)
(209.87 0 0)
(207.107 0 0)
(204.228 0 0)
(201.225 0 0)
(198.082 0 0)
(194.785 0 0)
(191.314 0 0)
(187.648 0 0)
(183.756 0 0)
(179.605 0 0)
(175.149 0 0)
(170.331 0 0)
(165.078 0 0)
(159.309 0 0)
(152.968 0 0)
(146.088 0 0)
(138.865 0 0)
(131.671 0 0)
(124.958 0 0)
(119.107 0 0)
(114.316 0 0)
(110.593 0 0)
(107.819 0 0)
(105.827 0 0)
(104.449 0 0)
(103.542 0 0)
(102.994 0 0)
(102.721 0 0)
(102.66 0 0)
(102.763 0 0)
(102.996 0 0)
(103.334 0 0)
(103.756 0 0)
(104.247 0 0)
(104.795 0 0)
(105.39 0 0)
(106.026 0 0)
(106.696 0 0)
(107.395 0 0)
(108.118 0 0)
(108.863 0 0)
(109.627 0 0)
(110.406 0 0)
(111.2 0 0)
(112.005 0 0)
(112.821 0 0)
(113.646 0 0)
(114.479 0 0)
(115.32 0 0)
(116.166 0 0)
(117.017 0 0)
(117.873 0 0)
(118.733 0 0)
(119.596 0 0)
(120.462 0 0)
(121.33 0 0)
(122.201 0 0)
(123.072 0 0)
(123.945 0 0)
(124.819 0 0)
(125.694 0 0)
(126.569 0 0)
(127.444 0 0)
(128.319 0 0)
(129.196 0 0)
(130.062 0 0)
(130.964 0 0)
(131.748 0 0)
(132.897 0 0)
(230.519 0 0)
(228.529 0 0)
(226.482 0 0)
(224.374 0 0)
(222.202 0 0)
(219.961 0 0)
(217.648 0 0)
(215.256 0 0)
(212.78 0 0)
(210.214 0 0)
(207.551 0 0)
(204.781 0 0)
(201.895 0 0)
(198.882 0 0)
(195.727 0 0)
(192.414 0 0)
(188.924 0 0)
(185.233 0 0)
(181.31 0 0)
(177.118 0 0)
(172.611 0 0)
(167.729 0 0)
(162.399 0 0)
(156.55 0 0)
(150.155 0 0)
(143.295 0 0)
(136.218 0 0)
(129.311 0 0)
(122.994 0 0)
(117.578 0 0)
(113.193 0 0)
(109.808 0 0)
(107.292 0 0)
(105.485 0 0)
(104.233 0 0)
(103.408 0 0)
(102.912 0 0)
(102.667 0 0)
(102.618 0 0)
(102.723 0 0)
(102.95 0 0)
(103.275 0 0)
(103.681 0 0)
(104.152 0 0)
(104.678 0 0)
(105.249 0 0)
(105.86 0 0)
(106.504 0 0)
(107.175 0 0)
(107.872 0 0)
(108.589 0 0)
(109.324 0 0)
(110.075 0 0)
(110.84 0 0)
(111.616 0 0)
(112.404 0 0)
(113.2 0 0)
(114.004 0 0)
(114.816 0 0)
(115.633 0 0)
(116.456 0 0)
(117.284 0 0)
(118.115 0 0)
(118.95 0 0)
(119.788 0 0)
(120.628 0 0)
(121.47 0 0)
(122.314 0 0)
(123.16 0 0)
(124.006 0 0)
(124.853 0 0)
(125.701 0 0)
(126.549 0 0)
(127.396 0 0)
(128.247 0 0)
(129.086 0 0)
(129.961 0 0)
(130.721 0 0)
(131.834 0 0)
(228.218 0 0)
(226.227 0 0)
(224.179 0 0)
(222.07 0 0)
(219.897 0 0)
(217.654 0 0)
(215.339 0 0)
(212.944 0 0)
(210.465 0 0)
(207.895 0 0)
(205.226 0 0)
(202.449 0 0)
(199.555 0 0)
(196.53 0 0)
(193.361 0 0)
(190.031 0 0)
(186.518 0 0)
(182.798 0 0)
(178.84 0 0)
(174.604 0 0)
(170.041 0 0)
(165.09 0 0)
(159.681 0 0)
(153.76 0 0)
(147.333 0 0)
(140.534 0 0)
(133.648 0 0)
(127.064 0 0)
(121.156 0 0)
(116.166 0 0)
(112.165 0 0)
(109.092 0 0)
(106.811 0 0)
(105.172 0 0)
(104.035 0 0)
(103.286 0 0)
(102.835 0 0)
(102.617 0 0)
(102.58 0 0)
(102.686 0 0)
(102.906 0 0)
(103.219 0 0)
(103.609 0 0)
(104.061 0 0)
(104.565 0 0)
(105.114 0 0)
(105.701 0 0)
(106.319 0 0)
(106.965 0 0)
(107.634 0 0)
(108.324 0 0)
(109.032 0 0)
(109.756 0 0)
(110.493 0 0)
(111.241 0 0)
(112.001 0 0)
(112.769 0 0)
(113.546 0 0)
(114.329 0 0)
(115.119 0 0)
(115.914 0 0)
(116.714 0 0)
(117.518 0 0)
(118.325 0 0)
(119.136 0 0)
(119.948 0 0)
(120.764 0 0)
(121.58 0 0)
(122.399 0 0)
(123.218 0 0)
(124.039 0 0)
(124.86 0 0)
(125.681 0 0)
(126.502 0 0)
(127.326 0 0)
(128.139 0 0)
(128.987 0 0)
(129.725 0 0)
(130.802 0 0)
(225.914 0 0)
(223.922 0 0)
(221.873 0 0)
(219.763 0 0)
(217.588 0 0)
(215.344 0 0)
(213.026 0 0)
(210.628 0 0)
(208.145 0 0)
(205.57 0 0)
(202.894 0 0)
(200.11 0 0)
(197.205 0 0)
(194.167 0 0)
(190.982 0 0)
(187.632 0 0)
(184.094 0 0)
(180.343 0 0)
(176.346 0 0)
(172.061 0 0)
(167.437 0 0)
(162.412 0 0)
(156.926 0 0)
(150.945 0 0)
(144.517 0 0)
(137.82 0 0)
(131.17 0 0)
(124.94 0 0)
(119.446 0 0)
(114.867 0 0)
(111.226 0 0)
(108.439 0 0)
(106.373 0 0)
(104.886 0 0)
(103.854 0 0)
(103.173 0 0)
(102.765 0 0)
(102.57 0 0)
(102.543 0 0)
(102.65 0 0)
(102.864 0 0)
(103.166 0 0)
(103.54 0 0)
(103.974 0 0)
(104.458 0 0)
(104.985 0 0)
(105.547 0 0)
(106.141 0 0)
(106.762 0 0)
(107.406 0 0)
(108.07 0 0)
(108.751 0 0)
(109.448 0 0)
(110.158 0 0)
(110.88 0 0)
(111.612 0 0)
(112.354 0 0)
(113.103 0 0)
(113.86 0 0)
(114.622 0 0)
(115.39 0 0)
(116.163 0 0)
(116.94 0 0)
(117.721 0 0)
(118.504 0 0)
(119.291 0 0)
(120.079 0 0)
(120.87 0 0)
(121.662 0 0)
(122.455 0 0)
(123.249 0 0)
(124.044 0 0)
(124.84 0 0)
(125.635 0 0)
(126.434 0 0)
(127.221 0 0)
(128.043 0 0)
(128.758 0 0)
(129.801 0 0)
(223.607 0 0)
(221.614 0 0)
(219.565 0 0)
(217.453 0 0)
(215.277 0 0)
(213.03 0 0)
(210.709 0 0)
(208.308 0 0)
(205.82 0 0)
(203.239 0 0)
(200.556 0 0)
(197.761 0 0)
(194.845 0 0)
(191.792 0 0)
(188.589 0 0)
(185.216 0 0)
(181.65 0 0)
(177.864 0 0)
(173.823 0 0)
(169.484 0 0)
(164.794 0 0)
(159.695 0 0)
(154.137 0 0)
(148.115 0 0)
(141.721 0 0)
(135.174 0 0)
(128.8 0 0)
(122.943 0 0)
(117.862 0 0)
(113.675 0 0)
(110.369 0 0)
(107.846 0 0)
(105.974 0 0)
(104.626 0 0)
(103.688 0 0)
(103.069 0 0)
(102.7 0 0)
(102.527 0 0)
(102.509 0 0)
(102.616 0 0)
(102.824 0 0)
(103.115 0 0)
(103.474 0 0)
(103.89 0 0)
(104.355 0 0)
(104.86 0 0)
(105.401 0 0)
(105.971 0 0)
(106.567 0 0)
(107.186 0 0)
(107.825 0 0)
(108.481 0 0)
(109.152 0 0)
(109.836 0 0)
(110.532 0 0)
(111.238 0 0)
(111.953 0 0)
(112.676 0 0)
(113.406 0 0)
(114.143 0 0)
(114.884 0 0)
(115.631 0 0)
(116.382 0 0)
(117.136 0 0)
(117.894 0 0)
(118.654 0 0)
(119.417 0 0)
(120.182 0 0)
(120.948 0 0)
(121.716 0 0)
(122.485 0 0)
(123.255 0 0)
(124.025 0 0)
(124.795 0 0)
(125.568 0 0)
(126.332 0 0)
(127.127 0 0)
(127.821 0 0)
(128.83 0 0)
(221.297 0 0)
(219.303 0 0)
(217.253 0 0)
(215.14 0 0)
(212.961 0 0)
(210.712 0 0)
(208.387 0 0)
(205.981 0 0)
(203.488 0 0)
(200.9 0 0)
(198.208 0 0)
(195.403 0 0)
(192.473 0 0)
(189.404 0 0)
(186.18 0 0)
(182.782 0 0)
(179.184 0 0)
(175.359 0 0)
(171.27 0 0)
(166.872 0 0)
(162.113 0 0)
(156.94 0 0)
(151.321 0 0)
(145.284 0 0)
(138.964 0 0)
(132.611 0 0)
(126.548 0 0)
(121.078 0 0)
(116.402 0 0)
(112.587 0 0)
(109.589 0 0)
(107.306 0 0)
(105.611 0 0)
(104.388 0 0)
(103.536 0 0)
(102.974 0 0)
(102.64 0 0)
(102.487 0 0)
(102.478 0 0)
(102.584 0 0)
(102.786 0 0)
(103.066 0 0)
(103.411 0 0)
(103.81 0 0)
(104.256 0 0)
(104.741 0 0)
(105.26 0 0)
(105.807 0 0)
(106.38 0 0)
(106.976 0 0)
(107.59 0 0)
(108.221 0 0)
(108.867 0 0)
(109.526 0 0)
(110.196 0 0)
(110.877 0 0)
(111.566 0 0)
(112.264 0 0)
(112.969 0 0)
(113.679 0 0)
(114.396 0 0)
(115.117 0 0)
(115.842 0 0)
(116.571 0 0)
(117.304 0 0)
(118.039 0 0)
(118.777 0 0)
(119.516 0 0)
(120.258 0 0)
(121.001 0 0)
(121.745 0 0)
(122.49 0 0)
(123.236 0 0)
(123.981 0 0)
(124.73 0 0)
(125.469 0 0)
(126.239 0 0)
(126.912 0 0)
(127.888 0 0)
(218.983 0 0)
(216.989 0 0)
(214.937 0 0)
(212.822 0 0)
(210.641 0 0)
(208.388 0 0)
(206.06 0 0)
(203.649 0 0)
(201.149 0 0)
(198.553 0 0)
(195.851 0 0)
(193.033 0 0)
(190.088 0 0)
(187 0 0)
(183.753 0 0)
(180.326 0 0)
(176.694 0 0)
(172.825 0 0)
(168.683 0 0)
(164.222 0 0)
(159.392 0 0)
(154.15 0 0)
(148.486 0 0)
(142.467 0 0)
(136.264 0 0)
(130.147 0 0)
(124.423 0 0)
(119.346 0 0)
(115.061 0 0)
(111.594 0 0)
(108.88 0 0)
(106.815 0 0)
(105.281 0 0)
(104.171 0 0)
(103.397 0 0)
(102.887 0 0)
(102.585 0 0)
(102.449 0 0)
(102.448 0 0)
(102.554 0 0)
(102.75 0 0)
(103.019 0 0)
(103.351 0 0)
(103.734 0 0)
(104.161 0 0)
(104.627 0 0)
(105.124 0 0)
(105.65 0 0)
(106.201 0 0)
(106.773 0 0)
(107.363 0 0)
(107.971 0 0)
(108.592 0 0)
(109.227 0 0)
(109.873 0 0)
(110.529 0 0)
(111.194 0 0)
(111.866 0 0)
(112.546 0 0)
(113.232 0 0)
(113.924 0 0)
(114.62 0 0)
(115.321 0 0)
(116.025 0 0)
(116.733 0 0)
(117.444 0 0)
(118.157 0 0)
(118.872 0 0)
(119.589 0 0)
(120.308 0 0)
(121.028 0 0)
(121.749 0 0)
(122.471 0 0)
(123.192 0 0)
(123.917 0 0)
(124.633 0 0)
(125.378 0 0)
(126.03 0 0)
(126.974 0 0)
(216.666 0 0)
(214.671 0 0)
(212.617 0 0)
(210.5 0 0)
(208.316 0 0)
(206.059 0 0)
(203.726 0 0)
(201.309 0 0)
(198.801 0 0)
(196.196 0 0)
(193.482 0 0)
(190.651 0 0)
(187.688 0 0)
(184.579 0 0)
(181.306 0 0)
(177.847 0 0)
(174.176 0 0)
(170.26 0 0)
(166.061 0 0)
(161.533 0 0)
(156.632 0 0)
(151.33 0 0)
(145.645 0 0)
(139.681 0 0)
(133.64 0 0)
(127.799 0 0)
(122.432 0 0)
(117.746 0 0)
(113.835 0 0)
(110.69 0 0)
(108.237 0 0)
(106.369 0 0)
(104.98 0 0)
(103.973 0 0)
(103.27 0 0)
(102.806 0 0)
(102.534 0 0)
(102.415 0 0)
(102.42 0 0)
(102.526 0 0)
(102.715 0 0)
(102.975 0 0)
(103.293 0 0)
(103.661 0 0)
(104.071 0 0)
(104.517 0 0)
(104.995 0 0)
(105.5 0 0)
(106.028 0 0)
(106.578 0 0)
(107.146 0 0)
(107.73 0 0)
(108.328 0 0)
(108.939 0 0)
(109.561 0 0)
(110.193 0 0)
(110.834 0 0)
(111.483 0 0)
(112.139 0 0)
(112.801 0 0)
(113.468 0 0)
(114.141 0 0)
(114.817 0 0)
(115.498 0 0)
(116.182 0 0)
(116.869 0 0)
(117.558 0 0)
(118.249 0 0)
(118.943 0 0)
(119.638 0 0)
(120.334 0 0)
(121.032 0 0)
(121.73 0 0)
(122.428 0 0)
(123.13 0 0)
(123.823 0 0)
(124.544 0 0)
(125.176 0 0)
(126.089 0 0)
(214.346 0 0)
(212.349 0 0)
(210.293 0 0)
(208.173 0 0)
(205.985 0 0)
(203.724 0 0)
(201.385 0 0)
(198.961 0 0)
(196.445 0 0)
(193.828 0 0)
(191.102 0 0)
(188.254 0 0)
(185.271 0 0)
(182.139 0 0)
(178.836 0 0)
(175.342 0 0)
(171.627 0 0)
(167.66 0 0)
(163.399 0 0)
(158.804 0 0)
(153.837 0 0)
(148.49 0 0)
(142.813 0 0)
(136.946 0 0)
(131.111 0 0)
(125.575 0 0)
(120.578 0 0)
(116.275 0 0)
(112.716 0 0)
(109.87 0 0)
(107.653 0 0)
(105.965 0 0)
(104.706 0 0)
(103.793 0 0)
(103.153 0 0)
(102.733 0 0)
(102.487 0 0)
(102.382 0 0)
(102.393 0 0)
(102.499 0 0)
(102.683 0 0)
(102.932 0 0)
(103.238 0 0)
(103.59 0 0)
(103.984 0 0)
(104.412 0 0)
(104.87 0 0)
(105.355 0 0)
(105.863 0 0)
(106.391 0 0)
(106.937 0 0)
(107.498 0 0)
(108.074 0 0)
(108.662 0 0)
(109.261 0 0)
(109.87 0 0)
(110.488 0 0)
(111.113 0 0)
(111.746 0 0)
(112.384 0 0)
(113.029 0 0)
(113.678 0 0)
(114.331 0 0)
(114.988 0 0)
(115.649 0 0)
(116.312 0 0)
(116.979 0 0)
(117.647 0 0)
(118.317 0 0)
(118.989 0 0)
(119.663 0 0)
(120.337 0 0)
(121.013 0 0)
(121.689 0 0)
(122.367 0 0)
(123.038 0 0)
(123.736 0 0)
(124.348 0 0)
(125.231 0 0)
(212.021 0 0)
(210.022 0 0)
(207.963 0 0)
(205.84 0 0)
(203.648 0 0)
(201.381 0 0)
(199.035 0 0)
(196.603 0 0)
(194.077 0 0)
(191.448 0 0)
(188.707 0 0)
(185.84 0 0)
(182.836 0 0)
(179.676 0 0)
(176.341 0 0)
(172.808 0 0)
(169.046 0 0)
(165.022 0 0)
(160.698 0 0)
(156.036 0 0)
(151.012 0 0)
(145.641 0 0)
(140.009 0 0)
(134.282 0 0)
(128.692 0 0)
(123.486 0 0)
(118.862 0 0)
(114.927 0 0)
(111.699 0 0)
(109.126 0 0)
(107.124 0 0)
(105.597 0 0)
(104.457 0 0)
(103.628 0 0)
(103.047 0 0)
(102.665 0 0)
(102.444 0 0)
(102.353 0 0)
(102.369 0 0)
(102.473 0 0)
(102.651 0 0)
(102.892 0 0)
(103.185 0 0)
(103.523 0 0)
(103.9 0 0)
(104.311 0 0)
(104.751 0 0)
(105.216 0 0)
(105.704 0 0)
(106.211 0 0)
(106.736 0 0)
(107.276 0 0)
(107.83 0 0)
(108.396 0 0)
(108.973 0 0)
(109.559 0 0)
(110.154 0 0)
(110.757 0 0)
(111.367 0 0)
(111.983 0 0)
(112.604 0 0)
(113.231 0 0)
(113.861 0 0)
(114.496 0 0)
(115.134 0 0)
(115.775 0 0)
(116.418 0 0)
(117.064 0 0)
(117.712 0 0)
(118.362 0 0)
(119.013 0 0)
(119.665 0 0)
(120.319 0 0)
(120.972 0 0)
(121.629 0 0)
(122.278 0 0)
(122.953 0 0)
(123.546 0 0)
(124.399 0 0)
(209.691 0 0)
(207.689 0 0)
(205.627 0 0)
(203.5 0 0)
(201.303 0 0)
(199.03 0 0)
(196.677 0 0)
(194.235 0 0)
(191.697 0 0)
(189.054 0 0)
(186.295 0 0)
(183.409 0 0)
(180.379 0 0)
(177.19 0 0)
(173.819 0 0)
(170.242 0 0)
(166.429 0 0)
(162.346 0 0)
(157.957 0 0)
(153.232 0 0)
(148.165 0 0)
(142.8 0 0)
(137.252 0 0)
(131.707 0 0)
(126.397 0 0)
(121.537 0 0)
(117.282 0 0)
(113.698 0 0)
(110.775 0 0)
(108.452 0 0)
(106.645 0 0)
(105.264 0 0)
(104.231 0 0)
(103.478 0 0)
(102.95 0 0)
(102.603 0 0)
(102.404 0 0)
(102.325 0 0)
(102.345 0 0)
(102.449 0 0)
(102.621 0 0)
(102.853 0 0)
(103.135 0 0)
(103.459 0 0)
(103.821 0 0)
(104.214 0 0)
(104.636 0 0)
(105.083 0 0)
(105.551 0 0)
(106.038 0 0)
(106.543 0 0)
(107.062 0 0)
(107.595 0 0)
(108.139 0 0)
(108.694 0 0)
(109.259 0 0)
(109.833 0 0)
(110.414 0 0)
(111.001 0 0)
(111.595 0 0)
(112.195 0 0)
(112.799 0 0)
(113.408 0 0)
(114.02 0 0)
(114.636 0 0)
(115.255 0 0)
(115.877 0 0)
(116.501 0 0)
(117.127 0 0)
(117.755 0 0)
(118.385 0 0)
(119.015 0 0)
(119.647 0 0)
(120.279 0 0)
(120.914 0 0)
(121.542 0 0)
(122.195 0 0)
(122.768 0 0)
(123.593 0 0)
(207.355 0 0)
(205.351 0 0)
(203.285 0 0)
(201.153 0 0)
(198.95 0 0)
(196.67 0 0)
(194.307 0 0)
(191.854 0 0)
(189.303 0 0)
(186.644 0 0)
(183.866 0 0)
(180.957 0 0)
(177.899 0 0)
(174.676 0 0)
(171.266 0 0)
(167.641 0 0)
(163.774 0 0)
(159.629 0 0)
(155.176 0 0)
(150.399 0 0)
(145.311 0 0)
(139.985 0 0)
(134.562 0 0)
(129.24 0 0)
(124.236 0 0)
(119.729 0 0)
(115.833 0 0)
(112.579 0 0)
(109.938 0 0)
(107.842 0 0)
(106.21 0 0)
(104.962 0 0)
(104.025 0 0)
(103.341 0 0)
(102.86 0 0)
(102.546 0 0)
(102.367 0 0)
(102.299 0 0)
(102.324 0 0)
(102.426 0 0)
(102.593 0 0)
(102.816 0 0)
(103.086 0 0)
(103.398 0 0)
(103.744 0 0)
(104.122 0 0)
(104.527 0 0)
(104.955 0 0)
(105.405 0 0)
(105.873 0 0)
(106.357 0 0)
(106.856 0 0)
(107.368 0 0)
(107.892 0 0)
(108.427 0 0)
(108.971 0 0)
(109.523 0 0)
(110.083 0 0)
(110.649 0 0)
(111.222 0 0)
(111.8 0 0)
(112.383 0 0)
(112.97 0 0)
(113.561 0 0)
(114.156 0 0)
(114.754 0 0)
(115.354 0 0)
(115.957 0 0)
(116.562 0 0)
(117.169 0 0)
(117.777 0 0)
(118.386 0 0)
(118.997 0 0)
(119.608 0 0)
(120.222 0 0)
(120.829 0 0)
(121.46 0 0)
(122.016 0 0)
(122.812 0 0)
(205.014 0 0)
(203.006 0 0)
(200.935 0 0)
(198.797 0 0)
(196.587 0 0)
(194.299 0 0)
(191.925 0 0)
(189.46 0 0)
(186.894 0 0)
(184.217 0 0)
(181.417 0 0)
(178.481 0 0)
(175.393 0 0)
(172.133 0 0)
(168.679 0 0)
(165.004 0 0)
(161.078 0 0)
(156.872 0 0)
(152.361 0 0)
(147.545 0 0)
(142.464 0 0)
(137.215 0 0)
(131.96 0 0)
(126.896 0 0)
(122.216 0 0)
(118.063 0 0)
(114.511 0 0)
(111.565 0 0)
(109.181 0 0)
(107.291 0 0)
(105.817 0 0)
(104.687 0 0)
(103.837 0 0)
(103.215 0 0)
(102.779 0 0)
(102.494 0 0)
(102.333 0 0)
(102.275 0 0)
(102.303 0 0)
(102.404 0 0)
(102.566 0 0)
(102.78 0 0)
(103.04 0 0)
(103.339 0 0)
(103.671 0 0)
(104.033 0 0)
(104.421 0 0)
(104.833 0 0)
(105.264 0 0)
(105.713 0 0)
(106.179 0 0)
(106.659 0 0)
(107.151 0 0)
(107.655 0 0)
(108.169 0 0)
(108.693 0 0)
(109.225 0 0)
(109.764 0 0)
(110.31 0 0)
(110.862 0 0)
(111.419 0 0)
(111.981 0 0)
(112.548 0 0)
(113.118 0 0)
(113.692 0 0)
(114.269 0 0)
(114.849 0 0)
(115.431 0 0)
(116.015 0 0)
(116.601 0 0)
(117.189 0 0)
(117.778 0 0)
(118.368 0 0)
(118.959 0 0)
(119.552 0 0)
(120.139 0 0)
(120.749 0 0)
(121.287 0 0)
(122.056 0 0)
(202.665 0 0)
(200.652 0 0)
(198.577 0 0)
(196.432 0 0)
(194.213 0 0)
(191.915 0 0)
(189.53 0 0)
(187.05 0 0)
(184.467 0 0)
(181.769 0 0)
(178.945 0 0)
(175.981 0 0)
(172.858 0 0)
(169.558 0 0)
(166.056 0 0)
(162.327 0 0)
(158.342 0 0)
(154.076 0 0)
(149.518 0 0)
(144.686 0 0)
(139.643 0 0)
(134.513 0 0)
(129.465 0 0)
(124.687 0 0)
(120.341 0 0)
(116.534 0 0)
(113.308 0 0)
(110.646 0 0)
(108.497 0 0)
(106.792 0 0)
(105.461 0 0)
(104.437 0 0)
(103.666 0 0)
(103.101 0 0)
(102.704 0 0)
(102.445 0 0)
(102.301 0 0)
(102.253 0 0)
(102.284 0 0)
(102.383 0 0)
(102.54 0 0)
(102.747 0 0)
(102.996 0 0)
(103.282 0 0)
(103.601 0 0)
(103.948 0 0)
(104.321 0 0)
(104.715 0 0)
(105.129 0 0)
(105.56 0 0)
(106.008 0 0)
(106.469 0 0)
(106.942 0 0)
(107.427 0 0)
(107.922 0 0)
(108.425 0 0)
(108.937 0 0)
(109.457 0 0)
(109.983 0 0)
(110.515 0 0)
(111.052 0 0)
(111.594 0 0)
(112.141 0 0)
(112.691 0 0)
(113.245 0 0)
(113.801 0 0)
(114.361 0 0)
(114.923 0 0)
(115.487 0 0)
(116.053 0 0)
(116.621 0 0)
(117.19 0 0)
(117.76 0 0)
(118.331 0 0)
(118.905 0 0)
(119.472 0 0)
(120.061 0 0)
(120.582 0 0)
(121.324 0 0)
(200.308 0 0)
(198.29 0 0)
(196.208 0 0)
(194.055 0 0)
(191.827 0 0)
(189.518 0 0)
(187.119 0 0)
(184.623 0 0)
(182.02 0 0)
(179.3 0 0)
(176.448 0 0)
(173.452 0 0)
(170.291 0 0)
(166.947 0 0)
(163.395 0 0)
(159.609 0 0)
(155.566 0 0)
(151.248 0 0)
(146.658 0 0)
(141.836 0 0)
(136.87 0 0)
(131.899 0 0)
(127.093 0 0)
(122.62 0 0)
(118.611 0 0)
(115.139 0 0)
(112.217 0 0)
(109.815 0 0)
(107.879 0 0)
(106.341 0 0)
(105.138 0 0)
(104.211 0 0)
(103.511 0 0)
(102.997 0 0)
(102.636 0 0)
(102.401 0 0)
(102.272 0 0)
(102.232 0 0)
(102.266 0 0)
(102.364 0 0)
(102.516 0 0)
(102.714 0 0)
(102.954 0 0)
(103.228 0 0)
(103.534 0 0)
(103.867 0 0)
(104.224 0 0)
(104.602 0 0)
(105 0 0)
(105.414 0 0)
(105.843 0 0)
(106.286 0 0)
(106.741 0 0)
(107.207 0 0)
(107.683 0 0)
(108.168 0 0)
(108.661 0 0)
(109.161 0 0)
(109.668 0 0)
(110.18 0 0)
(110.698 0 0)
(111.221 0 0)
(111.748 0 0)
(112.278 0 0)
(112.813 0 0)
(113.35 0 0)
(113.89 0 0)
(114.432 0 0)
(114.977 0 0)
(115.524 0 0)
(116.072 0 0)
(116.621 0 0)
(117.172 0 0)
(117.724 0 0)
(118.278 0 0)
(118.826 0 0)
(119.396 0 0)
(119.899 0 0)
(120.615 0 0)
(197.942 0 0)
(195.918 0 0)
(193.828 0 0)
(191.666 0 0)
(189.427 0 0)
(187.104 0 0)
(184.69 0 0)
(182.176 0 0)
(179.551 0 0)
(176.805 0 0)
(173.924 0 0)
(170.892 0 0)
(167.69 0 0)
(164.298 0 0)
(160.693 0 0)
(156.851 0 0)
(152.753 0 0)
(148.394 0 0)
(143.794 0 0)
(139.015 0 0)
(134.165 0 0)
(129.392 0 0)
(124.856 0 0)
(120.701 0 0)
(117.024 0 0)
(113.869 0 0)
(111.229 0 0)
(109.065 0 0)
(107.32 0 0)
(105.933 0 0)
(104.845 0 0)
(104.005 0 0)
(103.369 0 0)
(102.901 0 0)
(102.573 0 0)
(102.361 0 0)
(102.246 0 0)
(102.213 0 0)
(102.249 0 0)
(102.345 0 0)
(102.492 0 0)
(102.683 0 0)
(102.913 0 0)
(103.177 0 0)
(103.47 0 0)
(103.789 0 0)
(104.131 0 0)
(104.494 0 0)
(104.875 0 0)
(105.273 0 0)
(105.685 0 0)
(106.111 0 0)
(106.548 0 0)
(106.996 0 0)
(107.454 0 0)
(107.921 0 0)
(108.395 0 0)
(108.876 0 0)
(109.364 0 0)
(109.858 0 0)
(110.357 0 0)
(110.861 0 0)
(111.369 0 0)
(111.88 0 0)
(112.396 0 0)
(112.914 0 0)
(113.435 0 0)
(113.959 0 0)
(114.484 0 0)
(115.012 0 0)
(115.541 0 0)
(116.072 0 0)
(116.604 0 0)
(117.136 0 0)
(117.672 0 0)
(118.201 0 0)
(118.751 0 0)
(119.238 0 0)
(119.929 0 0)
(195.565 0 0)
(193.534 0 0)
(191.435 0 0)
(189.263 0 0)
(187.011 0 0)
(184.674 0 0)
(182.242 0 0)
(179.707 0 0)
(177.058 0 0)
(174.283 0 0)
(171.369 0 0)
(168.298 0 0)
(165.052 0 0)
(161.61 0 0)
(157.95 0 0)
(154.053 0 0)
(149.909 0 0)
(145.526 0 0)
(140.945 0 0)
(136.246 0 0)
(131.552 0 0)
(127.01 0 0)
(122.764 0 0)
(118.93 0 0)
(115.575 0 0)
(112.718 0 0)
(110.337 0 0)
(108.388 0 0)
(106.816 0 0)
(105.564 0 0)
(104.58 0 0)
(103.818 0 0)
(103.24 0 0)
(102.814 0 0)
(102.516 0 0)
(102.324 0 0)
(102.221 0 0)
(102.195 0 0)
(102.233 0 0)
(102.328 0 0)