/*--------------------------------*- C++ -*----------------------------------*\
| =========                 |                                                 |
| \\      /  F ield         | OpenFOAM: The Open Source CFD Toolbox           |
|  \\    /   O peration     | Version:  2312                                  |
|   \\  /    A nd           | Website:  www.openfoam.com                      |
|    \\/     M anipulation  |                                                 |
\*---------------------------------------------------------------------------*/
FoamFile
{
    version     2.0;
    format      ascii;
    arch        "LSB;label=32;scalar=64";
    class       volVectorField;
    location    "1";
    object      flux;
}
// * * * * * * * * * * * * * * * * * * * * * * * * * * * * * * * * * * * * * //

dimensions      [0 1 -1 1 0 0 0];

internalField   nonuniform List<vector> 
100
(
(-4.96751 0 0)
(-4.6039 0 0)
(-4.25363 0 0)
(-3.91666 0 0)
(-3.59288 0 0)
(-3.28217 0 0)
(-2.98441 0 0)
(-2.69942 0 0)
(-2.42702 0 0)
(-2.16702 0 0)
(-1.9192 0 0)
(-1.68333 0 0)
(-1.45916 0 0)
(-1.24643 0 0)
(-1.04489 0 0)
(-0.854251 0 0)
(-0.674236 0 0)
(-0.504555 0 0)
(-0.344914 0 0)
(-0.195013 0 0)
(-0.0545522 0 0)
(0.0767738 0 0)
(0.19927 0 0)
(0.313242 0 0)
(0.418996 0 0)
(0.516836 0 0)
(0.607065 0 0)
(0.689983 0 0)
(0.765888 0 0)
(0.835074 0 0)
(0.897832 0 0)
(0.954447 0 0)
(1.0052 0 0)
(1.05037 0 0)
(1.09022 0 0)
(1.12503 0 0)
(1.15504 0 0)
(1.18051 0 0)
(1.20169 0 0)
(1.21882 0 0)
(1.23212 0 0)
(1.24183 0 0)
(1.24816 0 0)
(1.25133 0 0)
(1.25154 0 0)
(1.24898 0 0)
(1.24385 0 0)
(1.23633 0 0)
(1.2266 0 0)
(1.21482 0 0)
(1.20116 0 0)
(1.18576 0 0)
(1.16879 0 0)
(1.15038 0 0)
(1.13065 0 0)
(1.10975 0 0)
(1.0878 0 0)
(1.06489 0 0)
(1.04116 0 0)
(1.01669 0 0)
(0.991581 0 0)
(0.965927 0 0)
(0.93981 0 0)
(0.91331 0 0)
(0.886499 0 0)
(0.859446 0 0)
(0.832213 0 0)
(0.80486 0 0)
(0.777438 0 0)
(0.749996 0 0)
(0.722578 0 0)
(0.695225 0 0)
(0.667971 0 0)
(0.640848 0 0)
(0.613883 0 0)
(0.587101 0 0)
(0.560522 0 0)
(0.534162 0 0)
(0.508036 0 0)
(0.482154 0 0)
(0.456524 0 0)
(0.43115 0 0)
(0.406036 0 0)
(0.38118 0 0)
(0.356581 0 0)
(0.332233 0 0)
(0.308131 0 0)
(0.284264 0 0)
(0.260623 0 0)
(0.237196 0 0)
(0.213968 0 0)
(0.190926 0 0)
(0.168052 0 0)
(0.14533 0 0)
(0.122741 0 0)
(0.100266 0 0)
(0.0778859 0 0)
(0.0555795 0 0)
(0.0333264 0 0)
(0.0111052 0 0)
)
;

boundaryField
{
    movingWall
    {
        type            calculated;
        value           uniform (-5.15266 0 0);
    }
    fixedWalls
    {
        type            calculated;
        value           nonuniform List<vector> 
201
(
(-4.96751 0 0)
(-4.6039 0 0)
(-4.25363 0 0)
(-3.91666 0 0)
(-3.59288 0 0)
(-3.28217 0 0)
(-2.98441 0 0)
(-2.69942 0 0)
(-2.42702 0 0)
(-2.16702 0 0)
(-1.9192 0 0)
(-1.68333 0 0)
(-1.45916 0 0)
(-1.24643 0 0)
(-1.04489 0 0)
(-0.854251 0 0)
(-0.674236 0 0)
(-0.504555 0 0)
(-0.344914 0 0)
(-0.195013 0 0)
(-0.0545522 0 0)
(0.0767738 0 0)
(0.19927 0 0)
(0.313242 0 0)
(0.418996 0 0)
(0.516836 0 0)
(0.607065 0 0)
(0.689983 0 0)
(0.765888 0 0)
(0.835074 0 0)
(0.897832 0 0)
(0.954447 0 0)
(1.0052 0 0)
(1.05037 0 0)
(1.09022 0 0)
(1.12503 0 0)
(1.15504 0 0)
(1.18051 0 0)
(1.20169 0 0)
(1.21882 0 0)
(1.23212 0 0)
(1.24183 0 0)
(1.24816 0 0)
(1.25133 0 0)
(1.25154 0 0)
(1.24898 0 0)
(1.24385 0 0)
(1.23633 0 0)
(1.2266 0 0)
(1.21482 0 0)
(1.20116 0 0)
(1.18576 0 0)
(1.16879 0 0)
(1.15038 0 0)
(1.13065 0 0)
(1.10975 0 0)
(1.0878 0 0)
(1.06489 0 0)
(1.04116 0 0)
(1.01669 0 0)
(0.991581 0 0)
(0.965927 0 0)
(0.93981 0 0)
(0.91331 0 0)
(0.886499 0 0)
(0.859446 0 0)
(0.832213 0 0)
(0.80486 0 0)
(0.777438 0 0)
(0.749996 0 0)
(0.722578 0 0)
(0.695225 0 0)
(0.667971 0 0)
(0.640848 0 0)
(0.613883 0 0)
(0.587101 0 0)
(0.560522 0 0)
(0.534162 0 0)
(0.508036 0 0)
(0.482154 0 0)
(0.456524 0 0)
(0.43115 0 0)
(0.406036 0 0)
(0.38118 0 0)
(0.356581 0 0)
(0.332233 0 0)
(0.308131 0 0)
(0.284264 0 0)
(0.260623 0 0)
(0.237196 0 0)
(0.213968 0 0)
(0.190926 0 0)
(0.168052 0 0)
(0.14533 0 0)
(0.122741 0 0)
(0.100266 0 0)
(0.0778859 0 0)
(0.0555795 0 0)
(0.0333264 0 0)
(0.0111052 0 0)
(0 0 0)
(-4.96751 0 0)
(-4.6039 0 0)
(-4.25363 0 0)
(-3.91666 0 0)
(-3.59288 0 0)
(-3.28217 0 0)
(-2.98441 0 0)
(-2.69942 0 0)
(-2.42702 0 0)
(-2.16702 0 0)
(-1.9192 0 0)
(-1.68333 0 0)
(-1.45916 0 0)
(-1.24643 0 0)
(-1.04489 0 0)
(-0.854251 0 0)
(-0.674236 0 0)
(-0.504555 0 0)
(-0.344914 0 0)
(-0.195013 0 0)
(-0.0545522 0 0)
(0.0767738 0 0)
(0.19927 0 0)
(0.313242 0 0)
(0.418996 0 0)
(0.516836 0 0)
(0.607065 0 0)
(0.689983 0 0)
(0.765888 0 0)
(0.835074 0 0)
(0.897832 0 0)
(0.954447 0 0)
(1.0052 0 0)
(1.05037 0 0)
(1.09022 0 0)
(1.12503 0 0)
(1.15504 0 0)
(1.18051 0 0)
(1.20169 0 0)
(1.21882 0 0)
(1.23212 0 0)
(1.24183 0 0)
(1.24816 0 0)
(1.25133 0 0)
(1.25154 0 0)
(1.24898 0 0)
(1.24385 0 0)
(1.23633 0 0)
(1.2266 0 0)
(1.21482 0 0)
(1.20116 0 0)
(1.18576 0 0)
(1.16879 0 0)
(1.15038 0 0)
(1.13065 0 0)
(1.10975 0 0)
(1.0878 0 0)
(1.06489 0 0)
(1.04116 0 0)
(1.01669 0 0)
(0.991581 0 0)
(0.965927 0 0)
(0.93981 0 0)
(0.91331 0 0)
(0.886499 0 0)
(0.859446 0 0)
(0.832213 0 0)
(0.80486 0 0)
(0.777438 0 0)
(0.749996 0 0)
(0.722578 0 0)
(0.695225 0 0)
(0.667971 0 0)
(0.640848 0 0)
(0.613883 0 0)
(0.587101 0 0)
(0.560522 0 0)
(0.534162 0 0)
(0.508036 0 0)
(0.482154 0 0)
(0.456524 0 0)
(0.43115 0 0)
(0.406036 0 0)
(0.38118 0 0)
(0.356581 0 0)
(0.332233 0 0)
(0.308131 0 0)
(0.284264 0 0)
(0.260623 0 0)
(0.237196 0 0)
(0.213968 0 0)
(0.190926 0 0)
(0.168052 0 0)
(0.14533 0 0)
(0.122741 0 0)
(0.100266 0 0)
(0.0778859 0 0)
(0.0555795 0 0)
(0.0333264 0 0)
(0.0111052 0 0)
)
;
    }
    frontAndBack
    {
        type            empty;
    }
}


// ************************************************************************* //
