/*--------------------------------*- C++ -*----------------------------------*\
| =========                 |                                                 |
| \\      /  F ield         | OpenFOAM: The Open Source CFD Toolbox           |
|  \\    /   O peration     | Version:  2312                                  |
|   \\  /    A nd           | Website:  www.openfoam.com                      |
|    \\/     M anipulation  |                                                 |
\*---------------------------------------------------------------------------*/
FoamFile
{
    version     2.0;
    format      ascii;
    arch        "LSB;label=32;scalar=64";
    class       volScalarField;
    location    "1";
    object      gradTx;
}
// * * * * * * * * * * * * * * * * * * * * * * * * * * * * * * * * * * * * * //

dimensions      [0 -1 0 1 0 0 0];

internalField   nonuniform List<scalar> 
100
(
-4.96751
-4.6039
-4.25363
-3.91666
-3.59288
-3.28217
-2.98441
-2.69942
-2.42702
-2.16702
-1.9192
-1.68333
-1.45916
-1.24643
-1.04489
-0.854251
-0.674236
-0.504555
-0.344914
-0.195013
-0.0545522
0.0767738
0.19927
0.313242
0.418996
0.516836
0.607065
0.689983
0.765888
0.835074
0.897832
0.954447
1.0052
1.05037
1.09022
1.12503
1.15504
1.18051
1.20169
1.21882
1.23212
1.24183
1.24816
1.25133
1.25154
1.24898
1.24385
1.23633
1.2266
1.21482
1.20116
1.18576
1.16879
1.15038
1.13065
1.10975
1.0878
1.06489
1.04116
1.01669
0.991581
0.965927
0.93981
0.91331
0.886499
0.859446
0.832213
0.80486
0.777438
0.749996
0.722578
0.695225
0.667971
0.640848
0.613883
0.587101
0.560522
0.534162
0.508036
0.482154
0.456524
0.43115
0.406036
0.38118
0.356581
0.332233
0.308131
0.284264
0.260623
0.237196
0.213968
0.190926
0.168052
0.14533
0.122741
0.100266
0.0778859
0.0555795
0.0333264
0.0111052
)
;

boundaryField
{
    movingWall
    {
        type            calculated;
        value           uniform -5.15266;
    }
    fixedWalls
    {
        type            calculated;
        value           nonuniform List<scalar> 
201
(
-4.96751
-4.6039
-4.25363
-3.91666
-3.59288
-3.28217
-2.98441
-2.69942
-2.42702
-2.16702
-1.9192
-1.68333
-1.45916
-1.24643
-1.04489
-0.854251
-0.674236
-0.504555
-0.344914
-0.195013
-0.0545522
0.0767738
0.19927
0.313242
0.418996
0.516836
0.607065
0.689983
0.765888
0.835074
0.897832
0.954447
1.0052
1.05037
1.09022
1.12503
1.15504
1.18051
1.20169
1.21882
1.23212
1.24183
1.24816
1.25133
1.25154
1.24898
1.24385
1.23633
1.2266
1.21482
1.20116
1.18576
1.16879
1.15038
1.13065
1.10975
1.0878
1.06489
1.04116
1.01669
0.991581
0.965927
0.93981
0.91331
0.886499
0.859446
0.832213
0.80486
0.777438
0.749996
0.722578
0.695225
0.667971
0.640848
0.613883
0.587101
0.560522
0.534162
0.508036
0.482154
0.456524
0.43115
0.406036
0.38118
0.356581
0.332233
0.308131
0.284264
0.260623
0.237196
0.213968
0.190926
0.168052
0.14533
0.122741
0.100266
0.0778859
0.0555795
0.0333264
0.0111052
0
-4.96751
-4.6039
-4.25363
-3.91666
-3.59288
-3.28217
-2.98441
-2.69942
-2.42702
-2.16702
-1.9192
-1.68333
-1.45916
-1.24643
-1.04489
-0.854251
-0.674236
-0.504555
-0.344914
-0.195013
-0.0545522
0.0767738
0.19927
0.313242
0.418996
0.516836
0.607065
0.689983
0.765888
0.835074
0.897832
0.954447
1.0052
1.05037
1.09022
1.12503
1.15504
1.18051
1.20169
1.21882
1.23212
1.24183
1.24816
1.25133
1.25154
1.24898
1.24385
1.23633
1.2266
1.21482
1.20116
1.18576
1.16879
1.15038
1.13065
1.10975
1.0878
1.06489
1.04116
1.01669
0.991581
0.965927
0.93981
0.91331
0.886499
0.859446
0.832213
0.80486
0.777438
0.749996
0.722578
0.695225
0.667971
0.640848
0.613883
0.587101
0.560522
0.534162
0.508036
0.482154
0.456524
0.43115
0.406036
0.38118
0.356581
0.332233
0.308131
0.284264
0.260623
0.237196
0.213968
0.190926
0.168052
0.14533
0.122741
0.100266
0.0778859
0.0555795
0.0333264
0.0111052
)
;
    }
    frontAndBack
    {
        type            empty;
    }
}


// ************************************************************************* //
