/*--------------------------------*- C++ -*----------------------------------*\
| =========                 |                                                 |
| \\      /  F ield         | OpenFOAM: The Open Source CFD Toolbox           |
|  \\    /   O peration     | Version:  2312                                  |
|   \\  /    A nd           | Website:  www.openfoam.com                      |
|    \\/     M anipulation  |                                                 |
\*---------------------------------------------------------------------------*/
FoamFile
{
    version     2.0;
    format      ascii;
    arch        "LSB;label=32;scalar=64";
    class       surfaceScalarField;
    location    "0.864";
    object      phi;
}
// * * * * * * * * * * * * * * * * * * * * * * * * * * * * * * * * * * * * * //

dimensions      [0 3 -1 0 0 0 0];

oriented        oriented;

internalField   nonuniform List<scalar> 
62015
(
68.8159
0.361897
-68.7499
68.8722
0.356588
68.9194
0.350988
68.9586
0.345103
68.9905
0.33894
69.0157
0.332506
69.035
0.325805
69.049
0.318846
69.0584
0.311633
69.0638
0.304174
69.0656
0.296475
69.0646
0.288542
69.0611
0.280381
69.0557
0.272001
69.0489
0.263406
69.041
0.254605
69.0325
0.245603
69.0238
0.236408
69.0153
0.227026
69.0073
0.217465
69.0001
0.207731
68.9942
0.197833
68.9897
0.187776
68.987
0.177568
68.9862
0.167218
68.9878
0.156731
68.9917
0.146116
68.9984
0.13538
69.0078
0.124532
69.0203
0.113578
69.0359
0.102527
69.0547
0.0913852
69.0769
0.0801629
69.1026
0.0688663
69.1318
0.0575047
69.1645
0.0460852
69.2008
0.0346172
69.2406
0.0231077
69.2841
0.0115659
69.331
0
69.3813
-0.0115818
69.435
-0.0231697
69.492
-0.0347572
69.552
-0.0463335
69.615
-0.0578912
69.6807
-0.0694206
69.7489
-0.0809136
69.8194
-0.09236
69.8919
-0.103752
69.966
-0.11508
70.0415
-0.126333
70.1179
-0.137504
70.1947
-0.148583
70.2716
-0.159559
70.348
-0.170423
70.4233
-0.181164
70.4968
-0.191774
70.5679
-0.20224
70.6357
-0.212553
70.6995
-0.222701
70.7583
-0.232673
70.811
-0.242457
70.8565
-0.252042
70.8933
-0.261414
70.9202
-0.270559
70.9354
-0.279464
70.9372
-0.288114
70.9228
-0.296492
70.8887
-0.304579
70.8352
-0.312351
70.7665
-0.319799
70.6682
-0.326932
70.4801
-0.333679
70.1861
-0.339769
70.0932
-0.345044
70.5643
-0.351167
70.98
-0.358545
64.9593
-0.370514
-0.333749
59.1814
67.1103
0.71687
-67.0705
67.1422
0.70611
67.1665
0.694793
67.1841
0.682933
67.1956
0.670541
67.2017
0.657629
67.2031
0.644207
67.2002
0.630289
67.1936
0.615886
67.1839
0.601009
67.1716
0.585671
67.1572
0.569885
67.1412
0.553662
67.1239
0.537015
67.1059
0.519958
67.0874
0.502502
67.069
0.48466
67.0509
0.466446
67.0335
0.447873
67.0172
0.428955
67.0022
0.409704
66.9888
0.390135
66.9773
0.370262
66.9679
0.350099
66.9609
0.329659
66.9565
0.308957
66.955
0.288008
66.9564
0.266827
66.9609
0.245427
66.9688
0.223824
66.9801
0.202033
66.9949
0.180069
67.0134
0.157948
67.0356
0.135684
67.0616
0.113294
67.0914
0.0907932
67.125
0.0681973
67.1625
0.0455222
67.2038
0.0227846
67.2489
0
67.2978
-0.022815
67.3503
-0.0456436
67.4064
-0.0684699
67.4659
-0.0912769
67.5287
-0.114047
67.5946
-0.136764
67.6635
-0.159411
67.735
-0.18197
67.809
-0.204424
67.8852
-0.226755
67.9632
-0.248945
68.0428
-0.270977
68.1234
-0.292832
68.2048
-0.314492
68.2865
-0.335938
68.3678
-0.357151
68.4484
-0.378112
68.5275
-0.398801
68.6045
-0.419198
68.6787
-0.439282
68.7492
-0.459033
68.8152
-0.478428
68.8756
-0.497446
68.9294
-0.516063
68.9753
-0.534254
69.0118
-0.551993
69.0377
-0.569255
69.0511
-0.58601
69.0496
-0.602228
69.0298
-0.617872
68.9915
-0.632897
68.9389
-0.647282
68.8635
-0.661038
68.7027
-0.674126
68.4655
-0.685717
68.201
-0.696871
69.1517
-0.704083
68.1977
-0.731866
-0.718159
66.5757
65.4426
1.06494
-65.4266
65.4521
1.04862
65.4554
1.03149
65.4532
1.01358
65.4461
0.994915
65.4347
0.975497
65.4194
0.955348
65.4009
0.934484
65.3797
0.912922
65.3562
0.890678
65.3308
0.86777
65.3041
0.844215
65.2764
0.820031
65.2482
0.795235
65.2198
0.769847
65.1916
0.743883
65.1639
0.717363
65.1371
0.690305
65.1115
0.662729
65.0873
0.634653
65.0649
0.606098
65.0446
0.577083
65.0265
0.547628
65.0109
0.517752
64.998
0.487478
64.9881
0.456825
64.9812
0.425814
64.9777
0.394467
64.9775
0.362803
64.981
0.330847
64.9881
0.298618
64.999
0.266139
65.0138
0.233432
65.0326
0.20052
65.0554
0.167424
65.0822
0.134168
65.1132
0.100775
65.1482
0.067266
65.1873
0.0336673
65.2304
0
65.2775
-0.0337114
65.3286
-0.0674428
65.3834
-0.101171
65.4421
-0.134871
65.5043
-0.168519
65.5699
-0.202091
65.6389
-0.235561
65.7109
-0.268906
65.7858
-0.302099
65.8632
-0.335116
65.943
-0.367931
66.0248
-0.400518
66.1083
-0.432851
66.1931
-0.464904
66.2788
-0.49665
66.3649
-0.528063
66.451
-0.559114
66.5366
-0.589777
66.6209
-0.620022
66.7035
-0.649821
66.7836
-0.679144
66.8603
-0.707962
66.933
-0.736242
67.0006
-0.763953
67.0621
-0.791061
67.1163
-0.817531
67.1619
-0.843327
67.1975
-0.86841
67.2217
-0.89274
67.2321
-0.916276
67.2256
-0.938961
67.2008
-0.960741
67.1656
-0.981535
67.0979
-1.00156
67.0158
-1.01998
66.6557
-1.03877
66.7641
-1.04911
66.8871
-1.07335
-1.08396
66.8195
63.8032
1.40601
-63.8083
63.7927
1.38403
63.7773
1.36103
63.7574
1.33703
63.7337
1.31206
63.7065
1.28614
63.6765
1.25927
63.644
1.23149
63.6096
1.20282
63.5737
1.17327
63.5366
1.14287
63.4988
1.11165
63.4607
1.07961
63.4226
1.04679
63.3848
1.01321
63.3478
0.978889
63.3118
0.943855
63.2771
0.90813
63.244
0.871739
63.2128
0.834706
63.1837
0.797057
63.157
0.758816
63.1329
0.72001
63.1117
0.680664
63.0934
0.640804
63.0783
0.600458
63.0667
0.559651
63.0585
0.518411
63.054
0.476766
63.0533
0.434743
63.0566
0.39237
63.0638
0.349675
63.0752
0.306687
63.0907
0.263434
63.1104
0.219946
63.1344
0.176251
63.1627
0.132379
63.1952
0.08836
63.232
0.0442237
63.2731
0
63.3184
-0.0442806
63.3679
-0.0885874
63.4214
-0.13289
63.4789
-0.177157
63.5402
-0.221358
63.6053
-0.26546
63.6739
-0.309433
63.746
-0.353245
63.8212
-0.396862
63.8994
-0.440254
63.9803
-0.483388
64.0637
-0.52623
64.1492
-0.568748
64.2365
-0.610908
64.3253
-0.652675
64.4151
-0.694017
64.5056
-0.734899
64.5962
-0.775285
64.6865
-0.815139
64.7758
-0.854426
64.8637
-0.893109
64.9493
-0.931149
65.032
-0.968509
65.1109
-1.00515
65.1852
-1.04103
65.2539
-1.0761
65.316
-1.11032
65.37
-1.14366
65.4149
-1.17604
65.4491
-1.20744
65.4709
-1.23778
65.4759
-1.26703
65.4685
-1.29501
65.4326
-1.322
65.4234
-1.347
65.2766
-1.37272
65.1061
-1.39237
65.044
-1.41429
-1.4324
65.1477
62.1886
1.73993
-62.2123
62.1606
1.71224
62.1286
1.68334
62.0931
1.65324
62.0546
1.62197
62.0136
1.58955
61.9705
1.556
61.9257
1.52135
61.8797
1.48563
61.8327
1.44886
61.7853
1.41106
61.7377
1.37227
61.6903
1.3325
61.6435
1.29179
61.5975
1.25016
61.5526
1.20764
61.5092
1.16426
61.4675
1.12005
61.4277
1.07503
61.3902
1.02924
61.3552
0.982708
61.3228
0.935462
61.2934
0.887534
61.267
0.838954
61.2439
0.789755
61.2242
0.739969
61.2082
0.689628
61.1959
0.638764
61.1874
0.587411
61.183
0.535602
61.1827
0.48337
61.1865
0.43075
61.1947
0.377776
61.2072
0.324483
61.224
0.270906
61.2453
0.21708
61.271
0.16304
61.3012
0.108823
61.3359
0.054464
61.375
0
61.4184
-0.0545327
61.4662
-0.109098
61.5183
-0.163657
61.5745
-0.218174
61.6349
-0.272611
61.6991
-0.32693
61.7672
-0.381093
61.839
-0.435062
61.9142
-0.488798
61.9928
-0.542263
62.0744
-0.595417
62.1588
-0.648221
62.2457
-0.700636
62.3349
-0.752621
62.426
-0.804136
62.5188
-0.855141
62.6127
-0.905594
62.7074
-0.955455
62.8024
-1.00468
62.8973
-1.05323
62.9914
-1.10105
63.0843
-1.14811
63.1753
-1.19436
63.2636
-1.23975
63.3486
-1.28424
63.4294
-1.32777
63.5051
-1.3703
63.5746
-1.41178
63.6368
-1.45215
63.6904
-1.49134
63.7346
-1.5293
63.7658
-1.566
63.7867
-1.60125
63.7818
-1.63528
63.7801
-1.66719
63.7544
-1.69865
63.667
-1.7273
63.5048
-1.75463
-1.77569
63.5533
60.5983
2.06661
-60.6383
60.5549
2.0332
60.5084
1.99838
60.4593
1.96218
60.4079
1.92462
60.3547
1.88574
60.3001
1.84556
60.2445
1.80411
60.1883
1.76142
60.1317
1.71751
60.0751
1.67242
60.0189
1.62617
59.9634
1.5788
59.9089
1.53033
59.8556
1.4808
59.8039
1.43025
59.7539
1.37869
59.7061
1.32617
59.6605
1.27272
59.6174
1.21838
59.5771
1.16317
59.5398
1.10714
59.5056
1.05032
59.4747
0.992739
59.4473
0.934443
59.4235
0.875466
59.4035
0.815846
59.3875
0.75562
59.3755
0.694828
59.3677
0.633506
59.3642
0.571695
59.365
0.509434
59.3702
0.446763
59.3799
0.383722
59.3941
0.320352
59.4129
0.256693
59.4362
0.192786
59.4642
0.128674
59.4968
0.0643981
59.5339
0
59.5756
-0.0644777
59.6217
-0.128992
59.6723
-0.193501
59.7272
-0.25796
59.7865
-0.322327
59.8498
-0.386557
59.9172
-0.450607
59.9885
-0.514432
60.0635
-0.577989
60.142
-0.641231
60.2239
-0.704116
60.309
-0.766596
60.3969
-0.828626
60.4874
-0.890161
60.5803
-0.951155
60.6752
-1.01156
60.7718
-1.07133
60.8698
-1.13042
60.9686
-1.18878
61.0679
-1.24635
61.1673
-1.3031
61.2662
-1.35897
61.364
-1.41392
61.4602
-1.46788
61.554
-1.52081
61.6449
-1.57265
61.7319
-1.62335
61.8143
-1.67285
61.8911
-1.72109
61.961
-1.76801
62.0235
-1.81353
62.076
-1.85763
62.1199
-1.90012
62.1478
-1.94117
62.1619
-1.98024
62.1658
-2.01781
62.1651
-2.05322
62.0585
-2.08824
-2.1146
62.1098
59.033
2.386
-59.0872
58.9762
2.34685
58.917
2.30612
58.856
2.26384
58.7933
2.22004
58.7296
2.17476
58.665
2.12801
58.5999
2.07983
58.5347
2.03025
58.4697
1.97931
58.4052
1.92703
58.3416
1.87345
58.2789
1.81861
58.2177
1.76253
58.1581
1.70526
58.1003
1.64683
58.0447
1.58728
57.9915
1.52663
57.9408
1.46494
57.8929
1.40224
57.848
1.33857
57.8062
1.27397
57.7678
1.20848
57.7329
1.14213
57.7018
1.07498
57.6744
1.00705
57.651
0.938407
57.6316
0.869076
57.6165
0.799106
57.6057
0.72854
57.5992
0.657421
57.5972
0.585796
57.5998
0.513708
57.6069
0.441203
57.6187
0.368326
57.6352
0.295125
57.6564
0.221644
57.6822
0.147932
57.7128
0.0740347
57.7481
0
57.788
-0.0741243
57.8326
-0.14829
57.8817
-0.222448
57.9353
-0.296552
57.9933
-0.37055
58.0557
-0.444396
58.1222
-0.518038
58.1928
-0.591427
58.2674
-0.664514
58.3457
-0.737248
58.4276
-0.809579
58.513
-0.881456
58.6015
-0.952828
58.6929
-1.02364
58.787
-1.09385
58.8836
-1.1634
58.9823
-1.23224
59.0827
-1.30031
59.1846
-1.36756
59.2875
-1.43394
59.3911
-1.4994
59.4948
-1.56387
59.5982
-1.62731
59.7008
-1.68966
59.8021
-1.75085
59.9013
-1.81084
59.9978
-1.86956
60.0909
-1.92695
60.1798
-1.98294
60.2634
-2.03748
60.3412
-2.09048
60.4114
-2.1419
60.4738
-2.19161
60.5263
-2.23963
60.5671
-2.28573
60.5893
-2.33003
60.6214
-2.37166
60.5775
-2.41349
-2.44647
60.6622
57.4938
2.69806
-57.5604
57.4253
2.65319
57.3551
2.60658
57.2837
2.55827
57.2113
2.50828
57.1383
2.45664
57.065
2.4034
56.9918
2.34858
56.9188
2.29222
56.8465
2.23434
56.7752
2.175
56.7049
2.11422
56.6362
2.05205
56.5691
1.98851
56.504
1.92365
56.4411
1.85751
56.3805
1.79013
56.3226
1.72155
56.2674
1.65181
56.2153
1.58096
56.1664
1.50903
56.1208
1.43607
56.0788
1.36213
56.0404
1.28724
56.0059
1.21147
55.9754
1.13484
55.9489
1.05741
55.9266
0.979224
55.9087
0.900333
55.8952
0.820783
55.8861
0.740622
55.8817
0.659901
55.8818
0.578669
55.8867
0.496976
55.8962
0.414873
55.9106
0.33241
55.9297
0.24964
55.9537
0.166613
55.9824
0.0833823
56.0159
0
56.0541
-0.0834811
56.0971
-0.167008
56.1448
-0.250527
56.197
-0.333985
56.2538
-0.417327
56.3151
-0.500499
56.3807
-0.583448
56.4505
-0.666117
56.5245
-0.748453
56.6024
-0.830399
56.6841
-0.911901
56.7694
-0.992902
56.8581
-1.07335
56.9501
-1.15318
57.045
-1.23234
57.1427
-1.31078
57.2429
-1.38844
57.3452
-1.46525
57.4494
-1.54117
57.5552
-1.61612
57.6621
-1.69007
57.7697
-1.76294
57.8777
-1.83467
57.9856
-1.90521
58.0928
-1.9745
58.1989
-2.04246
58.3033
-2.10904
58.4053
-2.17417
58.5042
-2.23779
58.5993
-2.29983
58.6899
-2.3602
58.7748
-2.41886
58.8531
-2.4757
58.9237
-2.53068
58.9872
-2.58363
59.0333
-2.63476
59.0849
-2.68292
59.0781
-2.73108
-2.77054
59.1867
55.9817
3.0028
-56.059
55.9031
2.95224
55.8234
2.8998
55.743
2.8455
55.6621
2.78938
55.5811
2.73147
55.5003
2.67182
55.42
2.61045
55.3404
2.54741
55.2618
2.48272
55.1844
2.41644
55.1086
2.34859
55.0346
2.27923
54.9625
2.20838
54.8926
2.1361
54.8252
2.06242
54.7604
1.98739
54.6984
1.91105
54.6394
1.83346
54.5837
1.75464
54.5313
1.67466
54.4824
1.59356
54.4372
1.51139
54.3958
1.42819
54.3584
1.34402
54.3251
1.25892
54.2959
1.17295
54.2711
1.08616
54.2507
0.998593
54.2348
0.910314
54.2234
0.82137
54.2167
0.731816
54.2147
0.641705
54.2175
0.551093
54.2251
0.460034
54.2374
0.368584
54.2547
0.276799
54.2768
0.184735
54.3038
0.0924502
54.3356
0
54.3723
-0.0925574
54.4137
-0.185164
54.4599
-0.277762
54.5108
-0.370293
54.5664
-0.462699
54.6265
-0.554919
54.6911
-0.646896
54.76
-0.738569
54.8331
-0.829879
54.9104
-0.920766
54.9917
-1.01117
55.0768
-1.10103
55.1655
-1.19029
55.2576
-1.27888
55.353
-1.36674
55.4514
-1.45382
55.5526
-1.54005
55.6563
-1.62537
55.7622
-1.70972
55.8701
-1.79303
55.9795
-1.87525
56.0903
-1.9563
56.2019
-2.03613
56.314
-2.11467
56.4261
-2.19186
56.5379
-2.26762
56.6487
-2.3419
56.758
-2.41463
56.8652
-2.48572
56.9698
-2.55513
57.0709
-2.62276
57.1678
-2.68856
57.2599
-2.75242
57.3454
-2.81431
57.4259
-2.87403
57.4932
-2.93184
57.5647
-2.98663
57.5854
-3.04118
-3.08699
57.7093
54.4976
3.30025
-54.5842
54.4102
3.24404
54.3223
3.18581
54.2341
3.12559
54.146
3.06342
54.0582
2.99933
53.9709
2.93336
53.8845
2.86555
53.7991
2.79594
53.7151
2.72456
53.6327
2.65146
53.5521
2.57669
53.4735
2.50028
53.3971
2.42227
53.3232
2.34272
53.2519
2.26168
53.1835
2.17917
53.118
2.09526
53.0558
2.01
52.9969
1.92343
52.9415
1.8356
52.8898
1.74656
52.8418
1.65637
52.7979
1.56508
52.7579
1.47273
52.7222
1.3794
52.6907
1.28512
52.6636
1.18996
52.6411
1.09397
52.623
0.99721
52.6096
0.899734
52.6009
0.801602
52.597
0.702871
52.5979
0.6036
52.6036
0.503849
52.6142
0.403678
52.6297
0.303147
52.6502
0.202315
52.6755
0.101246
52.7057
0
52.7408
-0.101361
52.7808
-0.202776
52.8256
-0.30418
52.8751
-0.405512
52.9294
-0.506708
52.9883
-0.607705
53.0518
-0.708441
53.1197
-0.808849
53.192
-0.908868
53.2685
-1.00843
53.3491
-1.10748
53.4337
-1.20594
53.5221
-1.30375
53.6142
-1.40085
53.7097
-1.49717
53.8084
-1.59265
53.9102
-1.68722
54.0148
-1.78081
54.1219
-1.87336
54.2313
-1.9648
54.3427
-2.05507
54.4558
-2.1441
54.5702
-2.23183
54.6856
-2.31817
54.8017
-2.40307
54.9179
-2.48646
55.0339
-2.56827
55.1492
-2.64842
55.2632
-2.72685
55.3755
-2.80348
55.4854
-2.87824
55.5922
-2.95106
55.6955
-3.02184
55.7937
-3.09054
55.888
-3.15696
55.9719
-3.22136
56.0607
-3.28267
56.1054
-3.34362
-3.39579
56.2416
53.0422
3.59044
-53.1367
52.9473
3.52864
52.8524
3.4647
52.7575
3.39863
52.6632
3.33049
52.5695
3.26031
52.4767
3.18812
52.3851
3.11397
52.2948
3.03791
52.2062
2.95996
52.1195
2.88019
52.0348
2.79862
51.9523
2.71531
51.8723
2.63031
51.795
2.54366
51.7204
2.45541
51.6489
2.36561
51.5805
2.27431
51.5155
2.18156
51.4539
2.08742
51.396
1.99194
51.3419
1.89518
51.2916
1.79718
51.2454
1.69801
51.2033
1.59772
51.1655
1.49637
51.132
1.39402
51.103
1.29073
51.0785
1.18655
51.0586
1.08155
51.0434
0.975785
51.0329
0.869322
51.0272
0.762222
51.0264
0.654547
51.0305
0.54636
51.0395
0.437725
51.0533
0.328707
51.0722
0.21937
51.096
0.109779
51.1247
0
51.1583
-0.109901
51.1969
-0.219858
51.2403
-0.329804
51.2885
-0.439672
51.3414
-0.549396
51.3991
-0.658907
51.4614
-0.768139
51.5282
-0.877022
51.5995
-0.98549
51.6752
-1.09347
51.755
-1.2009
51.8389
-1.30771
51.9268
-1.41383
52.0185
-1.5192
52.1138
-1.62373
52.2125
-1.72737
52.3145
-1.83004
52.4196
-1.93168
52.5274
-2.03221
52.6379
-2.13156
52.7506
-2.22968
52.8654
-2.32647
52.9819
-2.42189
53.0999
-2.51584
53.219
-2.60828
53.3388
-2.69911
53.4589
-2.78827
53.579
-2.87569
53.6985
-2.96129
53.817
-3.04501
53.9341
-3.12675
54.049
-3.20646
54.1614
-3.28403
54.2701
-3.35943
54.376
-3.43246
54.4733
-3.50336
54.5758
-3.57109
54.6407
-3.63834
-3.69686
54.7868
51.6159
3.87344
-51.7173
51.5147
3.80612
51.4137
3.73653
51.3133
3.6647
51.2136
3.59068
51.115
3.5145
51.0175
3.43621
50.9215
3.35584
50.8272
3.27344
50.7347
3.18906
50.6443
3.10274
50.5562
3.01452
50.4705
2.92447
50.3874
2.83262
50.3072
2.73903
50.2299
2.64374
50.1558
2.54682
50.085
2.44831
50.0176
2.34827
49.9538
2.24676
49.8937
2.14383
49.8375
2.03954
49.7853
1.93394
49.7372
1.8271
49.6933
1.71908
49.6537
1.60994
49.6184
1.49974
49.5877
1.38854
49.5616
1.2764
49.5401
1.1634
49.5233
1.04959
49.5112
0.935036
49.504
0.819811
49.5017
0.703977
49.5042
0.587603
49.5117
0.470756
49.5241
0.353503
49.5415
0.235913
49.5638
0.118056
49.5911
0
49.6233
-0.118184
49.6604
-0.236427
49.7025
-0.354658
49.7493
-0.472807
49.801
-0.590801
49.8574
-0.708571
49.9185
-0.826044
49.9842
-0.94315
50.0544
-1.05982
50.129
-1.17597
50.2079
-1.29154
50.291
-1.40645
50.3782
-1.52064
50.4693
-1.63402
50.5641
-1.74653
50.6626
-1.8581
50.7645
-1.96864
50.8696
-2.0781
50.9778
-2.18639
51.0888
-2.29344
51.2024
-2.39919
51.3184
-2.50355
51.4364
-2.60645
51.5562
-2.70783
51.6775
-2.8076
51.8
-2.90569
51.9234
-3.00204
52.0472
-3.09656
52.1711
-3.18917
52.2946
-3.27981
52.4174
-3.3684
52.5389
-3.45485
52.6588
-3.53909
52.7759
-3.62106
52.8913
-3.70058
52.9998
-3.77788
53.1134
-3.85195
53.1947
-3.92539
-3.99018
53.3485
50.2193
4.14932
-50.3264
50.1126
4.07655
50.0066
4.0014
49.9014
3.9239
49.7973
3.8441
49.6945
3.76202
49.5931
3.67773
49.4935
3.59126
49.3957
3.50265
49.3
3.41196
49.2066
3.31923
49.1156
3.22452
49.0272
3.12786
48.9417
3.02933
48.859
2.92896
48.7795
2.82681
48.7033
2.72293
48.6304
2.6174
48.5611
2.51025
48.4955
2.40155
48.4336
2.29136
48.3757
2.17974
48.3219
2.06675
48.2721
1.95245
48.2267
1.83691
48.1856
1.72019
48.1489
1.60236
48.1167
1.48348
48.0891
1.36361
48.0662
1.24283
48.048
1.12121
48.0346
0.998802
48.026
0.875689
48.0223
0.751937
48.0234
0.627617
48.0295
0.5028
48.0406
0.377557
48.0566
0.251962
48.0775
0.126085
48.1034
0
48.1343
-0.126219
48.1701
-0.252499
48.2108
-0.378766
48.2563
-0.504946
48.3067
-0.630963
48.3618
-0.756743
48.4217
-0.882212
48.4861
-1.00729
48.5552
-1.13191
48.6287
-1.25599
48.7065
-1.37946
48.7887
-1.50224
48.875
-1.62425
48.9653
-1.74543
49.0595
-1.86568
49.1574
-1.98495
49.2589
-2.10314
49.3639
-2.2202
49.472
-2.33603
49.5832
-2.45057
49.6972
-2.56374
49.8138
-2.67546
49.9327
-2.78566
50.0538
-2.89426
50.1767
-3.00118
50.3012
-3.10636
50.4269
-3.20971
50.5536
-3.31115
50.6809
-3.41062
50.8084
-3.50803
50.9357
-3.6033
51.0625
-3.69637
51.1883
-3.78713
51.3123
-3.87555
51.4353
-3.96143
51.5529
-4.04501
51.6756
-4.1253
51.7704
-4.20483
-4.27581
51.9301
48.8524
4.41816
-48.9643
48.7413
4.34003
48.631
4.25941
48.5219
4.17633
48.4141
4.09084
48.3078
4.00299
48.2033
3.91281
48.1006
3.82035
48
3.72567
47.9017
3.6288
47.8058
3.52981
47.7125
3.42873
47.6219
3.32563
47.5343
3.22056
47.4498
3.11357
47.3684
3.00473
47.2904
2.89408
47.2159
2.78168
47.1451
2.66761
47.0779
2.55191
47.0146
2.43465
46.9554
2.3159
46.9001
2.19572
46.8491
2.07416
46.8024
1.95131
46.76
1.82723
46.722
1.70198
46.6886
1.57563
46.6598
1.44825
46.6357
1.31992
46.6163
1.19071
46.6016
1.06068
46.5918
0.929907
46.5869
0.798469
46.5868
0.666438
46.5916
0.533887
46.6014
0.400893
46.6161
0.267529
46.6358
0.133873
46.6604
0
46.69
-0.134013
46.7245
-0.268089
46.7638
-0.40215
46.8081
-0.536119
46.8571
-0.669918
46.911
-0.803469
46.9695
-0.936692
47.0328
-1.06951
47.1006
-1.20185
47.1729
-1.33362
47.2496
-1.46475
47.3307
-1.59516
47.4159
-1.72477
47.5053
-1.85351
47.5986
-1.98128
47.6958
-2.10803
47.7967
-2.23366
47.9011
-2.35809
48.0089
-2.48126
48.1199
-2.60307
48.2339
-2.72346
48.3508
-2.84234
48.4702
-2.95963
48.592
-3.07527
48.7159
-3.18916
48.8417
-3.30124
48.9692
-3.41141
49.098
-3.51962
49.2278
-3.62577
49.3583
-3.72979
49.4891
-3.8316
49.62
-3.93112
49.7505
-4.02827
49.88
-4.12299
50.0091
-4.21511
50.134
-4.30484
50.2639
-4.39124
50.3699
-4.47673
-4.5538
50.5339
47.5155
4.68007
-47.6314
47.4006
4.59666
47.2869
4.51066
47.1746
4.4221
47.0638
4.33104
46.9547
4.23751
46.8475
4.14156
46.7424
4.04325
46.6396
3.94261
46.5391
3.83971
46.4413
3.73458
46.3461
3.62729
46.2539
3.5179
46.1646
3.40645
46.0785
3.293
45.9958
3.17762
45.9164
3.06037
45.8406
2.9413
45.7685
2.82047
45.7002
2.69796
45.6358
2.57382
45.5754
2.44813
45.5191
2.32094
45.467
2.19234
45.4192
2.06237
45.3758
1.93113
45.3368
1.79867
45.3024
1.66507
45.2725
1.5304
45.2473
1.39473
45.2269
1.25815
45.2112
1.12072
45.2002
0.982513
45.1942
0.843615
45.193
0.704101
45.1967
0.564046
45.2053
0.423531
45.2188
0.282631
45.2373
0.141428
45.2607
0
45.289
-0.141573
45.3222
-0.28321
45.3603
-0.424831
45.4032
-0.566356
45.451
-0.707702
45.5036
-0.84879
45.5608
-0.989536
45.6227
-1.12986
45.6893
-1.26968
45.7603
-1.40892
45.8358
-1.54748
45.9157
-1.6853
45.9998
-1.82229
46.0881
-1.95836
46.1804
-2.09344
46.2767
-2.22744
46.3767
-2.36029
46.4804
-2.4919
46.5876
-2.62218
46.6981
-2.75107
46.8118
-2.87848
46.9285
-3.00432
47.0479
-3.12852
47.17
-3.251
47.2945
-3.37168
47.4211
-3.49047
47.5496
-3.6073
47.6798
-3.72209
47.8114
-3.83476
47.9441
-3.94523
48.0776
-4.05342
48.2115
-4.15925
48.3457
-4.26263
48.4795
-4.36352
48.6134
-4.46174
48.7441
-4.55749
48.8798
-4.64986
48.9948
-4.7412
-4.82424
49.1619
46.2085
4.93514
-46.3276
46.0906
4.84655
45.9741
4.75526
45.8592
4.66133
45.746
4.5648
45.6347
4.46571
45.5255
4.36412
45.4185
4.26007
45.3139
4.15361
45.2118
4.0448
45.1124
3.93369
45.0159
3.82033
44.9223
3.70479
44.8318
3.58712
44.7446
3.46738
44.6607
3.34563
44.5803
3.22193
44.5035
3.09635
44.4305
2.96896
44.3612
2.83981
44.2959
2.70898
44.2347
2.57653
44.1775
2.44254
44.1246
2.30707
44.076
2.17019
44.0317
2.03199
43.9919
1.89252
43.9567
1.75188
43.926
1.61012
43.8999
1.46733
43.8785
1.32359
43.8619
1.17897
43.85
1.03355
43.843
0.887417
43.8407
0.74064
43.8434
0.593305
43.8509
0.445491
43.8634
0.297281
43.8807
0.148757
43.9029
-2.99013e-07
43.93
-0.148906
43.962
-0.297877
43.9989
-0.446831
44.0405
-0.595684
44.087
-0.744351
44.1383
-0.892749
44.1942
-1.04079
44.2548
-1.1884
44.32
-1.33548
44.3898
-1.48195
44.464
-1.62774
44.5426
-1.77274
44.6255
-1.91688
44.7125
-2.06008
44.8037
-2.20225
44.8988
-2.3433
44.9978
-2.48316
45.1006
-2.62173
45.2069
-2.75894
45.3167
-2.8947
45.4298
-3.02892
45.546
-3.16153
45.6651
-3.29245
45.7871
-3.42159
45.9116
-3.54886
46.0386
-3.6742
46.1676
-3.79751
46.2987
-3.91871
46.4314
-4.03773
46.5655
-4.15449
46.7009
-4.2689
46.8371
-4.38089
46.974
-4.49036
47.111
-4.59727
47.2486
-4.70145
47.3838
-4.80307
47.524
-4.90129
47.6463
-4.99834
-5.08723
47.8154
44.9314
5.18348
-45.0531
44.8112
5.0898
44.6925
4.99334
44.5756
4.89414
44.4605
4.79225
44.3475
4.68772
44.2367
4.5806
44.1283
4.47094
44.0224
4.35879
43.9191
4.24421
43.8186
4.12725
43.721
4.00797
43.6264
3.88643
43.5351
3.76269
43.447
3.63681
43.3623
3.50885
43.2812
3.37888
43.2038
3.24697
43.13
3.11317
43.0601
2.97757
42.9942
2.84022
42.9323
2.7012
42.8746
2.56059
42.821
2.41845
42.7717
2.27486
42.7268
2.12989
42.6864
1.98362
42.6504
1.83612
42.619
1.68749
42.5922
1.53778
42.57
1.38709
42.5526
1.2355
42.5399
1.08308
42.532
0.929914
42.5289
0.77609
42.5306
0.621689
42.5371
0.466795
42.5485
0.311492
42.5648
0.155865
42.5859
0
42.6118
-0.156019
42.6426
-0.312104
42.6783
-0.468171
42.7187
-0.624131
42.7639
-0.779899
42.8139
-0.935387
42.8685
-1.09051
42.9278
-1.24518
42.9916
-1.3993
43.06
-1.5528
43.1329
-1.70558
43.2101
-1.85756
43.2916
-2.00865
43.3774
-2.15876
43.4673
-2.30781
43.5612
-2.4557
43.659
-2.60236
43.7606
-2.7477
43.8659
-2.89163
43.9747
-3.03406
44.0869
-3.17492
44.2024
-3.31411
44.3209
-3.45155
44.4424
-3.58716
44.5667
-3.72086
44.6935
-3.85256
44.8226
-3.98217
44.954
-4.10963
45.0873
-4.23483
45.2223
-4.35771
45.3589
-4.47819
45.4966
-4.59617
45.6354
-4.71159
45.7747
-4.82437
45.9151
-4.93436
46.0537
-5.04173
46.1972
-5.14566
46.3254
-5.24828
-5.3429
46.4956
43.6841
5.42521
-43.8078
43.5621
5.32654
43.4418
5.225
43.3233
5.12065
43.2069
5.01352
43.0927
4.90366
42.9808
4.79114
42.8713
4.676
42.7645
4.55829
42.6603
4.43807
42.5591
4.31541
42.4608
4.19035
42.3656
4.06296
42.2737
3.9333
42.1851
3.80143
42.0999
3.66743
42.0183
3.53135
41.9404
3.39326
41.8662
3.25324
41.7959
3.11135
41.7296
2.96766
41.6673
2.82226
41.6091
2.6752
41.5551
2.52657
41.5053
2.37645
41.4599
2.22491
41.419
2.07203
41.3825
1.91789
41.3505
1.76257
41.3231
1.60615
41.3003
1.44871
41.2822
1.29034
41.2687
1.13113
41.26
0.971144
41.2561
0.810481
41.2569
0.649225
41.2626
0.487462
41.273
0.325278
41.2883
0.162761
41.3083
0
41.3332
-0.162918
41.3629
-0.325904
41.3973
-0.488869
41.4365
-0.651724
41.4805
-0.814378
41.5291
-0.976744
41.5824
-1.13873
41.6403
-1.30025
41.7028
-1.46121
41.7698
-1.62152
41.8413
-1.78109
41.9171
-1.93983
41.9972
-2.09766
42.0816
-2.25448
42.1701
-2.41021
42.2627
-2.56475
42.3591
-2.71801
42.4595
-2.86992
42.5635
-3.02037
42.6712
-3.16929
42.7823
-3.31659
42.8968
-3.46217
43.0145
-3.60596
43.1352
-3.74786
43.2588
-3.8878
43.3851
-4.02569
43.514
-4.16144
43.6452
-4.29497
43.7786
-4.4262
43.914
-4.55505
44.0512
-4.68142
44.1898
-4.80526
44.3298
-4.92646
44.4707
-5.04497
44.6129
-5.16063
44.7541
-5.27361
44.9
-5.3831
45.0327
-5.49116
-5.59138
45.2033
42.4664
5.66045
-42.5916
42.3431
5.5569
42.2216
5.45039
42.1021
5.34098
41.9848
5.22872
41.8697
5.11366
41.7571
4.99586
41.647
4.87536
41.5395
4.75222
41.4349
4.62651
41.3332
4.49827
41.2345
4.36758
41.139
4.23448
41.0468
4.09906
40.9579
3.96136
40.8725
3.82146
40.7907
3.67943
40.7125
3.53534
40.6382
3.38926
40.5676
3.24125
40.5011
3.0914
40.4385
2.93978
40.38
2.78647
40.3258
2.63154
40.2757
2.47507
40.23
2.31714
40.1887
2.15784
40.1518
1.99724
40.1194
1.83543
40.0915
1.67249
40.0681
1.5085
40.0494
1.34356
40.0354
1.17774
40.026
1.01114
40.0213
0.843846
40.0214
0.675938
40.0262
0.50751
40.0357
0.338651
40.05
0.16945
40.0691
0
40.0929
-0.16961
40.1215
-0.339289
40.1548
-0.508945
40.1928
-0.678486
40.2355
-0.847821
40.2829
-1.01686
40.3348
-1.1855
40.3914
-1.35367
40.4525
-1.52125
40.5181
-1.68817
40.5881
-1.85433
40.6625
-2.01964
40.7411
-2.18401
40.824
-2.34734
40.9111
-2.50954
41.0022
-2.67053
41.0972
-2.83021
41.1961
-2.98849
41.2988
-3.14528
41.4051
-3.3005
41.515
-3.45404
41.6283
-3.60584
41.7448
-3.75579
41.8645
-3.90381
41.9872
-4.04982
42.1128
-4.19373
42.241
-4.33544
42.3718
-4.47489
42.5049
-4.61198
42.6401
-4.74663
42.7774
-4.87876
42.9164
-5.00828
43.057
-5.13512
43.1988
-5.25921
43.3422
-5.3804
43.4851
-5.49883
43.6326
-5.61376
43.7687
-5.72712
-5.8328
43.9391
41.2781
5.88933
-41.4042
41.1539
5.78098
41.0316
5.66961
40.9115
5.55527
40.7936
5.438
40.6781
5.31785
40.5651
5.19489
40.4547
5.06916
40.347
4.94073
40.2422
4.80965
40.1403
4.67598
40.0416
4.53979
39.946
4.40114
39.8537
4.26009
39.7647
4.11672
39.6793
3.97108
39.5975
3.82326
39.5193
3.67332
39.4449
3.52134
39.3743
3.36739
39.3077
3.21154
39.2451
3.05388
39.1865
2.89448
39.1321
2.73343
39.0819
2.57079
39.036
2.40666
38.9945
2.24112
38.9573
2.07425
38.9245
1.90613
38.8962
1.73686
38.8725
1.56652
38.8533
1.39519
38.8387
1.22298
38.8287
1.04995
38.8234
0.876214
38.8228
0.701853
38.8268
0.526958
38.8355
0.351623
38.8489
0.175939
38.8671
0
38.8899
-0.176102
38.9174
-0.352273
38.9496
-0.528418
38.9864
-0.704445
39.0279
-0.880259
39.074
-1.05577
39.1246
-1.23087
39.1798
-1.40548
39.2395
-1.57949
39.3037
-1.75282
39.3722
-1.92537
39.4451
-2.09705
39.5223
-2.26776
39.6036
-2.43741
39.6891
-2.6059
39.7787
-2.77314
39.8722
-2.93905
39.9696
-3.10352
40.0708
-3.26646
40.1756
-3.42779
40.2841
-3.58742
40.396
-3.74524
40.5112
-3.90118
40.6297
-4.05515
40.7512
-4.20705
40.8757
-4.35681
41.003
-4.50432
41.1329
-4.64952
41.2653
-4.79231
41.4001
-4.93261
41.537
-5.07033
41.6759
-5.2054
41.8166
-5.33772
41.9587
-5.46724
42.1027
-5.59381
42.2466
-5.71756
42.395
-5.83778
42.5337
-5.9563
-6.0673
42.7033
40.1188
6.11196
-40.2454
39.9941
5.99894
39.8715
5.88281
39.7511
5.76364
39.633
5.64147
39.5174
5.51636
39.4043
5.38837
39.2939
5.25754
39.1862
5.12394
39.0815
4.98762
38.9797
4.84866
38.8811
4.70711
38.7857
4.56304
38.6935
4.41652
38.6048
4.26762
38.5195
4.1164
38.4379
3.96294
38.3598
3.80732
38.2856
3.6496
38.2152
3.48986
38.1486
3.32818
38.0861
3.16465
38.0276
2.99934
37.9732
2.83232
37.923
2.6637
37.877
2.49354
37.8353
2.32194
37.7979
2.14898
37.7649
1.97474
37.7364
1.79932
37.7123
1.62281
37.6927
1.44529
37.6777
1.26686
37.6672
1.0876
37.6613
0.907616
37.66
0.726993
37.6633
0.545824
37.6712
0.364207
37.6838
0.182234
37.7011
-2.9902e-07
37.7229
-0.182398
37.7494
-0.364866
37.7805
-0.547307
37.8162
-0.729624
37.8565
-0.911722
37.9013
-1.0935
37.9506
-1.27487
38.0045
-1.45573
38.0628
-1.63598
38.1255
-1.81553
38.1925
-1.99428
38.2639
-2.17214
38.3395
-2.349
38.4193
-2.52478
38.5032
-2.69937
38.5911
-2.87268
38.683
-3.04463
38.7788
-3.21511
38.8784
-3.38402
38.9817
-3.55129
39.0886
-3.71681
39.1989
-3.8805
39.3127
-4.04225
39.4297
-4.20199
39.5499
-4.35963
39.6731
-4.51506
39.7991
-4.66822
39.928
-4.819
40.0594
-4.96733
40.1933
-5.11312
40.3296
-5.25629
40.4679
-5.39674
40.6082
-5.53441
40.7503
-5.66921
40.8943
-5.80102
41.0386
-5.92995
41.1873
-6.05531
41.3277
-6.17886
-6.29505
41.4961
38.9882
6.32848
-39.115
38.8634
6.21089
38.7408
6.09012
38.6204
5.96623
38.5025
5.83928
38.387
5.70932
38.2741
5.57641
38.1639
5.44061
38.0566
5.30197
37.9521
5.16055
37.8507
5.01643
37.7524
4.86966
37.6574
4.72032
37.5656
4.56847
37.4772
4.41418
37.3923
4.25753
37.311
4.09858
37.2333
3.93742
37.1593
3.77412
37.0892
3.60876
37.0229
3.44142
36.9605
3.27218
36.9022
3.10112
36.8479
2.92832
36.7978
2.75387
36.7518
2.57786
36.7101
2.40037
36.6727
2.2215
36.6396
2.04132
36.6108
1.85993
36.5865
1.67743
36.5666
1.4939
36.5512
1.30943
36.5402
1.12413
36.5338
0.938081
36.5319
0.751381
36.5346
0.564126
36.5419
0.376414
36.5537
0.188339
36.57
0
36.591
-0.188506
36.6165
-0.377081
36.6465
-0.565627
36.6811
-0.754046
36.7202
-0.942239
36.7638
-1.13011
36.8118
-1.31755
36.8643
-1.50447
36.9212
-1.69077
36.9825
-1.87636
37.048
-2.06112
37.1178
-2.24497
37.1919
-2.4278
37.27
-2.60952
37.3523
-2.79004
37.4386
-2.96924
37.5288
-3.14705
37.6229
-3.32336
37.7208
-3.49807
37.8224
-3.6711
37.9276
-3.84235
38.0363
-4.01172
38.1484
-4.17912
38.2638
-4.34447
38.3825
-4.50767
38.5042
-4.66863
38.6288
-4.82726
38.7563
-4.98348
38.8865
-5.13719
39.0193
-5.28832
39.1545
-5.43677
39.292
-5.58247
39.4316
-5.72532
39.573
-5.86527
39.7166
-6.00217
39.8609
-6.13614
40.0094
-6.26651
40.1508
-6.39495
-6.51618
40.3176
37.8859
6.53902
-38.0126
37.7614
6.41696
37.639
6.29165
37.519
6.16317
37.4014
6.03155