/*--------------------------------*- C++ -*----------------------------------*\
| =========                 |                                                 |
| \\      /  F ield         | OpenFOAM: The Open Source CFD Toolbox           |
|  \\    /   O peration     | Version:  2312                                  |
|   \\  /    A nd           | Website:  www.openfoam.com                      |
|    \\/     M anipulation  |                                                 |
\*---------------------------------------------------------------------------*/
FoamFile
{
    version     2.0;
    format      ascii;
    arch        "LSB;label=32;scalar=64";
    class       surfaceScalarField;
    location    "0.978";
    object      phi;
}
// * * * * * * * * * * * * * * * * * * * * * * * * * * * * * * * * * * * * * //

dimensions      [0 3 -1 0 0 0 0];

oriented        oriented;

internalField   nonuniform List<scalar> 
62015
(
77.5385
0.407876
-78.0055
77.0706
0.399177
76.6022
0.390286
76.1333
0.38121
75.6642
0.371955
75.1951
0.362529
74.726
0.352938
74.2571
0.34319
73.7885
0.333292
73.3203
0.323252
72.8524
0.313077
72.3848
0.302774
71.9177
0.292353
71.4509
0.28182
70.9843
0.271185
70.5179
0.260455
70.0514
0.249639
69.5847
0.238745
69.1176
0.227783
68.6498
0.216761
68.181
0.205689
67.7108
0.194577
67.2389
0.183432
66.7646
0.172266
66.2874
0.16109
65.8068
0.149911
65.322
0.138742
64.8322
0.127593
64.3364
0.116476
63.8337
0.105403
63.3227
0.0943838
62.8023
0.0834322
62.2707
0.0725621
61.7262
0.0617858
61.1667
0.0511189
60.5897
0.0405759
59.9924
0.0301742
59.3713
0.0199307
58.7222
0.0098654
58.04
0
57.3187
-0.00964146
56.5502
-0.0190302
55.7212
-0.0281349
54.8135
-0.0369114
53.8208
-0.0453054
52.7567
-0.0532679
51.5306
-0.0607806
49.6294
-0.0676275
46.1125
-0.0726788
40.6674
-0.0737085
34.6204
-0.0698682
29.8492
-0.0641552
27.0242
-0.0604503
25.6646
-0.0598441
25.1118
-0.0614702
24.9524
-0.0643309
24.9844
-0.067828
25.1159
-0.0716647
25.3048
-0.0757007
25.5308
-0.0798676
25.7831
-0.0841303
26.0556
-0.0884689
26.3446
-0.0928709
26.6477
-0.0973276
26.9631
-0.101833
27.2896
-0.10638
27.6264
-0.110966
27.9726
-0.115586
28.3278
-0.120235
28.6915
-0.124911
29.0633
-0.129609
29.443
-0.134326
29.8302
-0.139059
30.2252
-0.143802
30.6261
-0.148559
31.0383
-0.153302
31.4444
-0.158108
31.8974
-0.162719
-0.16793
32.2343
75.1536
0.802872
-75.6132
74.6938
0.785679
74.2338
0.768116
73.7739
0.750196
73.3143
0.731932
72.8551
0.713336
72.3964
0.694422
71.9383
0.675205
71.4808
0.655699
71.0242
0.635917
70.5682
0.615875
70.1131
0.595587
69.6587
0.57507
69.2051
0.554338
68.7521
0.533408
68.2996
0.512295
67.8474
0.491016
67.3955
0.469588
66.9436
0.448028
66.4915
0.426353
66.0387
0.404582
65.5851
0.382732
65.1302
0.360822
64.6736
0.33887
64.2147
0.316897
63.753
0.294923
63.2877
0.272967
62.8182
0.25105
62.3436
0.229195
61.8629
0.207424
61.375
0.185759
60.8787
0.164226
60.3725
0.142848
59.8549
0.121653
59.3238
0.100667
58.7771
0.079921
58.2122
0.0594458
57.626
0.0392752
57.0147
0.0194465
56.3739
0
55.698
-0.0190183
54.9804
-0.0375563
54.2104
-0.0555539
53.3716
-0.0729355
52.4513
-0.0895983
51.4598
-0.105436
50.3748
-0.120405
48.8841
-0.134333
46.168
-0.145781
41.5293
-0.150783
35.6668
-0.145768
30.4382
-0.134123
27.0256
-0.124276
25.2661
-0.120652
24.5008
-0.122353
24.2339
-0.127186
24.207
-0.133642
24.3011
-0.140942
24.4622
-0.148713
24.6647
-0.15678
24.8957
-0.165053
25.148
-0.173483
25.4174
-0.182041
25.701
-0.190709
25.9971
-0.199471
26.3043
-0.208316
26.6217
-0.217235
26.9484
-0.226219
27.2839
-0.23526
27.6278
-0.24435
27.9796
-0.253483
28.339
-0.26265
28.7058
-0.271847
29.0801
-0.281062
29.4602
-0.290303
29.851
-0.299516
30.2365
-0.308845
30.6656
-0.317806
-0.327894
30.9887
72.8328
1.18525
-73.2846
72.3811
1.15977
71.9298
1.13375
71.4789
1.10722
71.0288
1.08019
70.5795
1.05268
70.131
1.02471
69.6836
0.996298
69.2372
0.967468
68.7919
0.938239
68.3477
0.908633
67.9046
0.878671
67.4627
0.848376
67.0218
0.817771
66.5819
0.786878
66.1428
0.755722
65.7045
0.724325
65.2668
0.692712
64.8295
0.660909
64.3923
0.62894
63.9549
0.596831
63.5171
0.564609
63.0785
0.532301
62.6386
0.499933
62.197
0.467535
61.7531
0.435136
61.3063
0.402764
60.8559
0.370451
60.4011
0.338226
59.9411
0.306124
59.4748
0.274178
59.001
0.242421
58.5185
0.210891
58.0258
0.179624
57.5211
0.148662
57.0023
0.118046
56.4673
0.0878216
55.9131
0.058036
55.3364
0.0287434
54.7332
0
54.0985
-0.028129
53.4266
-0.0555701
52.7089
-0.0822397
51.9314
-0.108036
51.0786
-0.132822
50.1528
-0.15643
49.1606
-0.178767
47.9368
-0.199752
45.8492
-0.21815
42.0386
-0.229237
36.61
-0.226296
31.137
-0.210186
27.1753
-0.192612
24.9741
-0.183389
23.9588
-0.183245
23.5653
-0.188929
23.4716
-0.197697
23.5255
-0.208042
23.6582
-0.219237
23.8376
-0.230938
24.0479
-0.242976
24.2809
-0.255261
24.5315
-0.267743
24.7967
-0.280388
25.0744
-0.293174
25.3633
-0.306081
25.6623
-0.319095
25.9705
-0.332203
26.2874
-0.345393
26.6125
-0.358653
26.9453
-0.371972
27.2857
-0.38534
27.6331
-0.398749
27.9878
-0.412182
28.3482
-0.42565
28.7188
-0.439076
29.0848
-0.452664
29.4913
-0.465731
-0.480381
29.8002
70.5765
1.55529
-71.0202
70.1333
1.52174
69.6908
1.48749
69.2493
1.45258
68.8088
1.41703
68.3694
1.38086
67.9312
1.34409
67.4944
1.30676
67.059
1.26889
66.625
1.2305
66.1924
1.19163
65.7612
1.1523
65.3315
1.11254
64.9031
1.07238
64.4759
1.03185
64.05
0.990979
63.6251
0.949799
63.2011
0.908343
62.7779
0.86664
62.3551
0.824725
61.9325
0.782631
61.5099
0.740392
61.0868
0.698041
60.6629
0.655616
60.2378
0.613153
59.8108
0.570688
59.3815
0.52826
58.9493
0.485907
58.5133
0.443672
58.0727
0.401594
57.6267
0.359717
57.1741
0.318086
56.7138
0.276747
56.2443
0.235748
55.7641
0.19514
55.2714
0.154979
54.764
0.115319
54.2393
0.0762246
53.6945
0.0377605
53.1258
0
52.5289
-0.0369758
51.8984
-0.0730753
51.2275
-0.108194
50.5046
-0.142208
49.7141
-0.174955
48.8506
-0.206222
47.9279
-0.235839
46.8745
-0.263772
45.2496
-0.2892
42.2018
-0.307585
37.3745
-0.309808
31.8861
-0.292096
27.4616
-0.266511
24.7947
-0.249211
23.4911
-0.24491
22.9487
-0.250007
22.7785
-0.260279
22.7886
-0.273184
22.8918
-0.287465
23.0482
-0.302529
23.2386
-0.318091
23.453
-0.334005
23.6857
-0.350188
23.9334
-0.36659
24.1937
-0.383178
24.4653
-0.399925
24.7468
-0.416811
25.0375
-0.433816
25.3368
-0.450926
25.6441
-0.468124
25.959
-0.485397
26.2812
-0.502731
26.6103
-0.520114
26.9465
-0.537526
27.2882
-0.554979
27.6396
-0.572377
27.9871
-0.589975
28.3723
-0.606915
-0.625841
28.6673
68.3844
1.9133
-68.8197
67.95
1.87189
67.5168
1.82965
67.0847
1.78659
66.654
1.74276
66.2247
1.69818
65.797
1.65289
65.3709
1.6069
64.9464
1.56027
64.5236
1.51301
64.1025
1.46516
63.6831
1.41676
63.2654
1.36784
62.8493
1.31844
62.4347
1.26859
62.0216
1.21833
61.6099
1.16769
61.1993
1.11672
60.7897
1.06545
60.3809
1.01393
59.9726
0.962193
59.5646
0.91028
59.1566
0.858234
58.7481
0.806098
58.3387
0.753916
57.928
0.701733
57.5155
0.649596
57.1005
0.597552
56.6824
0.54565
56.2604
0.493939
55.8336
0.442472
55.4011
0.391302
54.9617
0.340486
54.5142
0.290081
54.0572
0.24015
53.5889
0.190755
53.1073
0.141966
52.6104
0.0938572
52.0952
0.0465061
51.5586
0
50.9965
-0.0455658
50.4044
-0.090084
49.7762
-0.133432
49.1026
-0.175468
48.3694
-0.21601
47.5659
-0.254813
46.7027
-0.29163
45.7616
-0.326402
44.4668
-0.358721
42.0806
-0.384893
37.9494
-0.394766
32.6622
-0.379223
27.8923
-0.346946
24.747
-0.319555
23.1099
-0.308378
22.3886
-0.311015
22.1278
-0.321734
22.0886
-0.336598
22.1605
-0.353581
22.2935
-0.371723
22.4642
-0.390566
22.6606
-0.409883
22.8762
-0.429553
23.1072
-0.449501
23.351
-0.46968
23.606
-0.490055
23.8711
-0.510599
24.1452
-0.531287
24.4277
-0.5521
24.7182
-0.573018
25.016
-0.594024
25.321
-0.615101
25.6328
-0.636234
25.9514
-0.657398
26.2754
-0.678609
26.6087
-0.699749
26.9385
-0.721123
27.3037
-0.741715
-0.76465
27.585
66.2558
2.2596
-66.6823
65.8306
2.21055
65.4067
2.16053
64.9844
2.10957
64.5636
2.0577
64.1446
2.00497
63.7274
1.9514
63.312
1.89703
62.8985
1.8419
62.4869
1.78605
62.0773
1.72952
61.6695
1.67234
61.2637
1.61456
60.8597
1.55622
60.4575
1.49736
60.057
1.43802
59.6581
1.37825
59.2605
1.31809
58.8643
1.25758
58.4691
1.19678
58.0747
1.13573
57.6809
1.07447
57.2874
1.01307
56.8938
0.951555
56.4997
0.889991
56.1046
0.828427
55.7082
0.766917
55.3098
0.705516
54.9088
0.64428
54.5045
0.583267
54.0961
0.522538
53.6827
0.462155
53.2632
0.402181
52.8366
0.342686
52.4014
0.283739
51.9562
0.225414
51.4991
0.16779
51.0282
0.110952
50.5408
0.0549889
50.0342
0
49.5048
-0.0539066
48.9482
-0.10661
48.3594
-0.157972
47.7308
-0.207835
47.0502
-0.256004
46.3043
-0.302214
45.4965
-0.346154
44.6339
-0.387681
43.5668
-0.426675
41.7226
-0.460587
38.317
-0.479704
33.4263
-0.470366
28.4641
-0.434475
24.851
-0.396022
22.8317
-0.375002
21.8929
-0.372763
21.5221
-0.382514
21.4252
-0.398562
21.4626
-0.417786
21.5714
-0.438687
21.7224
-0.460558
21.9012
-0.483057
22.1003
-0.506002
22.3153
-0.529291
22.5433
-0.552859
22.7827
-0.57666
23.032
-0.600658
23.2903
-0.624825
23.557
-0.649135
23.8314
-0.673566
24.1131
-0.698096
24.4018
-0.722704
24.697
-0.747374
24.9989
-0.772076
25.3061
-0.796827
25.6222
-0.821496
25.9352
-0.846423
26.2815
-0.870456
-0.897149
26.5496
64.1896
2.59449
-64.607
63.7737
2.53802
63.3595
2.48045
62.947
2.42181
62.5364
2.36216
62.1277
2.30151
61.721
2.23993
61.3164
2.17744
60.9138
2.11409
60.5134
2.04993
60.1151
1.98499
59.719
1.91932
59.3249
1.85298
58.9329
1.78599
58.5428
1.71842
58.1547
1.65031
57.7683
1.58172
57.3836
1.51268
57.0003
1.44325
56.6184
1.37349
56.2376
1.30344
55.8575
1.23317
55.4781
1.16272
55.0988
1.09216
54.7194
1.02154
54.3395
0.95092
53.9586
0.880361
53.5761
0.809926
53.1916
0.739678
52.8042
0.669682
52.4134
0.600008
52.0182
0.530723
51.6177
0.461902
51.2109
0.39362
50.7966
0.325956
50.3732
0.258992
49.9392
0.192818
49.4928
0.127526
49.0317
0.0632171
48.5533
0
48.0543
-0.0620056
47.531
-0.122666
46.9788
-0.181832
46.3915
-0.239331
45.759
-0.294958
45.0677
-0.34844
44.3139
-0.399419
43.5114
-0.447645
42.5961
-0.493114
41.1703
-0.53439
38.4593
-0.563364
34.1225
-0.563786
29.1537
-0.52889
25.1214
-0.480139
22.6761
-0.446464
21.4728
-0.43634
20.9657
-0.443222
20.7994
-0.45942
20.7977
-0.480308
20.8805
-0.503602
21.0115
-0.528231
21.173
-0.553682
21.3561
-0.579695
21.5557
-0.606127
21.7686
-0.632888
21.993
-0.659921
22.2273
-0.68718
22.4707
-0.714631
22.7222
-0.742242
22.9814
-0.769988
23.2478
-0.797842
23.521
-0.825782
23.8005
-0.853787
24.0866
-0.881825
24.3778
-0.909912
24.6775
-0.937902
24.9746
-0.966173
25.3029
-0.99345
-1.02366
25.5584
62.1844
2.91828
-62.5924
61.7781
2.85461
61.3736
2.78971
60.9712
2.72364
60.5707
2.65643
60.1724
2.58813
59.7763
2.51878
59.3824
2.44843
58.9908
2.37713
58.6015
2.30492
58.2145
2.23186
57.8298
2.15798
57.4473
2.08335
57.0671
2.00802
56.689
1.93203
56.3129
1.85545
55.9389
1.77833
55.5666
1.70071
55.1961
1.62267
54.8271
1.54426
54.4594
1.46553
54.0927
1.38655
53.7269
1.30738
53.3616
1.22808
52.9964
1.14872
52.6311
1.06936
52.2651
0.990061
51.898
0.910903
51.5292
0.831954
51.1581
0.753284
50.7841
0.674969
50.4063
0.597086
50.024
0.519715
49.636
0.44294
49.2414
0.366846
48.8388
0.291525
48.4268
0.217075
48.0035
0.143596
47.5671
0.071198
47.1152
0
46.6449
-0.0698691
46.1527
-0.138266
45.6346
-0.20503
45.0853
-0.269977
44.4968
-0.332894
43.8565
-0.393503
43.1556
-0.451428
42.4047
-0.506311
41.5896
-0.558115
40.4665
-0.606258
38.3703
-0.644849
34.6884
-0.657474
29.9157
-0.62901
25.5617
-0.572988
22.6634
-0.5247
21.1424
-0.503185
20.4652
-0.504675
20.2135
-0.519622
20.1659
-0.541421
20.2203
-0.566667
20.3305
-0.593752
20.4747
-0.621919
20.6421
-0.650791
20.8268
-0.680168
21.0253
-0.709935
21.2353
-0.740012
21.4554
-0.770347
21.6845
-0.800896
21.9217
-0.831622
22.1664
-0.862495
22.4182
-0.893486
22.6766
-0.924567
22.9413
-0.955717
23.2123
-0.986896
23.4884
-1.01813
23.7726
-1.04925
24.0545
-1.08066
24.3658
-1.111
-1.1445
24.6093
60.239
3.23129
-60.6375
59.8423
3.16063
59.4478
3.08864
59.0554
3.01536
58.6652
2.94083
58.2773
2.86512
57.8917
2.78826
57.5085
2.7103
57.1278
2.6313
56.7495
2.55131
56.3736
2.47039
56.0002
2.38858
55.6292
2.30595
55.2605
2.22255
54.8941
2.13843
54.53
2.05367
54.168
1.96831
53.8079
1.88242
53.4498
1.79606
53.0933
1.70929
52.7384
1.62218
52.3848
1.5348
52.0321
1.44721
51.6803
1.35947
51.3289
1.27167
50.9776
1.18387
50.626
1.09614
50.2736
1.00857
49.9199
0.921214
49.5644
0.834168
49.2065
0.747507
48.8454
0.661317
48.4804
0.575684
48.1104
0.490697
47.7346
0.406453
47.3517
0.323047
46.9604
0.240585
46.5591
0.159177
46.146
0.0789399
45.7191
0
45.2756
-0.0775047
44.8125
-0.153422
44.3262
-0.227582
43.8122
-0.299792
43.2639
-0.36983
42.6706
-0.43742
42.021
-0.502182
41.3187
-0.563679
40.5721
-0.621746
39.6549
-0.6763
38.062
-0.723705
35.0684
-0.749538
30.6855
-0.732721
26.1586
-0.674771
22.8121
-0.611696
20.9193
-0.575136
20.0295
-0.567982
19.6709
-0.579765
19.5682
-0.601468
19.5905
-0.62811
19.6785
-0.657302
19.8052
-0.687927
19.9572
-0.719444
20.1274
-0.751574
20.312
-0.784161
20.5083
-0.817104
20.7148
-0.850336
20.9302
-0.883805
21.1537
-0.917469
21.3847
-0.951291
21.6226
-0.985239
21.867
-1.01928
22.1176
-1.05339
22.3743
-1.08753
22.636
-1.12172
22.9054
-1.15579
23.173
-1.19016
23.4681
-1.22337
-1.25995
23.7001
58.3518
3.53382
-58.7407
57.965
3.45639
57.5804
3.37752
57.1981
3.29726
56.8182
3.21566
56.4406
3.13276
56.0656
3.04863
55.693
2.96332
55.3231
2.87688
54.9556
2.78937
54.5908
2.70085
54.2285
2.61138
53.8687
2.52102
53.5114
2.42982
53.1565
2.33786
52.804
2.24519
52.4537
2.15188
52.1056
2.058
51.7596
1.96361
51.4153
1.86878
51.0728
1.77358
50.7318
1.67809
50.3919
1.58237
50.0531
1.4865
49.715
1.39055
49.3772
1.2946
49.0394
1.19873
48.7012
1.10303
48.3621
1.00756
48.0216
0.912425
47.6791
0.817703
47.3339
0.723487
46.9853
0.629869
46.6326
0.536946
46.2746
0.444818
45.9104
0.35359
45.5388
0.263374
45.1582
0.174285
44.7672
0.0864494
44.3637
0
43.9454
-0.084918
43.5096
-0.168146
43.053
-0.249504
42.5717
-0.328795
42.0602
-0.405787
41.51
-0.480208
40.9091
-0.551686
40.2545
-0.619741
39.5596
-0.684048
38.7758
-0.744688
37.5642
-0.799883
35.2255
-0.838555
31.3881
-0.837316
26.8778
-0.784453
23.1342
-0.709105
20.8235
-0.654407
19.6708
-0.634634
19.1768
-0.640664
19.0061
-0.660889
18.991
-0.6882
19.055
-0.719075
19.1635
-0.751873
19.3001
-0.785811
19.4563
-0.820499
19.6274
-0.855725
19.8105
-0.891359
20.004
-0.927317
20.2064
-0.963537
20.4169
-0.999969
20.6348
-1.03657
20.8595
-1.07331
21.0907
-1.11014
21.3278
-1.14704
21.5709
-1.18397
21.8189
-1.22094
22.0744
-1.25778
22.3283
-1.29493
22.608
-1.33086
-1.37031
22.8291
56.5217
3.82618
-56.9009
56.1447
3.74219
55.7701
3.65667
55.3978
3.56965
55.0281
3.48119
54.6609
3.39136
54.2963
3.3002
53.9343
3.20777
53.5749
3.11414
53.2182
3.01937
52.8642
2.92351
52.5129
2.82664
52.1641
2.7288
51.818
2.63008
51.4744
2.53054
51.1332
2.43024
50.7945
2.32926
50.458
2.22766
50.1236
2.12552
49.7913
2.02291
49.4608
1.91991
49.1319
1.81658
48.8045
1.71302
48.4783
1.60929
48.153
1.50548
47.8283
1.40167
47.5038
1.29795
47.1792
1.19439
46.8541
1.09109
46.5279
0.988143
46.2001
0.885635
45.8702
0.783664
45.5373
0.682329
45.2009
0.581733
44.8599
0.481981
44.5135
0.383185
44.1605
0.285462
43.7996
0.188934
43.4293
0.0937337
43.0479
0
42.6533
-0.0921155
42.2431
-0.182448
41.8143
-0.270813
41.3633
-0.357003
40.8858
-0.440786
40.3747
-0.521887
39.8193
-0.59995
39.2118
-0.674484
38.5615
-0.745028
37.8626
-0.811583
36.9185
-0.87361
35.1484
-0.923772
31.9495
-0.94005
27.6625
-0.899654
23.6292
-0.817715
20.8761
-0.74344
19.4047
-0.706597
18.7387
-0.703437
18.4825
-0.720277
18.4225
-0.747272
18.4595
-0.779296
18.5489
-0.813932
18.67
-0.850049
18.8122
-0.887095
18.9703
-0.924779
19.1408
-0.962935
19.3218
-1.00145
19.5118
-1.04026
19.7099
-1.0793
19.9153
-1.11852
20.1275
-1.15788
20.346
-1.19734
20.5704
-1.23687
20.8006
-1.27642
21.0356
-1.31602
21.2777
-1.35546
21.5187
-1.39523
21.7838
-1.43371
-1.47585
21.9945
54.7471
4.10866
-55.1165
54.3799
4.01833
54.0153
3.92636
53.6531
3.83281
53.2935
3.73773
52.9365
3.64118
52.5822
3.54323
52.2306
3.44393
51.8818
3.34335
51.5357
3.24156
51.1923
3.13862
50.8517
3.03459
50.5138
2.92955
50.1786
2.82356
49.846
2.7167
49.5159
2.60904
49.1884
2.50065
48.8632
2.3916
48.5402
2.28198
48.2195
2.17187
47.9006
2.06133
47.5836
1.95045
47.2682
1.83931
46.9541
1.728
46.6412
1.61661
46.329
1.50521
46.0174
1.3939
45.7059
1.28276
45.3942
1.1719
45.0817
1.06141
44.768
0.951377
44.4526
0.841914
44.1348
0.733121
43.8139
0.625106
43.4892
0.51798
43.1596
0.411862
42.8242
0.306872
42.4819
0.203139
42.1312
0.1008
41.7706
0
41.3983
-0.0991035
41.012
-0.19634
40.6091
-0.291521
40.1864
-0.384436
39.7402
-0.474846
39.2648
-0.562476
38.7513
-0.646987
38.1894
-0.727902
37.5818
-0.804669
36.9395
-0.87709
36.1701
-0.94524
34.852
-1.00509
32.3106
-1.03871
28.4383
-1.01694
24.2774
-0.936876
21.0957
-0.844529
19.2504
-0.786342
18.3668
-0.769622
18.0014
-0.78044
17.8862
-0.805762
17.892
-0.838229
17.9608
-0.874297
18.0658
-0.912321
18.1943
-0.951513
18.3396
-0.991475
18.4979
-1.03198
18.667
-1.0729
18.8451
-1.11414
19.0314
-1.15563
19.2249
-1.19731
19.4251
-1.23914
19.6316
-1.28107
19.8438
-1.32308
20.0618
-1.3651
20.2844
-1.40716
20.5139
-1.44906
20.7425
-1.49128
20.9939
-1.53216
-1.57681
21.1947
53.0266
4.38157
-53.3864
52.6693
4.2851
52.3145
4.1869
51.9623
4.08703
51.6128
3.98555
51.2659
3.88251
50.9218
3.778
50.5805
3.67206
50.242
3.56477
49.9063
3.4562
49.5734
3.34641
49.2433
3.23548
48.916
3.12348
48.5915
3.01048
48.2696
2.89656
47.9504
2.78179
47.6338
2.66625
47.3196
2.55002
47.0078
2.43318
46.6982
2.31582
46.3907
2.19801
46.0851
2.07984
45.7812
1.9614
45.4789
1.84277
45.1779
1.72405
44.8779
1.60533
44.5786
1.48669
44.2797
1.36824
43.9808
1.25008
43.6815
1.1323
43.3813
1.015
43.0798
0.898301
42.7763
0.782299
42.4702
0.667112
42.1608
0.552854
41.8473
0.43965
41.5286
0.327624
41.2039
0.216912
40.8717
0.107653
40.5307
0
40.1793
-0.105887
39.8155
-0.209834
39.4368
-0.311646
39.0405
-0.411111
38.6232
-0.507987
38.1805
-0.601998
37.705
-0.692816
37.1865
-0.779995
36.6213
-0.862945
36.0221
-0.941254
35.3609
-1.01511
34.3718
-1.08291
32.4379
-1.13202
29.1232
-1.13252
25.0351
-1.06415
21.492
-0.959197
19.2302
-0.876756
18.0753
-0.841299
17.5691
-0.842513
17.3842
-0.864258
17.3529
-0.896205
17.3986
-0.933188
17.4869
-0.972798
17.6015
-1.01391
17.7343
-1.05596
17.8808
-1.09865
18.0383
-1.14181
18.2051
-1.18533
18.3801
-1.22912
18.5623
-1.27312
18.7511
-1.31727
18.9461
-1.36153
19.1468
-1.40586
19.3531
-1.45021
19.564
-1.49458
19.7815
-1.53879
19.9984
-1.58331
20.2366
-1.62645
-1.67343
20.428
51.359
4.6452
-51.709
51.0114
4.5428
50.6664
4.43857
50.3241
4.3326
49.9845
4.22492
49.6476
4.11563
49.3136
4.00477
48.9824
3.89242
48.654
3.77865
48.3286
3.66353
48.0059
3.54714
47.6862
3.42955
47.3692
3.31083
47.0551
3.19106
46.7437
3.07032
46.4351
2.94869
46.129
2.82626
45.8255
2.70309
45.5245
2.57929
45.2258
2.45494
44.9292
2.33011
44.6347
2.20491
44.3421
2.07942
44.0511
1.95373
43.7616
1.82794
43.4732
1.70215
43.1858
1.57645
42.899
1.45093
42.6124
1.32572
42.3257
1.2009
42.0385
1.07658
41.7502
0.952886
41.4604
0.829917
41.1684
0.707794
40.8736
0.586638
40.5753
0.466576
40.2725
0.34774
39.9643
0.230266
39.6496
0.114302
39.3272
0
38.9954
-0.112473
38.6526
-0.222939
38.2966
-0.331202
37.9249
-0.437046
37.5345
-0.540228
37.1216
-0.640473
36.6807
-0.73746
36.2024
-0.830774
35.6792
-0.919835
35.1185
-1.00407
34.5236
-1.08348
33.7545
-1.15786
32.3281
-1.21971
29.6417
-1.24306
25.8353
-1.19543
22.0588
-1.08741
19.3661
-0.980803
17.882
-0.921179
17.1947
-0.90808
16.9201
-0.923573
16.843
-0.953657
16.8623
-0.990865
16.9326
-1.03167
17.033
-1.07444
17.1534
-1.11838
17.2884
-1.16308
17.4348
-1.20833
17.5907
-1.25398
17.7548
-1.29993
17.9262
-1.3461
18.1042
-1.39243
18.2883
-1.43888
18.478
-1.4854
18.6732
-1.53193
18.8729
-1.57848
19.079
-1.62485
19.2848
-1.67153
19.5105
-1.71681
-1.76596
19.6929
49.7427
4.89983
-50.0831
49.4047
4.79169
49.0695
4.68165
48.7369
4.56978
48.4071
4.45613
48.0801
4.34078
47.756
4.2238
47.4347
4.10526
47.1164
3.98524
46.8009
3.8638
46.4883
3.74103
46.1786
3.61701
45.8718
3.49181
45.5679
3.36551
45.2667
3.23819
44.9683
3.10995
44.6726
2.98086
44.3795
2.85101
44.0889
2.72049
43.8007
2.58939
43.5148
2.45779
43.231
2.3258
42.9492
2.19351
42.6691
2.06101
42.3907
1.9284
42.1135
1.79578
41.8375
1.66326
41.5623
1.53093
41.2875
1.3989
41.0129
1.26728
40.738
1.13619
40.4624
1.00573
40.1857
0.876024
39.9071
0.747195
39.6263
0.619367
39.3423
0.49267
39.0546
0.367239
38.7621
0.243216
38.464
0.12075
38.1589
0
37.8456
-0.118866
37.5225
-0.235666
37.1877
-0.350203
36.8389
-0.462259
36.4735
-0.57159
36.0882
-0.677922
35.6786
-0.78094
35.2371
-0.880256
34.7546
-0.975325
34.2317
-1.06549
33.6812
-1.15046
33.048
-1.23056
32.0061
-1.30233
29.9396
-1.34643
26.5944
-1.32572
22.7667
-1.22691
19.6757
-1.10084
17.809
-1.01258
16.8904
-0.979332
16.4992
-0.984858
16.3642
-1.01117
16.352
-1.04766
16.4024
-1.08915
16.488
-1.13327
16.596
-1.17888
16.7196
-1.22542
16.8552
-1.2726
17.0007
-1.32024
17.1545
-1.3682
17.3155
-1.41641
17.4832
-1.46479
17.6569
-1.51329
17.8362
-1.56186
18.0208
-1.61044
18.2099
-1.65904
18.4052
-1.70744
18.6003
-1.75615
18.8142
-1.80342
-1.85461
18.988
48.1763
5.14575
-48.5073
47.848
5.03208
47.5223
4.91642
47.1994
4.79884
46.8792
4.67943
46.562
4.55824
46.2475
4.43535
45.936
4.31083
45.6274
4.18477
45.3217
4.05724
45.019
3.92832
44.7192
3.79809
44.4223
3.66663
44.1282
3.53404
43.837
3.40038
43.5486
3.26575
43.263
3.13024
42.9799
2.99394
42.6995
2.85694
42.4215
2.71933
42.1458
2.5812
41.8724
2.44267
41.601
2.30381
41.3315
2.16473
41.0637
2.02554
40.7974
1.88634
40.5323
1.74722
40.2682
1.60831
40.0048
1.4697
39.7417
1.33152
39.4787
1.19388
39.2152
1.05689
38.9508
0.920671
38.6851
0.785358
38.4175
0.651075
38.1472
0.517956
37.8737
0.38614
37.5962
0.255772
37.3136
0.127005
37.0249
-2.53256e-07
36.729
-0.125072
36.4243
-0.248026
36.1094
-0.368664
35.782
-0.486768
35.4398
-0.602093
35.08
-0.714367
34.699
-0.823279
34.2908
-0.928462
33.8466
-1.02942
33.3617
-1.12547
32.8467
-1.21609
32.2934
-1.30152
31.5159
-1.38087
29.9944
-1.44196
27.2263
-1.45026
23.5588
-1.37306
20.1637
-1.23765
17.8806
-1.11915
16.6731
-1.05922
16.1292
-1.04975
15.9194
-1.06958
15.8686
-1.104
15.8962
-1.14551
15.966
-1.19059
16.0612
-1.23762
16.1736
-1.28581
16.2988
-1.33476
16.4341
-1.38424
16.578
-1.43408
16.7292
-1.48419
16.887
-1.5345
17.0508
-1.58492
17.2201
-1.63542
17.3947
-1.68592
17.5737
-1.73644
17.7586
-1.78675
17.9437
-1.83735
18.1463
-1.88651
-1.93958
18.312
46.6586
5.38324
-46.9802
46.3397
5.26421
46.0235
5.14313
45.7101
5.02006
45.3994
4.89507
45.0917
4.76825
44.7868
4.63965
44.4848
4.50938
44.1858
4.37749
43.8897
4.24408
43.5966
4.10922
43.3064
3.97301
43.0191
3.83552
42.7347
3.69684
42.4532
3.55706
42.1745
3.41628
41.8986
3.27458
41.6253
3.13205
41.3547
2.9888
41.0865
2.84491
40.8208
2.70049
40.5574
2.55563
40.2961
2.41044
40.0368
2.26502
39.7792
2.11948
39.5233
1.97391
39.2688
1.82844
39.0154
1.68317
38.7628
1.53822
38.5108
1.39369
38.259
1.24972
38.0071
1.10641
37.7546
0.963905
37.5011
0.822322
37.246
0.681794
36.9888
0.54246
36.7288
0.404462
36.4653
0.267947
36.1974
0.133072
35.9242
0
35.6446
-0.131096
35.3574
-0.260029
35.0609
-0.386599
34.7535
-0.510589
34.4329
-0.631755
34.0968
-0.749828
33.7419
-0.8645
33.3638
-0.975418
32.9548
-1.08213
32.5076
-1.184
32.0261
-1.28031
31.521
-1.37102
30.9087
-1.45639
29.8168
-1.5303
27.6595
-1.56566
24.3549
-1.51957
20.8132
-1.38937
18.1191
-1.24415
16.5642
-1.15148
15.8214
-1.12057
15.5132
-1.13005
15.4135
-1.16049
15.4141
-1.20106
15.4664
-1.24661
15.5485
-1.29476
15.6496
-1.3444
15.7645
-1.39495
15.89
-1.44612
16.0243
-1.49771
16.1661
-1.5496
16.3144
-1.60169
16.4688
-1.65392
16.6286
-1.70623
16.7936
-1.75853
16.963
-1.81084
17.1382
-1.86294
17.3136
-1.91532
17.5056
-1.96625
-2.02107
17.6635
45.1882
5.61256
-45.5005
44.8786
5.48837
44.5717
5.36205
44.2675
5.23368
43.9662
5.10332
43.6678
4.97105
43.3723
4.83696
43.0797
4.70112
42.79
4.56362
42.5033
4.42454
42.2195
4.28396
41.9387
4.14197
41.6608
3.99866
41.3858
3.85412
41.1137
3.70844
40.8444
3.56172
40.578
3.41404
40.3142
3.26551
40.0531
3.11623
39.7945
2.96629
39.5384
2.81579
39.2846
2.66483
39.033
2.51353
38.7835
2.36199
38.5359
2.21032
38.2899
2.05862
38.0455
1.90701
37.8024
1.7556
37.5602
1.60451
37.3188
1.45386
37.0779
1.30377
36.837
1.15437
36.5958
1.00577
36.3539
0.858125
36.1107
0.711556
35.8659
0.566207
35.6187
0.422223
35.3685
0.279753
35.1145
0.138957
34.8559
0
34.5917
-0.136943
34.3207
-0.271684
34.0416
-0.404022
33.7528
-0.53374
33.4524
-0.660598
33.1381
-0.784326
32.8074
-0.904625
32.4565
-1.02115
32.0795
-1.13348
31.6683
-1.24104
31.2209
-1.34308
30.7497
-1.43915
30.2328
-1.52976
29.4448
-1.61286
27.8524
-1.67057
25.0628
-1.65993
21.5789
-1.55099
18.5375
-1.38929
16.5886
-1.26045
15.5914
-1.2005
15.1527
-1.19429
14.9893
-1.21796
14.9567
-1.25625
14.9891
-1.3016
15.0571
-1.3505
15.1468
-1.40133
15.2515
-1.45331
15.3675
-1.50602
15.4925
-1.55922
15.6252
-1.61276
15.7646
-1.66653
15.9099
-1.72044
16.0607
-1.77443
16.2166
-1.82842
16.3768
-1.88242
16.5426
-1.93619
16.709
-1.99024
16.8908
-2.04282
-2.09926
17.0413
43.7638
5.83398
-44.0669
43.4632
5.70481
43.1655
5.57345
42.8705
5.43995
42.5783
5.30441
42.289
5.1669
42.0027
5.0275
41.7192
4.8863
41.4386
4.74338
41.1611
4.59882
40.8864
4.45272
40.6147
4.30517
40.346
4.15625
40.0802
4.00606
39.8172
3.85469
39.5571
3.70224
39.2998
3.5488
39.0452
3.39448
38.7933
3.23938
38.5439
3.0836
38.2971
2.92724
38.0526
2.7704
37.8104
2.61321
37.5704
2.45576
37.3323
2.29817
37.0959
2.14054
36.8612
1.98301
36.6279
1.82567
36.3958
1.66866
36.1645
1.51209
35.9339
1.35609
35.7035
1.20079
35.4731
1.04632
35.2422
0.892805
35.0105
0.740392
34.7773
0.589221
34.5423
0.43944
34.3047
0.291201
34.0639
0.144665
33.819
0
33.5693
-0.142618
33.3136
-0.283001
33.0507
-0.420947
32.7793
-0.556239
32.4977
-0.688639
32.2038
-0.817883
31.8952
-0.943675
31.5691
-1.06568
31.2209
-1.1835
30.8432
-1.29662
30.4302
-1.40432
29.989
-1.50588
29.5257
-1.60151
28.9308
-1.69128
27.8008
-1.76562
25.5978
-1.78915
22.3863
-1.71488
19.1299
-1.55329
16.7718
-1.39034
15.4597
-1.29373
14.848
-1.26477
14.6001
-1.27764
14.5254
-1.31169
14.5342
-1.35588
14.5866
-1.40503
14.6645
-1.45677
14.759
-1.50997
14.8656
-1.56407
14.9817
-1.61874
15.1057
-1.67381
15.2364
-1.72913
15.3731
-1.78461
15.5152
-1.84018
15.6625
-1.89575
15.814
-1.95131
15.9709
-2.00666
16.1286
-2.06226
16.3008
-2.11639
-2.17434
16.4441
42.3839
6.04776
-42.6781
42.0924
5.91379
41.8036
5.77755
41.5175
5.63912
41.2343
5.49858
40.954
5.35602
40.6765
5.2115
40.402
5.06513
40.1304
4.91698
39.8617
4.76715
39.596
4.61573
39.3332
4.46281
39.0733
4.30848
38.8164
4.15284
38.5623
3.99598
38.3111
3.83801
38.0626
3.67902
37.8169
3.51911
37.5739
3.3584
37.3335
3.19698
37.0957
3.03497
36.8602
2.87246
36.627
2.70958
36.3961
2.54643
36.1671
2.38313
35.94
2.21979
35.7146
2.05653
35.4908
1.89347
35.2682
1.73074
35.0466
1.56845
34.8259
1.40675
34.6056
1.24575
34.3854
1.08558
34.1651
0.926399
33.9442
0.768331
33.7222
0.611525
33.4986
0.45613
33.2729
0.302302
33.0445
0.150202
32.8127
0
32.5765
-0.148126
32.3352
-0.293989
32.0876
-0.437386
31.8324
-0.578102
31.5682
-0.7159
31.2932
-0.85052
31.0053
-0.981673
30.7019
-1.10903
30.3796
-1.23221
30.0324
-1.35076
29.653
-1.46401
29.242
-1.57113
28.8122
-1.67187
28.3281
-1.76693
27.5341
-1.85268
25.9014
-1.90486
23.1412
-1.87258
19.8615
-1.73092
17.133
-1.5439
15.4514
-1.4053
14.6136
-1.34493
14.2522
-1.34133
14.1223
-1.36825
14.1021
-1.40991
14.1369
-1.45863
14.2021
-1.5109
14.2863
-1.56509
14.3837
-1.6204
14.4911
-1.67641
14.6066
-1.73287
14.729
-1.78963
14.8575
-1.84657
14.9913
-1.9036
15.1303
-1.96065
15.2735
-2.01768
15.422
-2.07449
15.5714
-2.13154
15.7344
-2.18713
-2.24647
15.871
41.0474
6.25415
-41.3328
40.7646
6.11555
40.4846
5.97462
40.2074
5.83143
39.9329
5.68607
39.6613
5.53863
39.3926
5.38918
39.1268
5.23782
38.8639
5.08464
38.6039
4.92973
38.3468
4.77318
38.0926
4.61508
37.8414
4.45553
37.5931
4.29463
37.3476
4.13249
37.105
3.96919
36.8652
3.80484
36.6281
3.63955
36.3937
3.47343
36.162
3.30658
35.9327
3.13911
35.706
2.97113
35.4815
2.80276
35.2593
2.63411
35.0392
2.46529
34.821
2.29644
34.6045
2.12765
34.3897
1.95907
34.1763
1.79081
33.964
1.62301
33.7527
1.45578
33.542
1.28927
33.3317
1.12361
33.1214
0.958941
32.9107
0.795402
32.6993
0.63314
32.4866
0.472309
32.2723
0.313066
32.0556
0.155573
31.836
-2.53463e-07
31.6126
-0.153473
31.3848
-0.304657
31.1514
-0.453353
30.9115
-0.599344
30.6636
-0.742398
30.4061
-0.882258
30.1373
-1.01864
29.8548
-1.15123
29.5559
-1.27965
29.2361
-1.40348
28.8884
-1.52215
28.5085
-1.63482
28.1057
-1.74085
27.6811
-1.84071
27.1038
-1.9341
25.9543
-2.00749
23.7489
-2.01707
20.6647
-1.91318
17.675
-1.72056
15.594
-1.54043
14.4692
-1.43945
13.9551
-1.41164
13.7512
-1.42721
13.6941
-1.46432
13.708
-1.51164
13.7594
-1.56395
13.8328
-1.61883
13.9209
-1.67515
14.0197
-1.73234
14.1271
-1.79008
14.2415
-1.84816
14.3621
-1.90645
14.4881
-1.96484
14.6191
-2.02326
14.7544
-2.08166
14.8948
-2.13984
15.0363
-2.19824
15.1906
-2.25519
-2.31582
15.3208
39.753
6.4534
-40.0297
39.4788
6.31033
39.2074
6.16487
38.9387
6.0171
38.6728
5.8671
38.4098
5.71496
38.1496
5.56076
37.8922
5.40459
37.6378
5.24656
37.3862
5.08674
37.1376
4.92524
36.8918
4.76216
36.649
4.59758
36.409
4.43162
36.1719
4.26437
35.9377
4.09594
35.7062
3.92643
35.4775
3.75595
35.2514
3.58461
35.028
3.41251
34.8071
3.23978
34.5887
3.06653
34.3726
2.89286
34.1589
2.7189
33.9472
2.54477
33.7375
2.37058
33.5297
2.19647
33.3236
2.02255
33.1189
1.84895
32.9155
1.67581
32.7132
1.50326
32.5117
1.33142
32.3107
1.16044
32.11
0.990465
31.9091
0.821631
31.7077
0.65409
31.5054
0.487994
31.3017
0.323503
31.0961
0.160782
30.888
0
30.6768
-0.158662
30.4616
-0.315016
30.2417
-0.468861
30.0159
-0.619983
29.7832
-0.768153
29.5421
-0.913118
29.2909
-1.0546
29.0278
-1.19229
28.7502
-1.32583
28.4549
-1.45483
28.1361
-1.57876
27.7874
-1.69688
27.4113
-1.80834
27.0203
-1.91307
26.5672
-2.01192
25.777
-2.09945
24.1367
-2.14467
21.4456
-2.0894
18.3723
-1.91488
15.9113
-1.70295
14.4401
-1.55414
13.7224
-1.49237
13.4181
-1.49048
13.3122
-1.52001
13.3004
-1.56452
13.3359
-1.61617
13.3979
-1.67137
13.4766