/*--------------------------------*- C++ -*----------------------------------*\
| =========                 |                                                 |
| \\      /  F ield         | OpenFOAM: The Open Source CFD Toolbox           |
|  \\    /   O peration     | Version:  2312                                  |
|   \\  /    A nd           | Website:  www.openfoam.com                      |
|    \\/     M anipulation  |                                                 |
\*---------------------------------------------------------------------------*/
FoamFile
{
    version     2.0;
    format      ascii;
    arch        "LSB;label=32;scalar=64";
    class       surfaceScalarField;
    location    "0.754";
    object      phi;
}
// * * * * * * * * * * * * * * * * * * * * * * * * * * * * * * * * * * * * * //

dimensions      [0 3 -1 0 0 0 0];

oriented        oriented;

internalField   nonuniform List<scalar> 
62015
(
47.7327
0.0931847
-46.8645
48.5774
0.0930394
49.3989
0.0927435
50.1983
0.0922999
50.9768
0.0917117
51.7353
0.090981
52.4748
0.0901112
53.1962
0.0891043
53.9006
0.0879638
54.5887
0.0866917
55.2613
0.0852908
55.9193
0.0837637
56.5634
0.0821131
57.1943
0.0803412
57.8126
0.0784508
58.419
0.0764441
59.0142
0.0743241
59.5985
0.0720929
60.1727
0.0697528
60.7373
0.0673067
61.2926
0.0647571
61.8392
0.062106
62.3776
0.0593563
62.9081
0.0565106
63.4312
0.0535709
63.9472
0.0505404
64.4565
0.0474209
64.9595
0.0442158
65.4564
0.0409271
65.9477
0.0375576
66.4337
0.0341096
66.9145
0.0305861
67.3905
0.0269901
67.8619
0.0233232
68.3291
0.0195893
68.7921
0.01579
69.2514
0.0119288
69.707
0.0080084
70.1592
0.00403093
70.6082
0
71.0542
-0.00408196
71.4973
-0.00821252
71.9376
-0.012388
72.3755
-0.0166062
72.8109
-0.0208643
73.2441
-0.0251586
73.6752
-0.0294874
74.1042
-0.0338467
74.5314
-0.0382343
74.9567
-0.0426472
75.3804
-0.0470822
75.8024
-0.0515363
76.2229
-0.0560067
76.642
-0.0604908
77.0596
-0.064985
77.4759
-0.0694868
77.891
-0.0739929
78.3047
-0.0785006
78.7173
-0.083007
79.1286
-0.0875086
79.5388
-0.092003
79.9478
-0.0964873
80.3556
-0.100958
80.7623
-0.105412
81.1678
-0.109848
81.5722
-0.114261
81.9753
-0.118649
82.3771
-0.123009
82.7777
-0.127338
83.1769
-0.131634
83.5748
-0.135893
83.9711
-0.140112
84.3659
-0.144289
84.7594
-0.148421
85.1501
-0.152506
85.5423
-0.156535
85.9225
-0.160528
86.3322
-0.16441
-0.16841
86.6413
47.2529
0.187426
-46.4638
48.0221
0.186873
48.7711
0.186038
49.5008
0.184925
50.2122
0.183541
50.9062
0.181888
51.5836
0.179973
52.2452
0.177799
52.8918
0.175373
53.5242
0.172697
54.1431
0.169778
54.7491
0.16662
55.343
0.163227
55.9252
0.159604
56.4964
0.155755
57.0572
0.151686
57.608
0.1474
58.1494
0.142903
58.6818
0.138198
59.2058
0.133291
59.7216
0.128186
60.2298
0.122888
60.7308
0.117402
61.2248
0.111731
61.7124
0.105882
62.1937
0.099858
62.6692
0.0936646
63.1392
0.0873069
63.6039
0.0807892
64.0637
0.0741172
64.5188
0.067295
64.9694
0.0603283
65.4159
0.0532216
65.8584
0.0459809
66.2973
0.0386104
66.7326
0.0311157
67.1647
0.023502
67.5937
0.0157745
68.0197
0.0079388
68.4431
0
68.8639
-0.00803649
69.2822
-0.0161652
69.6984
-0.024381
70.1124
-0.032678
70.5244
-0.0410508
70.9347
-0.049494
71.3431
-0.0580014
71.75
-0.0665686
72.1553
-0.075189
72.5592
-0.0838574
72.9618
-0.0925676
73.3631
-0.101315
73.7633
-0.110093
74.1623
-0.118896
74.5603
-0.127718
74.9573
-0.136554
75.3533
-0.145399
75.7484
-0.154245
76.1426
-0.163088
76.536
-0.171922
76.9285
-0.180742
77.3202
-0.18954
77.7111
-0.198313
78.1011
-0.207053
78.4904
-0.215755
78.8787
-0.224415
79.2663
-0.233026
79.6529
-0.241582
80.0386
-0.250078
80.4233
-0.258508
80.807
-0.266867
81.1896
-0.27515
81.5711
-0.28335
81.9516
-0.291462
82.3299
-0.299484
82.7098
-0.307398
83.0788
-0.315241
83.4762
-0.322868
-0.330726
83.7785
46.7513
0.282505
-46.0346
47.4509
0.281312
48.1328
0.279722
48.7981
0.27774
49.4474
0.275374
50.0815
0.272629
50.7013
0.269512
51.3073
0.266029
51.9002
0.262187
52.4807
0.257992
53.0495
0.25345
53.607
0.248568
54.1538
0.243351
54.6906
0.237806
55.2176
0.23194
55.7356
0.225758
56.2448
0.219267
56.7458
0.212474
57.239
0.205384
57.7247
0.198004
58.2034
0.190341
58.6754
0.182402
59.141
0.174192
59.6007
0.165718
60.0546
0.156988
60.5032
0.148008
60.9467
0.138785
61.3854
0.129325
61.8196
0.119637
62.2494
0.109726
62.6752
0.0995999
63.0973
0.0892664
63.5157
0.078732
63.9308
0.0680047
64.3427
0.0570911
64.7516
0.0459995
65.1578
0.034737
65.5613
0.0233109
65.9624
0.0117294
66.3613
0
66.758
-0.0118696
67.1528
-0.0238716
67.5457
-0.0359983
67.9369
-0.0482412
68.3265
-0.0605928
68.7147
-0.0730454
69.1014
-0.0855901
69.487
-0.0982196
69.8713
-0.110925
70.2546
-0.123699
70.6368
-0.136533
71.0182
-0.149419
71.3986
-0.162349
71.7783
-0.175314
72.1573
-0.188306
72.5355
-0.201317
72.9131
-0.214338
73.2901
-0.227362
73.6665
-0.24038
74.0423
-0.253383
74.4176
-0.266364
74.7924
-0.279314
75.1666
-0.292225
75.5404
-0.305089
75.9136
-0.317898
76.2862
-0.330643
76.6583
-0.343316
77.0298
-0.355909
77.4008
-0.368414
77.771
-0.380823
78.1406
-0.393129
78.5095
-0.405322
78.8775
-0.417395
79.2449
-0.42934
79.6105
-0.441154
79.978
-0.452809
80.3353
-0.464363
80.7202
-0.475601
-0.487177
81.0145
46.206
0.378084
-45.5548
46.8422
0.376054
47.4632
0.373524
48.0697
0.370502
48.6624
0.366996
49.2419
0.363014
49.8089
0.358562
50.3639
0.353649
50.9075
0.348282
51.4404
0.342468
51.9629
0.336215
52.4757
0.329531
52.9792
0.322423
53.4738
0.314899
53.96
0.306966
54.4383
0.298632
54.909
0.289906
55.3724
0.280794
55.8291
0.271306
56.2793
0.261448
56.7233
0.25123
57.1615
0.240659
57.5942
0.229743
58.0217
0.218492
58.4442
0.206913
58.8621
0.195015
59.2756
0.182807
59.685
0.170298
60.0905
0.157496
60.4922
0.14441
60.8905
0.13105
61.2856
0.117425
61.6776
0.103543
62.0668
0.0894152
62.4533
0.0750495
62.8373
0.0604564
63.219
0.0456449
63.5985
0.0306254
63.976
0.015407
64.3517
0
64.7256
-0.0155858
65.0979
-0.0313404
65.4688
-0.0472537
65.8383
-0.063315
66.2066
-0.0795153
66.5737
-0.095843
66.9398
-0.112289
67.305
-0.128841
67.6693
-0.145491
68.0328
-0.162227
68.3957
-0.179039
68.7579
-0.195916
69.1195
-0.212847
69.4806
-0.229823
69.8412
-0.246832
70.2014
-0.263864
70.5613
-0.280908
70.9208
-0.297954
71.28
-0.314991
71.6389
-0.332007
71.9975
-0.348993
72.3558
-0.365939
72.7139
-0.382832
73.0717
-0.399663
73.4293
-0.416421
73.7866
-0.433096
74.1437
-0.449677
74.5004
-0.466154
74.8568
-0.482515
75.2128
-0.498752
75.5684
-0.514854
75.9236
-0.53081
76.2782
-0.54661
76.6326
-0.562244
76.9855
-0.577707
77.3405
-0.592965
77.686
-0.608092
78.0583
-0.622807
-0.637966
78.3439
45.6129
0.473832
-45.0211
46.1919
0.470796
46.7577
0.467171
47.3108
0.462966
47.852
0.458188
48.3817
0.452846
48.9005
0.446948
49.4089
0.440503
49.9075
0.43352
50.3966
0.426005
50.8768
0.417969
51.3485
0.40942
51.8121
0.400366
52.268
0.390816
52.7165
0.380779
53.1581
0.370265
53.5932
0.359282
54.0219
0.347839
54.4447
0.335945
54.8619
0.323611
55.2738
0.310846
55.6806
0.297659
56.0827
0.28406
56.4802
0.270059
56.8735
0.255667
57.2628
0.240893
57.6483
0.225747
58.0302
0.210241
58.4089
0.194384
58.7843
0.178188
59.1569
0.161663
59.5267
0.144821
59.8939
0.127672
60.2587
0.110227
60.6214
0.0924988
60.9819
0.0744976
61.3406
0.0562357
61.6974
0.0377241
62.0527
0.0189748
62.4065
0
62.7588
-0.0191885
63.11
-0.0385789
63.46
-0.0581588
63.809
-0.0779155
64.157
-0.0978376
64.5042
-0.117912
64.8507
-0.138127
65.1965
-0.158469
65.5418
-0.178926
65.8865
-0.199485
66.2308
-0.220134
66.5748
-0.24086
66.9184
-0.26165
67.2617
-0.282491
67.6049
-0.303371
67.9478
-0.324276
68.2907
-0.345194
68.6334
-0.366113
68.976
-0.387017
69.3186
-0.407896
69.6611
-0.428737
70.0036
-0.449526
70.3461
-0.47025
70.6886
-0.490897
71.031
-0.511454
71.3734
-0.531909
71.7158
-0.552249
72.0581
-0.57246
72.4003
-0.592531
72.7423
-0.612449
73.0843
-0.632202
73.4261
-0.651777
73.7675
-0.671163
74.109
-0.690344
74.4493
-0.709319
74.7919
-0.728043
75.1256
-0.746609
75.4854
-0.764671
-0.78328
75.7619
44.9756
0.569458
-44.4375
45.5028
0.565276
46.0184
0.560426
46.5232
0.554916
47.0175
0.548755
47.5019
0.541952
47.9768
0.534515
48.4427
0.526455
48.9
0.517779
49.3491
0.508498
49.7905
0.49862
50.2244
0.488155
50.6513
0.477112
51.0715
0.465502
51.4854
0.453334
51.8932
0.440619
52.2953
0.427365
52.692
0.413585
53.0835
0.399287
53.4701
0.384484
53.8522
0.369185
54.2299
0.353402
54.6034
0.337146
54.9731
0.320428
55.3392
0.30326
55.7018
0.285652
56.0612
0.267619
56.4176
0.24917
56.7712
0.230318
57.1221
0.211076
57.4705
0.191456
57.8166
0.171471
58.1606
0.151133
58.5027
0.130456
58.8429
0.109452
59.1814
0.0881343
59.5184
0.0665168
59.854
0.044613
60.1883
0.022436
60.5214
0
60.8535
-0.0226814
61.1846
-0.0455943
61.5149
-0.0687242
61.8445
-0.0920576
62.1734
-0.115579
62.5017
-0.139276
62.8296
-0.163133
63.1571
-0.187135
63.4842
-0.211268
63.8111
-0.235517
64.1378
-0.259868
64.4644
-0.284306
64.7908
-0.308815
65.1173
-0.333382
65.4437
-0.357991
65.7701
-0.382627
66.0967
-0.407276
66.4233
-0.431922
66.7501
-0.456551
67.077
-0.481148
67.4041
-0.505696
67.7313
-0.530183
68.0588
-0.554593
68.3864
-0.578911
68.7142
-0.603122
69.0422
-0.627212
69.3703
-0.651165
69.6986
-0.674968
70.027
-0.698605
70.3555
-0.722063
70.6841
-0.745327
71.0128
-0.768381
71.3413
-0.791214
71.6701
-0.813807
71.998
-0.836159
72.3284
-0.858216
72.6503
-0.88009
72.9977
-0.901372
-0.923299
73.2651
44.2999
0.664715
-43.8103
44.7801
0.65927
45.2503
0.653085
45.711
0.646169
46.1627
0.638533
46.6058
0.630184
47.0406
0.621132
47.4677
0.611387
47.8872
0.600959
48.2997
0.589857
48.7054
0.57809
49.1047
0.56567
49.4979
0.552607
49.8853
0.538911
50.2671
0.524593
50.6438
0.509664
51.0154
0.494135
51.3824
0.478017
51.745
0.461322
52.1034
0.444061
52.4577
0.426248
52.8084
0.407893
53.1555
0.389009
53.4994
0.369608
53.8401
0.349704
54.1779
0.32931
54.513
0.308438
54.8455
0.287102
55.1756
0.265316
55.5036
0.243093
55.8295
0.220447
56.1535
0.197392
56.4757
0.173943
56.7964
0.150115
57.1156
0.125921
57.4334
0.101377
57.75
0.0764977
58.0656
0.0512981
58.3801
0.0257939
58.6938
0
59.0068
-0.0260677
59.319
-0.0523932
59.6307
-0.0789612
59.9419
-0.105755
60.2528
-0.13276
60.5633
-0.159958
60.8735
-0.187334
61.1836
-0.214872
61.4936
-0.242554
61.8035
-0.270364
62.1135
-0.298287
62.4235
-0.326304
62.7336
-0.3544
63.0439
-0.382558
63.3544
-0.41076
63.6651
-0.43899
63.9761
-0.467232
64.2873
-0.495467
64.5989
-0.523681
64.9108
-0.551854
65.223
-0.579972
65.5356
-0.608017
65.8486
-0.635971
66.1619
-0.663819
66.4756
-0.691544
66.7897
-0.719129
67.1041
-0.746557
67.4188
-0.773812
67.7338
-0.800878
68.0491
-0.827738
68.3647
-0.854376
68.6805
-0.880776
68.9965
-0.906922
69.3129
-0.932795
69.6285
-0.958392
69.9469
-0.983655
70.2572
-1.00871
70.5924
-1.03309
-1.0582
70.8507
43.5919
0.759396
-43.1462
44.0294
0.752589
44.4583
0.744978
44.8789
0.736573
45.2918
0.727385
45.6972
0.717421
46.0954
0.706691
46.4869
0.695206
46.8719
0.682976
47.2508
0.67001
47.6238
0.656319
47.9912
0.641915
48.3534
0.626807
48.7105
0.611008
49.0629
0.594528
49.4108
0.57738
49.7544
0.559575
50.0939
0.541126
50.4297
0.522045
50.7618
0.502344
51.0905
0.482038
51.4161
0.461138
51.7387
0.439659
52.0584
0.417613
52.3756
0.395016
52.6903
0.371881
53.0027
0.348223
53.3129
0.324056
53.6212
0.299395
53.9277
0.274255
54.2325
0.248652
54.5358
0.222601
54.8377
0.196118
55.1383
0.169219
55.4377
0.14192
55.7362
0.114236
56.0337
0.0861861
56.3304
0.0577852
56.6264
0.0290509
56.9218
0
57.2167
-0.0293502
57.5112
-0.0589825
57.8053
-0.0888795
58.0992
-0.119023
58.3929
-0.149396
58.6865
-0.17998
58.9801
-0.210758
59.2737
-0.24171
59.5674
-0.272819
59.8612
-0.304067
60.1553
-0.335436
60.4496
-0.366906
60.7441
-0.39846
61.0391
-0.430078
61.3343
-0.461743
61.63
-0.493435
61.9261
-0.525137
62.2227
-0.556829
62.5197
-0.588492
62.8172
-0.620109
63.1152
-0.65166
63.4138
-0.683127
63.7128
-0.714491
64.0124
-0.745735
64.3125
-0.776838
64.6131
-0.807783
64.9142
-0.838552
65.2158
-0.869126
65.5178
-0.899487
65.8204
-0.929616
66.1233
-0.959497
66.4267
-0.989111
66.7303
-1.01844
67.0346
-1.04747
67.3384
-1.07618
67.6448
-1.10452
67.9438
-1.13263
68.2669
-1.15999
-1.18817
68.5163
42.8571
0.85332
-42.4513
43.2558
0.845069
43.6471
0.835958
44.0314
0.825996
44.4088
0.815193
44.7797
0.803558
45.1445
0.7911
45.5035
0.777831
45.8568
0.76376
46.2048
0.748899
46.5478
0.733257
46.8859
0.716847
47.2195
0.699679
47.5488
0.681766
47.8739
0.66312
48.1952
0.643753
48.5128
0.623678
48.827
0.602909
49.1379
0.581457
49.4458
0.559337
49.7507
0.536563
50.053
0.513149
50.3528
0.489109
50.6501
0.464458
50.9453
0.439212
51.2385
0.413384
51.5297
0.386992
51.8192
0.36005
52.1071
0.332575
52.3936
0.304583
52.6787
0.276091
52.9625
0.247116
53.2453
0.217673
53.5271
0.187783
53.8081
0.15746
54.0883
0.126723
54.3678
0.0955905
54.6468
0.0640805
54.9254
0.0322106
55.2035
0
55.4814
-0.0325329
55.7591
-0.0653692
56.0367
-0.0984895
56.3142
-0.131875
56.5917
-0.165507
56.8694
-0.199365
57.1472
-0.233429
57.4251
-0.26768
57.7034
-0.302099
57.982
-0.336666
58.2609
-0.371359
58.5403
-0.40616
58.82
-0.441047
59.1003
-0.476002
59.3811
-0.511003
59.6624
-0.546031
59.9444
-0.581065
60.2269
-0.616084
60.51
-0.65107
60.7937
-0.686
61.0781
-0.720855
61.3632
-0.755614
61.6488
-0.790258
61.9352
-0.824766
62.2222
-0.859118
62.5098
-0.893293
62.7981
-0.927273
63.087
-0.961036
63.3766
-0.994563
63.6667
-1.02784
63.9574
-1.06083
64.2486
-1.09353
64.5403
-1.12592
64.8328
-1.15798
65.1249
-1.18969
65.4198
-1.22099
65.7077
-1.25203
66.0189
-1.28225
-1.31336
66.2596
42.1006
0.946334
-41.731
42.4641
0.936574
42.8212
0.925902
43.1721
0.914326
43.5172
0.901858
43.8567
0.888507
44.1908
0.874282
44.5199
0.859194
44.8442
0.843254
45.1639
0.826473
45.4792
0.808861
45.7904
0.790431
46.0977
0.771195
46.4012
0.751165
46.7013
0.730354
46.998
0.708774
47.2917
0.68644
47.5823
0.663364
47.8703
0.639562
48.1556
0.615047
48.4385
0.589834
48.7191
0.563938
48.9976
0.537374
49.2742
0.510159
49.5489
0.482308
49.822
0.453837
50.0935
0.424763
50.3637
0.395104
50.6325
0.364875
50.9002
0.334095
51.1669
0.302781
51.4326
0.270952
51.6975
0.238625
51.9617
0.20582
52.2253
0.172554
52.4884
0.138848
52.7511
0.104719
53.0134
0.0701889
53.2755
0.0352756
53.5374
0
53.7993
-0.0356182
54.0612
-0.071559
54.3231
-0.107802
54.5852
-0.144325
54.8474
-0.181109
55.1099
-0.218132
55.3727
-0.255374
55.6359
-0.292813
55.8996
-0.330428
56.1636
-0.368197
56.4282
-0.406099
56.6934
-0.444113
56.9591
-0.482215
57.2254
-0.520386
57.4924
-0.558603
57.7601
-0.596844
58.0285
-0.635088
58.2975
-0.673312
58.5674
-0.711494
58.8379
-0.749613
59.1093
-0.787647
59.3814
-0.825573
59.6542
-0.863371
59.9279
-0.901018
60.2023
-0.938493
60.4775
-0.975774
60.7534
-1.01284
61.0301
-1.04967
61.3075
-1.08624
61.5856
-1.12253
61.8644
-1.15852
62.1439
-1.19419
62.424
-1.22951
62.705
-1.26447
62.9858
-1.29906
63.2694
-1.33321
63.5464
-1.36707
63.8459
-1.40003
-1.43397
64.0781
41.3268
1.03831
-40.9902
41.6582
1.02698
41.9841
1.0147
42.3046
1.00147
42.6201
0.987296
42.9308
0.972194
43.2369
0.956172
43.5387
0.93924
43.8363
0.92141
44.1299
0.902692
44.4198
0.883099
44.7062
0.862643
44.9892
0.841335
45.2691
0.81919
45.546
0.796219
45.82
0.772437
46.0914
0.747858
46.3603
0.722496
46.627
0.696365
46.8914
0.669482
47.1538
0.641861
47.4143
0.613518
47.6731
0.58447
47.9303
0.554732
48.186
0.524323
48.4404
0.493259
48.6935
0.461557
48.9456
0.429236
49.1966
0.396314
49.4468
0.362809
49.6962
0.328741
49.9449
0.294127
50.1931
0.258989
50.4408
0.223345
50.6881
0.187215
50.9351
0.15062
51.1819
0.11358
51.4286
0.0761164
51.6752
0.0382492
51.9219
0
52.1687
-0.0386097
52.4156
-0.0775585
52.6628
-0.116824
52.9102
-0.156385
53.158
-0.196219
53.4063
-0.236304
53.6549
-0.276617
53.9041
-0.317136
54.1539
-0.357837
54.4042
-0.398699
54.6552
-0.439698
54.9068
-0.48081
55.1591
-0.522014
55.4122
-0.563285
55.6661
-0.604601
55.9207
-0.645938
56.1762
-0.687273
56.4324
-0.728582
56.6895
-0.769842
56.9475
-0.81103
57.2063
-0.852123
57.466
-0.893097
57.7266
-0.933928
57.988
-0.974594
58.2503
-1.01507
58.5135
-1.05534
58.7776
-1.09537
59.0425
-1.13514
59.3082
-1.17464
59.5747
-1.21383
59.8421
-1.25269
60.1102
-1.29121
60.379
-1.32936
60.6488
-1.36711
60.9185
-1.40446
61.1911
-1.44133
61.4576
-1.4779
61.7457
-1.5135
-1.55014
61.9695
40.5396
1.12913
-40.233
40.8418
1.1162
41.1391
1.10226
41.432
1.08734
41.7204
1.07143
42.0047
1.05456
42.2851
1.03671
42.5618
1.01792
42.8349
0.998187
43.1046
0.977524
43.3711
0.955945
43.6346
0.93346
43.8953
0.910085
44.1532
0.88583
44.4087
0.860711
44.6618
0.834741
44.9126
0.807935
45.1614
0.780308
45.4082
0.751876
45.6533
0.722654
45.8967
0.692658
46.1385
0.661905
46.379
0.630412
46.6182
0.598196
46.8561
0.565275
47.0931
0.531668
47.3291
0.497392
47.5642
0.462467
47.7987
0.426911
48.0325
0.390744
48.2657
0.353987
48.4985
0.316658
48.731
0.27878
48.9632
0.240371
49.1952
0.201454
49.4272
0.16205
49.6591
0.122181
49.891
0.0818679
50.1231
0.0411335
50.3554
0
50.5879
-0.0415099
50.8208
-0.0833734
51.054
-0.125567
51.2877
-0.168069
51.5218
-0.210854
51.7565
-0.253899
51.9918
-0.297181
52.2277
-0.340676
52.4643
-0.384359
52.7016
-0.428206
52.9397
-0.472194
53.1785
-0.516296
53.4181
-0.560491
53.6586
-0.604751
53.8999
-0.649054
54.1421
-0.693374
54.3852
-0.737686
54.6293
-0.781967
54.8742
-0.82619
55.1202
-0.870332
55.367
-0.914368
55.6148
-0.958273
55.8636
-1.00202
56.1134
-1.04559
56.3641
-1.08895
56.6157
-1.13209
56.8683
-1.17497
57.1218
-1.21757
57.3763
-1.25988
57.6317
-1.30185
57.8879
-1.34348
58.145
-1.38473
58.4029
-1.42559
58.6619
-1.46602
58.9209
-1.50602
59.1828
-1.54551
59.439
-1.58467
59.7159
-1.62281
-1.66203
59.9316
39.7425
1.2187
-39.4633
40.018
1.20413
40.2893
1.18852
40.5567
1.17188
40.8204
1.15421
41.0806
1.13554
41.3374
1.11587
41.591
1.0952
41.8415
1.07356
42.0892
1.05094
42.3342
1.02738
42.5767
1.00287
42.8167
0.977433
43.0545
0.95108
43.2901
0.923827
43.5238
0.895688
43.7556
0.866677
43.9858
0.83681
44.2143
0.806104
44.4414
0.774575
44.6671
0.742239
44.8916
0.709114
45.115
0.675218
45.3373
0.640568
45.5588
0.605184
45.7795
0.569084
45.9995
0.532288
46.2189
0.494814
46.4378
0.456684
46.6563
0.417918
46.8744
0.378537
47.0924
0.338561
47.3101
0.298012
47.5278
0.256912
47.7455
0.215283
47.9633
0.173148
48.1812
0.130529
48.3993
0.087449
48.6177
0.0439315
48.8364
0
49.0555
-0.0443217
49.2751
-0.0890099
49.4952
-0.13404
49.7158
-0.179388
49.9371
-0.225029
50.159
-0.270938
50.3816
-0.31709
50.605
-0.36346
50.8291
-0.410023
51.054
-0.456753
51.2798
-0.503625
51.5064
-0.550613
51.734
-0.597692
51.9624
-0.644835
52.1919
-0.692017
52.4222
-0.739211
52.6536
-0.786392
52.886
-0.833534
53.1193
-0.88061
53.3537
-0.927595
53.5892
-0.974463
53.8256
-1.02119
54.0631
-1.06774
54.3016
-1.1141
54.5412
-1.16024
54.7818
-1.20613
55.0233
-1.25175
55.2659
-1.29708
55.5095
-1.34207
55.7541
-1.38673
55.9997
-1.431
56.2462
-1.47488
56.4935
-1.51834
56.742
-1.56134
56.9906
-1.60389
57.2422
-1.64589
57.4883
-1.68754
57.7544
-1.72811
-1.76982
57.9622
38.9385
1.30693
-38.6842
39.1896
1.2907
39.4371
1.27339
39.6813
1.25502
39.9224
1.23558
40.1604
1.2151
40.3955
1.19359
40.6279
1.17105
40.8578
1.14749
41.0852
1.12293
41.3103
1.09738
41.5333
1.07086
41.7543
1.04337
41.9735
1.01494
42.1908
0.985569
42.4065
0.955281
42.6208
0.92409
42.8336
0.892011
43.0451
0.859062
43.2555
0.825259
43.4648
0.79062
43.6732
0.755163
43.8807
0.718906
44.0875
0.681868
44.2936
0.644068
44.4991
0.605527
44.7042
0.566263
44.9089
0.526298
45.1132
0.485653
45.3174
0.444349
45.5214
0.402408
45.7254
0.359851
45.9294
0.316701
46.1335
0.27298
46.3377
0.228713
46.5422
0.183923
46.7469
0.138631
46.952
0.0928644
47.1575
0.0466458
47.3635
0
47.57
-0.0470481
47.777
-0.0944733
47.9847
-0.142251
48.1931
-0.190354
48.4021
-0.238758
48.612
-0.287437
48.8226
-0.336364
49.034
-0.385513
49.2463
-0.434858
49.4595
-0.484373
49.6736
-0.534029
49.8887
-0.583802
50.1048
-0.633662
50.3218
-0.683585
50.5399
-0.733542
50.759
-0.783506
50.9792
-0.833451
51.2004
-0.883348
51.4227
-0.933171
51.6461
-0.982893
51.8706
-1.03249
52.0962
-1.08192
52.3229
-1.13118
52.5506
-1.18022
52.7795
-1.22903
53.0094
-1.27757
53.2405
-1.32582
53.4726
-1.37376
53.7057
-1.42135
53.9399
-1.46857
54.1751
-1.51539
54.4113
-1.56179
54.6485
-1.60774
54.8868
-1.65321
55.1255
-1.6982
55.3669
-1.74261
55.6033
-1.78665
55.8589
-1.82955
-1.87363
56.059
38.1303
1.39377
-37.8988
38.3591
1.37586
38.5849
1.35684
38.8078
1.33672
39.0281
1.31551
39.2457
1.29321
39.461
1.26985
39.6739
1.24544
39.8847
1.21997
40.0935
1.19347
40.3004
1.16595
40.5054
1.13743
40.7089
1.10791
40.9107
1.07741
41.1112
1.04594
41.3103
1.01353
41.5082
0.980184
41.705
0.945923
41.9008
0.910763
42.0957
0.874722
42.2898
0.837817
42.4831
0.800069
42.6759
0.761494
42.8681
0.722114
43.0599
0.681947
43.2513
0.641015
43.4424
0.599338
43.6334
0.556938
43.8242
0.513836
44.015
0.470055
44.2058
0.425616
44.3967
0.380544
44.5877
0.33486
44.7791
0.28859
44.9707
0.241755
45.1626
0.194383
45.355
0.146496
45.5479
0.098119
45.7412
0.0492788
45.9352
0
46.1298
-0.0496914
46.325
-0.0997693
46.521
-0.150207
46.7178
-0.200979
46.9153
-0.252057
47.1137
-0.303415
47.313
-0.355025
47.5131
-0.40686
47.7143
-0.458893
47.9163
-0.511097
48.1194
-0.563441
48.3235
-0.6159
48.5287
-0.668445
48.7349
-0.721048
48.9422
-0.773681
49.1505
-0.826314
49.36
-0.878921
49.5707
-0.931473
49.7824
-0.983941
49.9953
-1.0363
50.2093
-1.08851
50.4245
-1.14056
50.6408
-1.19241
50.8583
-1.24403
51.0769
-1.2954
51.2967
-1.34649
51.5175
-1.39727
51.7395
-1.44772
51.9626
-1.4978
52.1868
-1.54748
52.4121
-1.59675
52.6384
-1.64557
52.8657
-1.69392
53.0943
-1.74176
53.3232
-1.78909
53.5549
-1.83581
53.7819
-1.88214
54.0273
-1.92728
-1.97363
54.2199
37.3203
1.47916
-37.1097
37.5288
1.45955
37.7346
1.43881
37.9381
1.41694
38.1392
1.39395
38.3382
1.36984
38.5352
1.34464
38.7303
1.31835
38.9235
1.29099
39.1151
1.26256
39.3051
1.23308
39.4937
1.20257
39.6808
1.17103
39.8668
1.13849
40.0516
1.10495
40.2353
1.07044
40.4181
1.03497
40.6001
0.998559
40.7812
0.961222
40.9617
0.922979
41.1417
0.883849
41.3211
0.84385
41.5001
0.803002
41.6788
0.761325
41.8572
0.718841
42.0354
0.675569
42.2135
0.631533
42.3917
0.586753
42.5698
0.541252
42.7481
0.495053
42.9265
0.44818
43.1052
0.400655
43.2842
0.352505
43.4635
0.303751
43.6433
0.254421
43.8235
0.204538
44.0042
0.154128
44.1856
0.103218
44.3676
0.051833
44.5502
0
44.7336
-0.0522543
44.9177
-0.104903
45.1026
-0.157918
45.2884
-0.211273
45.4751
-0.264939
45.6627
-0.318889
45.8512
-0.373093
46.0407
-0.427525
46.2312
-0.482155
46.4228
-0.536955
46.6154
-0.591895
46.809
-0.646947
47.0038
-0.702082
47.1997
-0.757269
47.3967
-0.812481
47.5949
-0.867688
47.7942
-0.92286
47.9947
-0.977968
48.1964
-1.03298
48.3993
-1.08787
48.6033
-1.14261
48.8086
-1.19717
49.015
-1.25152
49.2226
-1.30562
49.4314
-1.35946
49.6414
-1.413
49.8525
-1.46621
50.0648
-1.51906
50.2782
-1.57153
50.4928
-1.62358
50.7085
-1.6752
50.9253
-1.72634
51.1431
-1.77699
51.3622
-1.8271
51.5818
-1.87668
51.804
-1.92562
52.022
-1.97414
52.2574
-2.02142
-2.06995
52.4428
36.5107
1.56304
-36.3191
36.7005
1.54174
36.8881
1.51928
37.0736
1.49565
37.2573
1.47088
37.4392
1.44497
37.6193
1.41794
37.7979
1.38979
37.9751
1.36053
38.1508
1.33019
38.3253
1.29877
38.4985
1.26629
38.6707
1.23275
38.8419
1.19819
39.0123
1.16261
39.1818
1.12603
39.3506
1.08846
39.5187
1.04993
39.6863
1.01046
39.8535
0.97005
40.0203
0.928732
40.1867
0.886525
40.3529
0.843448
40.519
0.799522
40.685
0.754768
40.8509
0.709208
41.0169
0.662865
41.183
0.61576
41.3494
0.567918
41.5159
0.51936
41.6828
0.470113
41.85
0.420201
42.0176
0.369647
42.1857
0.318478
42.3544
0.266719
42.5236
0.214396
42.6934
0.161536
42.8639
0.108165
43.0352
0.0543107
43.2072
0
43.38
-0.0547393
43.5536
-0.109879
43.7281
-0.165391
43.9036
-0.221247
44.08
-0.277417
44.2573
-0.333875
44.4357
-0.390589
44.6151
-0.44753
44.7956
-0.504669
44.9771
-0.561977
45.1598
-0.619424
45.3435
-0.676978
45.5285
-0.734611
45.7146
-0.792293
45.9018
-0.849992
46.0903
-0.907678
46.28
-0.965322
46.4708
-1.02289
46.6629
-1.08036
46.8562
-1.13769
47.0507
-1.19486
47.2464
-1.25183
47.4434
-1.30858
47.6416
-1.36507
47.841
-1.42128
48.0416
-1.47717
48.2434
-1.53272
48.4463
-1.58788
48.6505
-1.64265
48.8558
-1.69698
49.0623
-1.75084
49.27
-1.80421
49.4786
-1.85706
49.6886
-1.90936
49.8991
-1.96109
50.1123
-2.01216
50.3214
-2.06278
50.5473
-2.11213
-2.16273
50.7256
35.7032
1.64539
-35.5291
35.8759
1.62239
36.0468
1.59821
36.216
1.57284
36.3836
1.54629
36.5497
1.51859
36.7144
1.48973
36.8779
1.45973
37.0401
1.4286
37.2013
1.39636
37.3614
1.36301
37.5206
1.32858
37.6789
1.29308
37.8365
1.25652
37.9934
1.21893
38.1498
1.18031
38.3056
1.14068
38.461
1.10007
38.616
1.05848
38.7707
1.01595
38.9253
0.972487
39.0797
0.928115
39.234
0.882854
39.3883
0.836725
39.5427
0.78975
39.6972
0.741953
39.8519
0.693355
40.0068
0.64398
40.162
0.593852
40.3176
0.542994
40.4736
0.491434
40.6301
0.439194
40.7871
0.386301
40.9447
0.332782
41.1029
0.278661
41.2618
0.223966
41.4214
0.168725
41.5817
0.112965
41.7429
0.0567143
41.9048
0
42.0677
-0.0571487
42.2314
-0.114703
42.3961
-0.172633
42.5618
-0.230911
42.7284
-0.289506
42.8961
-0.348389
43.0649
-0.40753
43.2347
-0.466897
43.4057
-0.526462
43.5778
-0.586192
43.751
-0.646058
43.9254
-0.706029
44.101
-0.766073
44.2778
-0.826159
44.4558
-0.886257
44.635
-0.946334
44.8154
-1.00636
44.9971
-1.0663
45.18
-1.12613
45.3642
-1.18581
45.5496
-1.24532
45.7362
-1.30462
45.9241
-1.36367
46.1133
-1.42246
46.3037
-1.48095
46.4953
-1.5391
46.6882
-1.59689
46.8822
-1.65428
47.0775
-1.71125
47.274
-1.76776
47.4716
-1.82379
47.6704
-1.8793
47.8703
-1.93426
48.0714
-1.98865
48.2732
-2.04245
48.4776
-2.09555
48.6782
-2.14819
48.8949
-2.19951
-2.25211
49.0664
34.8996
1.72617
-34.7414
35.0567
1.70148
35.2122
1.67558
35.3663
1.64848
35.5192
1.62017
35.6708
1.59068
35.8214
1.56001
35.9708
1.52817
36.1194
1.49519
36.2671
1.46107
36.4139
1.42583
36.5601
1.38947
36.7057
1.35202
36.8507
1.3135
36.9952
1.27391
37.1393
1.23329
37.2831
1.19163
37.4267
1.14897
37.57
1.10532
37.7132
1.0607
37.8564
1.01513
37.9996
0.968638
38.1428
0.921237
38.2862
0.872952
38.4297
0.823806
38.5736
0.773821
38.7177
0.723021
38.8622
0.671429
39.007
0.619071
39.1524
0.565972
39.2983
0.512156
39.4447
0.45765
39.5918
0.40248
39.7395
0.346673
39.8879
0.290256
40.037
0.233257
40.187
0.175703
40.3378
0.117623
40.4894
0.0590457
40.6419
0
40.7954
-0.0594847
40.9498
-0.119379
41.1052
-0.179653
41.2616
-0.240276
41.4191
-0.301218
41.5777
-0.362447
41.7374
-0.423935
41.8982
-0.485648
42.0601
-0.547556
42.2232
-0.609627
42.3875
-0.67183
42.553
-0.734133
42.7197
-0.796503
42.8876
-0.858909
43.0568
-0.92132
43.2272
-0.983702
43.3989
-1.04602
43.5718
-1.10825
43.746
-1.17035
43.9215
-1.2323
44.0982
-1.29406
44.2762
-1.35559
44.4554
-1.41687
44.636
-1.47786
44.8178
-1.53854
45.0008
-1.59886
45.1851
-1.65881
45.3706
-1.71834
45.5573
-1.77742
45.7452
-1.83603
45.9344
-1.89413
46.1247
-1.9517
46.3161
-2.00869
46.5088
-2.06508
46.7022
-2.12086
46.8981
-2.17592
47.0905
-2.23049
47.2982
-2.2837
-2.3382
47.4632
34.1013
1.80536
-33.9577
34.244
1.779
34.3854
1.75139
34.5258
1.72256
34.6651
1.6925
34.8034
1.66124
34.9409
1.62878
35.0775
1.59513
35.2134
1.56031
35.3487
1.52433
35.4834
1.48721
35.6175
1.44896
35.7513
1.40959
35.8846
1.36913
36.0177
1.32759
36.1505
1.28499
36.2831
1.24134
36.4157
1.19666
36.5482
1.15098
36.6807
1.10432
36.8133
1.05669
36.946
1.00811
37.079
0.95862
37.2121
0.908226
37.3456
0.856956
37.4795
0.804833
37.6137
0.751882
37.7484
0.698128
37.8837
0.643595
38.0194
0.588309
38.1558
0.532296
38.2928
0.475583
38.4306
0.418197
38.569
0.360165
38.7082
0.301515
38.8483
0.242275
38.9891
0.182475
39.1309
0.122142
39.2736
0.0613075
39.4172
0
39.5618
-0.06175
39.7075
-0.123912
39.8541
-0.186456
40.0019
-0.24935
40.1507
-0.312563
40.3006
-0.376064
40.4517
-0.439822
40.6039
-0.503802
40.7574
-0.567976
40.912
-0.632308
41.0678
-0.696768
41.2248
-0.761322
41.3831
-0.825938
41.5426
-0.890583
41.7034
-0.955223
41.8654
-1.01983
42.0287
-1.08436
42.1933
-1.14879
42.3592
-1.21308
42.5264
-1.27721
42.6948
-1.34113
42.8645
-1.40482
43.0355
-1.46824
43.2078
-1.53135
43.3814
-1.59413
43.5562
-1.65655
43.7322
-1.71856
43.9096
-1.78015
44.0881
-1.84126
44.2679
-1.90189
44.4488
-1.96198
44.631
-2.02151
44.8143
-2.08045
44.9989
-2.13877
45.1841
-2.19645
45.3719
-2.25338
45.5564
-2.3098
45.7555
-2.36483
-2.42114
45.9141
33.3095
1.88295
-33.1793
33.4391
1.85492
33.5676
1.82562
33.6953
1.79507
33.8221
1.76329
33.9482
1.73027
34.0736
1.69603
34.1985
1.66059
34.3227
1.62396
34.4465
1.58615
34.5699
1.54718
34.693
1.50706
34.8158
1.4658
34.9384
1.42343
35.0608
1.37997
35.1832
1.33542
35.3055
1.28982
35.4278
1.24317
35.5503
1.1955
35.6728
1.14682
35.7956
1.09717
35.9186
1.04657
36.042
0.995021
36.1656
0.942564
36.2897
0.889219
36.4143
0.835008
36.5393
0.779958
36.6649
0.724093
36.7911
0.667439
36.9179
0.610021
37.0454
0.551869
37.1736
0.493006
37.3026
0.433463
37.4323
0.373267
37.5629
0.312446
37.6944
0.251029
37.8268
0.189047
37.9601
0.126527
38.0943
0.0635015
38.2296
0
38.3659
-0.0639465
38.5032
-0.128307
38.6416
-0.19305
38.7812
-0.258143
38.9218
-0.323556
39.0636
-0.389254
39.2065
-0.455207
39.3506
-0.521381
39.496
-0.587743
39.6425
-0.654261
39.7903
-0.7209
39.9393
-0.787628
40.0896
-0.854411
40.2411
-0.921216
40.3939
-0.988008
40.548
-1.05475
40.7034
-1.12142
40.8601
-1.18797
41.018
-1.25438
41.1773
-1.3206
41.3378
-1.38661
41.4996
-1.45236
41.6628
-1.51784
41.8272
-1.583
41.9928
-1.6478
42.1598
-1.71222
42.328
-1.77623
42.4974
-1.83978
42.6681
-1.90286
42.84
-1.96541
43.0132
-2.02741
43.1875
-2.08884
43.363
-2.14965
43.5398
-2.20981
43.7172
-2.26931
43.8972
-2.32803
44.0741
-2.38623
44.2648
-2.44299
-2.50104
44.4174
32.5254
1.95892
-32.4075
32.6429
1.92924
32.7596
1.89827
32.8756
1.86603
32.991
1.83253
33.1059
1.79778
33.2202
1.76179
33.3341
1.72458
33.4477
1.68616
33.5609
1.64654
33.6739
1.60574
33.7867
1.56378
33.8994
1.52067
34.012
1.47643
34.1246
1.43107
34.2373
1.38461
34.35
1.33709
34.4629
1.2885
34.576
1.23888
34.6893
1.18824
34.8029
1.13661
34.9169
1.08401
35.0313
1.03046
35.1462
0.975988
35.2615
0.920615
35.3774
0.864366
35.4938
0.807266
35.6109
0.749342
35.7286
0.69062
35.847
0.631126
35.9662
0.570888
36.0862
0.509934
36.2069
0.448292
36.3286
0.38599
36.4511
0.323059
36.5745