/*--------------------------------*- C++ -*----------------------------------*\
| =========                 |                                                 |
| \\      /  F ield         | OpenFOAM: The Open Source CFD Toolbox           |
|  \\    /   O peration     | Version:  2312                                  |
|   \\  /    A nd           | Website:  www.openfoam.com                      |
|    \\/     M anipulation  |                                                 |
\*---------------------------------------------------------------------------*/
FoamFile
{
    version     2.0;
    format      ascii;
    arch        "LSB;label=32;scalar=64";
    class       volVectorField;
    location    "0.884";
    object      U;
}
// * * * * * * * * * * * * * * * * * * * * * * * * * * * * * * * * * * * * * //

dimensions      [0 1 -1 0 0 0 0];

internalField   nonuniform List<vector> 
31205
(
(179.669 0 0)
(182.684 0 0)
(185.62 0 0)
(188.483 0 0)
(191.275 0 0)
(194 0 0)
(196.662 0 0)
(199.262 0 0)
(201.804 0 0)
(204.289 0 0)
(206.721 0 0)
(209.101 0 0)
(211.431 0 0)
(213.713 0 0)
(215.949 0 0)
(218.139 0 0)
(220.287 0 0)
(222.392 0 0)
(224.456 0 0)
(226.481 0 0)
(228.467 0 0)
(230.416 0 0)
(232.329 0 0)
(234.206 0 0)
(236.048 0 0)
(237.856 0 0)
(239.632 0 0)
(241.375 0 0)
(243.086 0 0)
(244.766 0 0)
(246.416 0 0)
(248.036 0 0)
(249.627 0 0)
(251.189 0 0)
(252.723 0 0)
(254.229 0 0)
(255.707 0 0)
(257.158 0 0)
(258.583 0 0)
(259.982 0 0)
(261.354 0 0)
(262.701 0 0)
(264.022 0 0)
(265.319 0 0)
(266.59 0 0)
(267.837 0 0)
(269.059 0 0)
(270.257 0 0)
(271.432 0 0)
(272.582 0 0)
(273.709 0 0)
(274.812 0 0)
(275.891 0 0)
(276.947 0 0)
(277.98 0 0)
(278.99 0 0)
(279.977 0 0)
(280.94 0 0)
(281.881 0 0)
(282.798 0 0)
(283.692 0 0)
(284.564 0 0)
(285.412 0 0)
(286.237 0 0)
(287.039 0 0)
(287.817 0 0)
(288.572 0 0)
(289.304 0 0)
(290.012 0 0)
(290.696 0 0)
(291.356 0 0)
(291.992 0 0)
(292.604 0 0)
(293.19 0 0)
(293.753 0 0)
(294.287 0 0)
(294.811 0 0)
(295.254 0 0)
(295.851 0 0)
(182.868 0 0)
(185.713 0 0)
(188.488 0 0)
(191.198 0 0)
(193.844 0 0)
(196.43 0 0)
(198.958 0 0)
(201.431 0 0)
(203.851 0 0)
(206.221 0 0)
(208.541 0 0)
(210.813 0 0)
(213.04 0 0)
(215.223 0 0)
(217.364 0 0)
(219.463 0 0)
(221.522 0 0)
(223.542 0 0)
(225.524 0 0)
(227.47 0 0)
(229.38 0 0)
(231.255 0 0)
(233.097 0 0)
(234.905 0 0)
(236.681 0 0)
(238.425 0 0)
(240.138 0 0)
(241.822 0 0)
(243.475 0 0)
(245.1 0 0)
(246.696 0 0)
(248.264 0 0)
(249.804 0 0)
(251.317 0 0)
(252.804 0 0)
(254.265 0 0)
(255.699 0 0)
(257.109 0 0)
(258.493 0 0)
(259.852 0 0)
(261.187 0 0)
(262.498 0 0)
(263.784 0 0)
(265.047 0 0)
(266.287 0 0)
(267.503 0 0)
(268.696 0 0)
(269.867 0 0)
(271.014 0 0)
(272.14 0 0)
(273.242 0 0)
(274.323 0 0)
(275.381 0 0)
(276.417 0 0)
(277.432 0 0)
(278.424 0 0)
(279.395 0 0)
(280.343 0 0)
(281.27 0 0)
(282.176 0 0)
(283.059 0 0)
(283.921 0 0)
(284.761 0 0)
(285.58 0 0)
(286.376 0 0)
(287.151 0 0)
(287.904 0 0)
(288.634 0 0)
(289.343 0 0)
(290.029 0 0)
(290.693 0 0)
(291.334 0 0)
(291.953 0 0)
(292.548 0 0)
(293.122 0 0)
(293.667 0 0)
(294.206 0 0)
(294.664 0 0)
(295.283 0 0)
(186.029 0 0)
(188.713 0 0)
(191.335 0 0)
(193.898 0 0)
(196.405 0 0)
(198.858 0 0)
(201.259 0 0)
(203.61 0 0)
(205.913 0 0)
(208.169 0 0)
(210.381 0 0)
(212.55 0 0)
(214.678 0 0)
(216.764 0 0)
(218.812 0 0)
(220.822 0 0)
(222.795 0 0)
(224.732 0 0)
(226.634 0 0)
(228.503 0 0)
(230.338 0 0)
(232.141 0 0)
(233.912 0 0)
(235.653 0 0)
(237.364 0 0)
(239.045 0 0)
(240.697 0 0)
(242.321 0 0)
(243.918 0 0)
(245.487 0 0)
(247.03 0 0)
(248.546 0 0)
(250.036 0 0)
(251.501 0 0)
(252.941 0 0)
(254.357 0 0)
(255.748 0 0)
(257.115 0 0)
(258.459 0 0)
(259.779 0 0)
(261.076 0 0)
(262.35 0 0)
(263.602 0 0)
(264.831 0 0)
(266.039 0 0)
(267.224 0 0)
(268.387 0 0)
(269.529 0 0)
(270.65 0 0)
(271.749 0 0)
(272.827 0 0)
(273.884 0 0)
(274.921 0 0)
(275.936 0 0)
(276.931 0 0)
(277.905 0 0)
(278.858 0 0)
(279.791 0 0)
(280.703 0 0)
(281.595 0 0)
(282.466 0 0)
(283.317 0 0)
(284.148 0 0)
(284.958 0 0)
(285.747 0 0)
(286.516 0 0)
(287.265 0 0)
(287.992 0 0)
(288.699 0 0)
(289.385 0 0)
(290.05 0 0)
(290.694 0 0)
(291.317 0 0)
(291.918 0 0)
(292.499 0 0)
(293.053 0 0)
(293.603 0 0)
(294.072 0 0)
(294.708 0 0)
(189.069 0 0)
(191.604 0 0)
(194.083 0 0)
(196.51 0 0)
(198.887 0 0)
(201.215 0 0)
(203.496 0 0)
(205.732 0 0)
(207.924 0 0)
(210.074 0 0)
(212.184 0 0)
(214.254 0 0)
(216.287 0 0)
(218.282 0 0)
(220.241 0 0)
(222.166 0 0)
(224.056 0 0)
(225.914 0 0)
(227.739 0 0)
(229.533 0 0)
(231.296 0 0)
(233.03 0 0)
(234.734 0 0)
(236.409 0 0)
(238.057 0 0)
(239.677 0 0)
(241.27 0 0)
(242.837 0 0)
(244.378 0 0)
(245.894 0 0)
(247.384 0 0)
(248.85 0 0)
(250.292 0 0)
(251.71 0 0)
(253.104 0 0)
(254.475 0 0)
(255.824 0 0)
(257.15 0 0)
(258.453 0 0)
(259.735 0 0)
(260.995 0 0)
(262.233 0 0)
(263.451 0 0)
(264.647 0 0)
(265.822 0 0)
(266.976 0 0)
(268.11 0 0)
(269.224 0 0)
(270.317 0 0)
(271.391 0 0)
(272.444 0 0)
(273.477 0 0)
(274.491 0 0)
(275.485 0 0)
(276.46 0 0)
(277.415 0 0)
(278.35 0 0)
(279.267 0 0)
(280.164 0 0)
(281.041 0 0)
(281.899 0 0)
(282.738 0 0)
(283.558 0 0)
(284.359 0 0)
(285.14 0 0)
(285.902 0 0)
(286.644 0 0)
(287.367 0 0)
(288.071 0 0)
(288.755 0 0)
(289.419 0 0)
(290.064 0 0)
(290.689 0 0)
(291.293 0 0)
(291.879 0 0)
(292.439 0 0)
(292.998 0 0)
(293.475 0 0)
(294.126 0 0)
(191.961 0 0)
(194.358 0 0)
(196.706 0 0)
(199.006 0 0)
(201.261 0 0)
(203.472 0 0)
(205.641 0 0)
(207.769 0 0)
(209.858 0 0)
(211.908 0 0)
(213.921 0 0)
(215.899 0 0)
(217.841 0 0)
(219.749 0 0)
(221.625 0 0)
(223.468 0 0)
(225.281 0 0)
(227.062 0 0)
(228.814 0 0)
(230.537 0 0)
(232.232 0 0)
(233.899 0 0)
(235.538 0 0)
(237.151 0 0)
(238.738 0 0)
(240.3 0 0)
(241.836 0 0)
(243.348 0 0)
(244.835 0 0)
(246.299 0 0)
(247.739 0 0)
(249.156 0 0)
(250.551 0 0)
(251.923 0 0)
(253.273 0 0)
(254.602 0 0)
(255.909 0 0)
(257.194 0 0)
(258.459 0 0)
(259.703 0 0)
(260.927 0 0)
(262.13 0 0)
(263.314 0 0)
(264.477 0 0)
(265.621 0 0)
(266.745 0 0)
(267.85 0 0)
(268.935 0 0)
(270.002 0 0)
(271.049 0 0)
(272.078 0 0)
(273.088 0 0)
(274.08 0 0)
(275.052 0 0)
(276.007 0 0)
(276.943 0 0)
(277.86 0 0)
(278.759 0 0)
(279.64 0 0)
(280.503 0 0)
(281.348 0 0)
(282.174 0 0)
(282.983 0 0)
(283.773 0 0)
(284.545 0 0)
(285.299 0 0)
(286.034 0 0)
(286.752 0 0)
(287.451 0 0)
(288.132 0 0)
(288.794 0 0)
(289.438 0 0)
(290.063 0 0)
(290.669 0 0)
(291.258 0 0)
(291.823 0 0)
(292.387 0 0)
(292.871 0 0)
(293.533 0 0)
(194.703 0 0)
(196.973 0 0)
(199.198 0 0)
(201.381 0 0)
(203.523 0 0)
(205.625 0 0)
(207.689 0 0)
(209.716 0 0)
(211.707 0 0)
(213.663 0 0)
(215.585 0 0)
(217.475 0 0)
(219.333 0 0)
(221.159 0 0)
(222.955 0 0)
(224.722 0 0)
(226.46 0 0)
(228.169 0 0)
(229.851 0 0)
(231.507 0 0)
(233.136 0 0)
(234.739 0 0)
(236.317 0 0)
(237.87 0 0)
(239.399 0 0)
(240.904 0 0)
(242.386 0 0)
(243.844 0 0)
(245.28 0 0)
(246.694 0 0)
(248.086 0 0)
(249.456 0 0)
(250.805 0 0)
(252.133 0 0)
(253.441 0 0)
(254.728 0 0)
(255.994 0 0)
(257.241 0 0)
(258.468 0 0)
(259.676 0 0)
(260.864 0 0)
(262.033 0 0)
(263.183 0 0)
(264.315 0 0)
(265.428 0 0)
(266.523 0 0)
(267.599 0 0)
(268.657 0 0)
(269.697 0 0)
(270.719 0 0)
(271.724 0 0)
(272.711 0 0)
(273.68 0 0)
(274.631 0 0)
(275.565 0 0)
(276.482 0 0)
(277.382 0 0)
(278.264 0 0)
(279.129 0 0)
(279.977 0 0)
(280.807 0 0)
(281.621 0 0)
(282.417 0 0)
(283.197 0 0)
(283.959 0 0)
(284.704 0 0)
(285.432 0 0)
(286.143 0 0)
(286.836 0 0)
(287.513 0 0)
(288.172 0 0)
(288.813 0 0)
(289.438 0 0)
(290.044 0 0)
(290.635 0 0)
(291.202 0 0)
(291.771 0 0)
(292.258 0 0)
(292.93 0 0)
(197.303 0 0)
(199.454 0 0)
(201.565 0 0)
(203.639 0 0)
(205.675 0 0)
(207.675 0 0)
(209.641 0 0)
(211.573 0 0)
(213.473 0 0)
(215.34 0 0)
(217.177 0 0)
(218.984 0 0)
(220.761 0 0)
(222.51 0 0)
(224.231 0 0)
(225.925 0 0)
(227.592 0 0)
(229.233 0 0)
(230.848 0 0)
(232.439 0 0)
(234.006 0 0)
(235.548 0 0)
(237.067 0 0)
(238.563 0 0)
(240.036 0 0)
(241.487 0 0)
(242.917 0 0)
(244.324 0 0)
(245.711 0 0)
(247.077 0 0)
(248.422 0 0)
(249.747 0 0)
(251.052 0 0)
(252.338 0 0)
(253.604 0 0)
(254.85 0 0)
(256.078 0 0)
(257.287 0 0)
(258.478 0 0)
(259.65 0 0)
(260.804 0 0)
(261.94 0 0)
(263.058 0 0)
(264.158 0 0)
(265.241 0 0)
(266.307 0 0)
(267.355 0 0)
(268.386 0 0)
(269.401 0 0)
(270.398 0 0)
(271.378 0 0)
(272.342 0 0)
(273.289 0 0)
(274.22 0 0)
(275.134 0 0)
(276.032 0 0)
(276.913 0 0)
(277.778 0 0)
(278.627 0 0)
(279.459 0 0)
(280.276 0 0)
(281.076 0 0)
(281.86 0 0)
(282.628 0 0)
(283.38 0 0)
(284.116 0 0)
(284.835 0 0)
(285.539 0 0)
(286.226 0 0)
(286.897 0 0)
(287.552 0 0)
(288.191 0 0)
(288.813 0 0)
(289.418 0 0)
(290.009 0 0)
(290.577 0 0)
(291.149 0 0)
(291.639 0 0)
(292.318 0 0)
(199.768 0 0)
(201.81 0 0)
(203.815 0 0)
(205.786 0 0)
(207.724 0 0)
(209.629 0 0)
(211.503 0 0)
(213.346 0 0)
(215.159 0 0)
(216.943 0 0)
(218.699 0 0)
(220.427 0 0)
(222.129 0 0)
(223.804 0 0)
(225.454 0 0)
(227.078 0 0)
(228.678 0 0)
(230.254 0 0)
(231.806 0 0)
(233.336 0 0)
(234.842 0 0)
(236.327 0 0)
(237.789 0 0)
(239.231 0 0)
(240.651 0 0)
(242.05 0 0)
(243.429 0 0)
(244.788 0 0)
(246.127 0 0)
(247.447 0 0)
(248.747 0 0)
(250.028 0 0)
(251.291 0 0)
(252.535 0 0)
(253.761 0 0)
(254.969 0 0)
(256.159 0 0)
(257.332 0 0)
(258.487 0 0)
(259.624 0 0)
(260.745 0 0)
(261.849 0 0)
(262.936 0 0)
(264.006 0 0)
(265.059 0 0)
(266.097 0 0)
(267.118 0 0)
(268.122 0 0)
(269.111 0 0)
(270.084 0 0)
(271.041 0 0)
(271.982 0 0)
(272.907 0 0)
(273.817 0 0)
(274.711 0 0)
(275.59 0 0)
(276.453 0 0)
(277.301 0 0)
(278.134 0 0)
(278.951 0 0)
(279.753 0 0)
(280.54 0 0)
(281.311 0 0)
(282.068 0 0)
(282.809 0 0)
(283.535 0 0)
(284.245 0 0)
(284.941 0 0)
(285.621 0 0)
(286.286 0 0)
(286.936 0 0)
(287.57 0 0)
(288.189 0 0)
(288.793 0 0)
(289.383 0 0)
(289.95 0 0)
(290.524 0 0)
(291.015 0 0)
(291.699 0 0)
(202.11 0 0)
(204.049 0 0)
(205.955 0 0)
(207.831 0 0)
(209.676 0 0)
(211.492 0 0)
(213.279 0 0)
(215.038 0 0)
(216.77 0 0)
(218.476 0 0)
(220.155 0 0)
(221.81 0 0)
(223.439 0 0)
(225.045 0 0)
(226.627 0 0)
(228.185 0 0)
(229.721 0 0)
(231.235 0 0)
(232.727 0 0)
(234.198 0 0)
(235.647 0 0)
(237.076 0 0)
(238.485 0 0)
(239.874 0 0)
(241.243 0 0)
(242.592 0 0)
(243.923 0 0)
(245.235 0 0)
(246.528 0 0)
(247.804 0 0)
(249.061 0 0)
(250.3 0 0)
(251.522 0 0)
(252.727 0 0)
(253.914 0 0)
(255.084 0 0)
(256.238 0 0)
(257.375 0 0)
(258.495 0 0)
(259.6 0 0)
(260.688 0 0)
(261.76 0 0)
(262.817 0 0)
(263.857 0 0)
(264.882 0 0)
(265.892 0 0)
(266.886 0 0)
(267.865 0 0)
(268.829 0 0)
(269.778 0 0)
(270.711 0 0)
(271.63 0 0)
(272.534 0 0)
(273.424 0 0)
(274.298 0 0)
(275.158 0 0)
(276.003 0 0)
(276.834 0 0)
(277.65 0 0)
(278.452 0 0)
(279.239 0 0)
(280.012 0 0)
(280.771 0 0)
(281.515 0 0)
(282.245 0 0)
(282.961 0 0)
(283.662 0 0)
(284.349 0 0)
(285.021 0 0)
(285.68 0 0)
(286.323 0 0)
(286.953 0 0)
(287.568 0 0)
(288.168 0 0)
(288.756 0 0)
(289.323 0 0)
(289.896 0 0)
(290.388 0 0)
(291.074 0 0)
(204.335 0 0)
(206.179 0 0)
(207.993 0 0)
(209.779 0 0)
(211.538 0 0)
(213.269 0 0)
(214.975 0 0)
(216.655 0 0)
(218.311 0 0)
(219.942 0 0)
(221.549 0 0)
(223.134 0 0)
(224.695 0 0)
(226.235 0 0)
(227.752 0 0)
(229.248 0 0)
(230.723 0 0)
(232.178 0 0)
(233.612 0 0)
(235.027 0 0)
(236.422 0 0)
(237.798 0 0)
(239.155 0 0)
(240.494 0 0)
(241.814 0 0)
(243.116 0 0)
(244.4 0 0)
(245.667 0 0)
(246.916 0 0)
(248.149 0 0)
(249.364 0 0)
(250.563 0 0)
(251.745 0 0)
(252.912 0 0)
(254.062 0 0)
(255.196 0 0)
(256.314 0 0)
(257.417 0 0)
(258.504 0 0)
(259.576 0 0)
(260.633 0 0)
(261.674 0 0)
(262.701 0 0)
(263.713 0 0)
(264.71 0 0)
(265.693 0 0)
(266.661 0 0)
(267.614 0 0)
(268.554 0 0)
(269.479 0 0)
(270.39 0 0)
(271.287 0 0)
(272.17 0 0)
(273.039 0 0)
(273.894 0 0)
(274.735 0 0)
(275.562 0 0)
(276.376 0 0)
(277.176 0 0)
(277.962 0 0)
(278.735 0 0)
(279.494 0 0)
(280.239 0 0)
(280.971 0 0)
(281.689 0 0)
(282.394 0 0)
(283.086 0 0)
(283.764 0 0)
(284.428 0 0)
(285.079 0 0)
(285.716 0 0)
(286.34 0 0)
(286.95 0 0)
(287.546 0 0)
(288.131 0 0)
(288.695 0 0)
(289.267 0 0)
(289.759 0 0)
(290.446 0 0)
(206.453 0 0)
(208.208 0 0)
(209.935 0 0)
(211.637 0 0)
(213.314 0 0)
(214.967 0 0)
(216.596 0 0)
(218.202 0 0)
(219.785 0 0)
(221.346 0 0)
(222.885 0 0)
(224.403 0 0)
(225.9 0 0)
(227.376 0 0)
(228.832 0 0)
(230.269 0 0)
(231.686 0 0)
(233.084 0 0)
(234.464 0 0)
(235.825 0 0)
(237.168 0 0)
(238.493 0 0)
(239.801 0 0)
(241.091 0 0)
(242.364 0 0)
(243.621 0 0)
(244.86 0 0)
(246.084 0 0)
(247.291 0 0)
(248.482 0 0)
(249.657 0 0)
(250.817 0 0)
(251.962 0 0)
(253.091 0 0)
(254.205 0 0)
(255.304 0 0)
(256.388 0 0)
(257.457 0 0)
(258.512 0 0)
(259.552 0 0)
(260.579 0 0)
(261.591 0 0)
(262.589 0 0)
(263.572 0 0)
(264.542 0 0)
(265.499 0 0)
(266.441 0 0)
(267.37 0 0)
(268.286 0 0)
(269.188 0 0)
(270.076 0 0)
(270.951 0 0)
(271.813 0 0)
(272.662 0 0)
(273.498 0 0)
(274.321 0 0)
(275.13 0 0)
(275.927 0 0)
(276.71 0 0)
(277.481 0 0)
(278.239 0 0)
(278.984 0 0)
(279.716 0 0)
(280.436 0 0)
(281.142 0 0)
(281.836 0 0)
(282.517 0 0)
(283.186 0 0)
(283.841 0 0)
(284.484 0 0)
(285.114 0 0)
(285.732 0 0)
(286.337 0 0)
(286.928 0 0)
(287.509 0 0)
(288.07 0 0)
(288.639 0 0)
(289.129 0 0)
(289.816 0 0)
(208.471 0 0)
(210.141 0 0)
(211.787 0 0)
(213.411 0 0)
(215.011 0 0)
(216.589 0 0)
(218.146 0 0)
(219.681 0 0)
(221.196 0 0)
(222.69 0 0)
(224.165 0 0)
(225.619 0 0)
(227.055 0 0)
(228.472 0 0)
(229.87 0 0)
(231.25 0 0)
(232.612 0 0)
(233.956 0 0)
(235.283 0 0)
(236.593 0 0)
(237.886 0 0)
(239.163 0 0)
(240.423 0 0)
(241.667 0 0)
(242.895 0 0)
(244.108 0 0)
(245.305 0 0)
(246.486 0 0)
(247.653 0 0)
(248.804 0 0)
(249.941 0 0)
(251.063 0 0)
(252.171 0 0)
(253.264 0 0)
(254.343 0 0)
(255.408 0 0)
(256.459 0 0)
(257.496 0 0)
(258.52 0 0)
(259.53 0 0)
(260.526 0 0)
(261.509 0 0)
(262.479 0 0)
(263.436 0 0)
(264.379 0 0)
(265.31 0 0)
(266.228 0 0)
(267.132 0 0)
(268.024 0 0)
(268.903 0 0)
(269.77 0 0)
(270.624 0 0)
(271.466 0 0)
(272.295 0 0)
(273.111 0 0)
(273.916 0 0)
(274.707 0 0)
(275.487 0 0)
(276.255 0 0)
(277.01 0 0)
(277.753 0 0)
(278.484 0 0)
(279.202 0 0)
(279.909 0 0)
(280.604 0 0)
(281.286 0 0)
(281.957 0 0)
(282.615 0 0)
(283.262 0 0)
(283.896 0 0)
(284.519 0 0)
(285.129 0 0)
(285.728 0 0)
(286.314 0 0)
(286.89 0 0)
(287.447 0 0)
(288.013 0 0)
(288.501 0 0)
(289.185 0 0)
(210.393 0 0)
(211.985 0 0)
(213.555 0 0)
(215.104 0 0)
(216.632 0 0)
(218.14 0 0)
(219.629 0 0)
(221.098 0 0)
(222.547 0 0)
(223.979 0 0)
(225.392 0 0)
(226.787 0 0)
(228.164 0 0)
(229.524 0 0)
(230.866 0 0)
(232.192 0 0)
(233.502 0 0)
(234.795 0 0)
(236.071 0 0)
(237.333 0 0)
(238.578 0 0)
(239.808 0 0)
(241.023 0 0)
(242.223 0 0)
(243.408 0 0)
(244.578 0 0)
(245.734 0 0)
(246.875 0 0)
(248.003 0 0)
(249.116 0 0)
(250.215 0 0)
(251.301 0 0)
(252.373 0 0)
(253.432 0 0)
(254.477 0 0)
(255.509 0 0)
(256.528 0 0)
(257.534 0 0)
(258.528 0 0)
(259.508 0 0)
(260.476 0 0)
(261.431 0 0)
(262.373 0 0)
(263.303 0 0)
(264.221 0 0)
(265.126 0 0)
(266.019 0 0)
(266.901 0 0)
(267.77 0 0)
(268.627 0 0)
(269.472 0 0)
(270.305 0 0)
(271.126 0 0)
(271.936 0 0)
(272.733 0 0)
(273.519 0 0)
(274.294 0 0)
(275.057 0 0)
(275.808 0 0)
(276.548 0 0)
(277.276 0 0)
(277.993 0 0)
(278.698 0 0)
(279.392 0 0)
(280.074 0 0)
(280.745 0 0)
(281.405 0 0)
(282.053 0 0)
(282.69 0 0)
(283.316 0 0)
(283.93 0 0)
(284.533 0 0)
(285.125 0 0)
(285.705 0 0)
(286.275 0 0)
(286.828 0 0)
(287.39 0 0)
(287.875 0 0)
(288.555 0 0)
(212.227 0 0)
(213.745 0 0)
(215.243 0 0)
(216.722 0 0)
(218.183 0 0)
(219.624 0 0)
(221.048 0 0)
(222.454 0 0)
(223.842 0 0)
(225.214 0 0)
(226.569 0 0)
(227.907 0 0)
(229.228 0 0)
(230.534 0 0)
(231.824 0 0)
(233.098 0 0)
(234.357 0 0)
(235.601 0 0)
(236.83 0 0)
(238.045 0 0)
(239.245 0 0)
(240.43 0 0)
(241.601 0 0)
(242.759 0 0)
(243.902 0 0)
(245.032 0 0)
(246.148 0 0)
(247.251 0 0)
(248.341 0 0)
(249.417 0 0)
(250.481 0 0)
(251.531 0 0)
(252.569 0 0)
(253.595 0 0)
(254.607 0 0)
(255.608 0 0)
(256.596 0 0)
(257.571 0 0)
(258.535 0 0)
(259.487 0 0)
(260.426 0 0)
(261.354 0 0)
(262.27 0 0)
(263.174 0 0)
(264.067 0 0)
(264.948 0 0)
(265.817 0 0)
(266.675 0 0)
(267.521 0 0)
(268.357 0 0)
(269.181 0 0)
(269.993 0 0)
(270.795 0 0)
(271.585 0 0)
(272.364 0 0)
(273.132 0 0)
(273.889 0 0)
(274.636 0 0)
(275.371 0 0)
(276.095 0 0)
(276.808 0 0)
(277.511 0 0)
(278.203 0 0)
(278.883 0 0)
(279.554 0 0)
(280.213 0 0)
(280.861 0 0)
(281.499 0 0)
(282.126 0 0)
(282.743 0 0)
(283.349 0 0)
(283.944 0 0)
(284.528 0 0)
(285.101 0 0)
(285.666 0 0)
(286.213 0 0)
(286.77 0 0)
(287.251 0 0)
(287.927 0 0)
(213.978 0 0)
(215.426 0 0)
(216.857 0 0)
(218.27 0 0)
(219.666 0 0)
(221.045 0 0)
(222.407 0 0)
(223.754 0 0)
(225.084 0 0)
(226.399 0 0)
(227.698 0 0)
(228.982 0 0)
(230.251 0 0)
(231.505 0 0)
(232.745 0 0)
(233.97 0 0)
(235.181 0 0)
(236.378 0 0)
(237.561 0 0)
(238.731 0 0)
(239.887 0 0)
(241.03 0 0)
(242.159 0 0)
(243.276 0 0)
(244.379 0 0)
(245.47 0 0)
(246.548 0 0)
(247.614 0 0)
(248.668 0 0)
(249.709 0 0)
(250.737 0 0)
(251.754 0 0)
(252.759 0 0)
(253.752 0 0)
(254.733 0 0)
(255.703 0 0)
(256.661 0 0)
(257.607 0 0)
(258.542 0 0)
(259.466 0 0)
(260.378 0 0)
(261.28 0 0)
(262.17 0 0)
(263.049 0 0)
(263.917 0 0)
(264.774 0 0)
(265.62 0 0)
(266.455 0 0)
(267.28 0 0)
(268.094 0 0)
(268.897 0 0)
(269.689 0 0)
(270.471 0 0)
(271.243 0 0)
(272.003 0 0)
(272.754 0 0)
(273.494 0 0)
(274.223 0 0)
(274.943 0 0)
(275.652 0 0)
(276.35 0 0)
(277.039 0 0)
(277.717 0 0)
(278.384 0 0)
(279.042 0 0)
(279.69 0 0)
(280.327 0 0)
(280.954 0 0)
(281.571 0 0)
(282.178 0 0)
(282.775 0 0)
(283.361 0 0)
(283.938 0 0)
(284.504 0 0)
(285.062 0 0)
(285.603 0 0)
(286.155 0 0)
(286.632 0 0)
(287.302 0 0)
(215.65 0 0)
(217.033 0 0)
(218.4 0 0)
(219.75 0 0)
(221.085 0 0)
(222.405 0 0)
(223.71 0 0)
(224.999 0 0)
(226.274 0 0)
(227.535 0 0)
(228.782 0 0)
(230.014 0 0)
(231.233 0 0)
(232.438 0 0)
(233.63 0 0)
(234.808 0 0)
(235.973 0 0)
(237.125 0 0)
(238.265 0 0)
(239.392 0 0)
(240.506 0 0)
(241.608 0 0)
(242.697 0 0)
(243.775 0 0)
(244.84 0 0)
(245.893 0 0)
(246.935 0 0)
(247.965 0 0)
(248.983 0 0)
(249.99 0 0)
(250.986 0 0)
(251.97 0 0)
(252.943 0 0)
(253.905 0 0)
(254.855 0 0)
(255.795 0 0)
(256.724 0 0)
(257.642 0 0)
(258.549 0 0)
(259.446 0 0)
(260.332 0 0)
(261.207 0 0)
(262.072 0 0)
(262.927 0 0)
(263.771 0 0)
(264.605 0 0)
(265.428 0 0)
(266.241 0 0)
(267.044 0 0)
(267.837 0 0)
(268.62 0 0)
(269.393 0 0)
(270.156 0 0)
(270.908 0 0)
(271.651 0 0)
(272.384 0 0)
(273.107 0 0)
(273.821 0 0)
(274.524 0 0)
(275.218 0 0)
(275.901 0 0)
(276.576 0 0)
(277.24 0 0)
(277.895 0 0)
(278.54 0 0)
(279.175 0 0)
(279.801 0 0)
(280.418 0 0)
(281.024 0 0)
(281.621 0 0)
(282.209 0 0)
(282.787 0 0)
(283.355 0 0)
(283.914 0 0)
(284.465 0 0)
(285 0 0)
(285.546 0 0)
(286.017 0 0)
(286.681 0 0)
(217.248 0 0)
(218.569 0 0)
(219.875 0 0)
(221.167 0 0)
(222.445 0 0)
(223.708 0 0)
(224.958 0 0)
(226.194 0 0)
(227.417 0 0)
(228.626 0 0)
(229.823 0 0)
(231.006 0 0)
(232.177 0 0)
(233.335 0 0)
(234.481 0 0)
(235.615 0 0)
(236.736 0 0)
(237.845 0 0)
(238.943 0 0)
(240.029 0 0)
(241.103 0 0)
(242.165 0 0)
(243.216 0 0)
(244.256 0 0)
(245.285 0 0)
(246.302 0 0)
(247.309 0 0)
(248.304 0 0)
(249.289 0 0)
(250.263 0 0)
(251.226 0 0)
(252.179 0 0)
(253.121 0 0)
(254.052 0 0)
(254.974 0 0)
(255.885 0 0)
(256.785 0 0)
(257.676 0 0)
(258.556 0 0)
(259.427 0 0)
(260.287 0 0)
(261.137 0 0)
(261.978 0 0)
(262.808 0 0)
(263.629 0 0)
(264.44 0 0)
(265.242 0 0)
(266.033 0 0)
(266.815 0 0)
(267.588 0 0)
(268.351 0 0)
(269.104 0 0)
(269.848 0 0)
(270.582 0 0)
(271.307 0 0)
(272.023 0 0)
(272.73 0 0)
(273.427 0 0)
(274.114 0 0)
(274.793 0 0)
(275.462 0 0)
(276.122 0 0)
(276.773 0 0)
(277.415 0 0)
(278.047 0 0)
(278.671 0 0)
(279.285 0 0)
(279.89 0 0)
(280.486 0 0)
(281.073 0 0)
(281.651 0 0)
(282.22 0 0)
(282.78 0 0)
(283.331 0 0)
(283.874 0 0)
(284.402 0 0)
(284.942 0 0)
(285.408 0 0)
(286.065 0 0)
(218.776 0 0)
(220.039 0 0)
(221.288 0 0)
(222.524 0 0)
(223.747 0 0)
(224.957 0 0)
(226.155 0 0)
(227.34 0 0)
(228.513 0 0)
(229.674 0 0)
(230.823 0 0)
(231.959 0 0)
(233.085 0 0)
(234.198 0 0)
(235.3 0 0)
(236.391 0 0)
(237.47 0 0)
(238.539 0 0)
(239.596 0 0)
(240.642 0 0)
(241.678 0 0)
(242.703 0 0)
(243.717 0 0)
(244.721 0 0)
(245.714 0 0)
(246.697 0 0)
(247.67 0 0)
(248.632 0 0)
(249.584 0 0)
(250.526 0 0)
(251.458 0 0)
(252.381 0 0)
(253.293 0 0)
(254.195 0 0)
(255.088 0 0)
(255.971 0 0)
(256.845 0 0)
(257.709 0 0)
(258.563 0 0)
(259.408 0 0)
(260.243 0 0)
(261.069 0 0)
(261.886 0 0)
(262.693 0 0)
(263.491 0 0)
(264.28 0 0)
(265.06 0 0)
(265.831 0 0)
(266.592 0 0)
(267.345 0 0)
(268.088 0 0)
(268.822 0 0)
(269.548 0 0)
(270.264 0 0)
(270.972 0 0)
(271.671 0 0)
(272.36 0 0)
(273.041 0 0)
(273.714 0 0)
(274.377 0 0)
(275.032 0 0)
(275.678 0 0)
(276.315 0 0)
(276.944 0 0)
(277.564 0 0)
(278.175 0 0)
(278.778 0 0)
(279.372 0 0)
(279.957 0 0)
(280.534 0 0)
(281.102 0 0)
(281.662 0 0)
(282.213 0 0)
(282.756 0 0)
(283.291 0 0)
(283.812 0 0)
(284.344 0 0)
(284.805 0 0)
(285.454 0 0)
(220.239 0 0)
(221.446 0 0)
(222.641 0 0)
(223.825 0 0)
(224.996 0 0)
(226.155 0 0)
(227.304 0 0)
(228.44 0 0)
(229.566 0 0)
(230.68 0 0)
(231.783 0 0)
(232.876 0 0)
(233.957 0 0)
(235.028 0 0)
(236.088 0 0)
(237.138 0 0)
(238.178 0 0)
(239.207 0 0)
(240.226 0 0)
(241.234 0 0)
(242.233 0 0)
(243.222 0 0)
(244.201 0 0)
(245.17 0 0)
(246.129 0 0)
(247.078 0 0)
(248.018 0 0)
(248.949 0 0)
(249.87 0 0)
(250.781 0 0)
(251.683 0 0)
(252.576 0 0)
(253.46 0 0)
(254.334 0 0)
(255.199 0 0)
(256.055 0 0)
(256.902 0 0)
(257.74 0 0)
(258.569 0 0)
(259.39 0 0)
(260.201 0 0)
(261.003 0 0)
(261.797 0 0)
(262.581 0 0)
(263.357 0 0)
(264.125 0 0)
(264.883 0 0)
(265.633 0 0)
(266.375 0 0)
(267.108 0 0)
(267.832 0 0)
(268.548 0 0)
(269.255 0 0)
(269.954 0 0)
(270.644 0 0)
(271.326 0 0)
(272 0 0)
(272.665 0 0)
(273.322 0 0)
(273.971 0 0)
(274.611 0 0)
(275.243 0 0)
(275.867 0 0)
(276.482 0 0)
(277.09 0 0)
(277.689 0 0)
(278.28 0 0)
(278.863 0 0)
(279.437 0 0)
(280.004 0 0)
(280.562 0 0)
(281.112 0 0)
(281.655 0 0)
(282.188 0 0)
(282.716 0 0)
(283.229 0 0)
(283.754 0 0)
(284.209 0 0)
(284.849 0 0)
(221.639 0 0)
(222.794 0 0)
(223.938 0 0)
(225.071 0 0)
(226.193 0 0)
(227.305 0 0)
(228.406 0 0)
(229.496 0 0)
(230.577 0 0)
(231.647 0 0)
(232.707 0 0)
(233.757 0 0)
(234.797 0 0)
(235.827 0 0)
(236.847 0 0)
(237.858 0 0)
(238.859 0 0)
(239.85 0 0)
(240.832 0 0)
(241.805 0 0)
(242.768 0 0)
(243.722 0 0)
(244.667 0 0)
(245.603 0 0)
(246.529 0 0)
(247.447 0 0)
(248.355 0 0)
(249.255 0 0)
(250.146 0 0)
(251.028 0 0)
(251.901 0 0)
(252.765 0 0)
(253.621 0 0)
(254.468 0 0)
(255.307 0 0)
(256.137 0 0)
(256.958 0 0)
(257.771 0 0)
(258.576 0 0)
(259.372 0 0)
(260.16 0 0)
(260.939 0 0)
(261.71 0 0)
(262.473 0 0)
(263.227 0 0)
(263.974 0 0)
(264.712 0 0)
(265.442 0 0)
(266.163 0 0)
(266.877 0 0)
(267.583 0 0)
(268.28 0 0)
(268.97 0 0)
(269.651 0 0)
(270.325 0 0)
(270.99 0 0)
(271.648 0 0)
(272.298 0 0)
(272.939 0 0)
(273.573 0 0)
(274.199 0 0)
(274.818 0 0)
(275.428 0 0)
(276.03 0 0)
(276.625 0 0)
(277.212 0 0)
(277.791 0 0)
(278.363 0 0)
(278.927 0 0)
(279.483 0 0)
(280.031 0 0)
(280.572 0 0)
(281.105 0 0)
(281.63 0 0)
(282.149 0 0)
(282.654 0 0)
(283.171 0 0)
(283.62 0 0)
(284.251 0 0)
(222.979 0 0)
(224.085 0 0)
(225.181 0 0)
(226.266 0 0)
(227.342 0 0)
(228.408 0 0)
(229.464 0 0)
(230.511 0 0)
(231.548 0 0)
(232.576 0 0)
(233.595 0 0)
(234.604 0 0)
(235.604 0 0)
(236.596 0 0)
(237.578 0 0)
(238.551 0 0)
(239.515 0 0)
(240.471 0 0)
(241.417 0 0)
(242.355 0 0)
(243.285 0 0)
(244.205 0 0)
(245.117 0 0)
(246.021 0 0)
(246.916 0 0)
(247.803 0 0)
(248.681 0 0)
(249.551 0 0)
(250.413 0 0)
(251.266 0 0)
(252.112 0 0)
(252.949 0 0)
(253.778 0 0)
(254.598 0 0)
(255.411 0 0)
(256.216 0 0)
(257.012 0 0)
(257.801 0 0)
(258.582 0 0)
(259.355 0 0)
(260.12 0 0)
(260.877 0 0)
(261.626 0 0)
(262.367 0 0)
(263.101 0 0)
(263.827 0 0)
(264.545 0 0)
(265.255 0 0)
(265.958 0 0)
(266.653 0 0)
(267.34 0 0)
(268.02 0 0)
(268.692 0 0)
(269.356 0 0)
(270.013 0 0)
(270.663 0 0)
(271.304 0 0)
(271.939 0 0)
(272.566 0 0)
(273.185 0 0)
(273.797 0 0)
(274.401 0 0)
(274.998 0 0)
(275.588 0 0)
(276.17 0 0)
(276.745 0 0)
(277.312 0 0)
(277.873 0 0)
(278.425 0 0)
(278.971 0 0)
(279.509 0 0)
(280.04 0 0)
(280.564 0 0)
(281.08 0 0)
(281.59 0 0)
(282.087 0 0)
(282.596 0 0)
(283.039 0 0)
(283.66 0 0)
(224.264 0 0)
(225.323 0 0)
(226.372 0 0)
(227.413 0 0)
(228.444 0 0)
(229.467 0 0)
(230.48 0 0)
(231.485 0 0)
(232.482 0 0)
(233.469 0 0)
(234.449 0 0)
(235.419 0 0)
(236.382 0 0)
(237.336 0 0)
(238.281 0 0)
(239.219 0 0)
(240.148 0 0)
(241.069 0 0)
(241.981 0 0)
(242.886 0 0)
(243.783 0 0)
(244.672 0 0)
(245.552 0 0)
(246.425 0 0)
(247.29 0 0)
(248.147 0 0)
(248.996 0 0)
(249.838 0 0)
(250.671 0 0)
(251.497 0 0)
(252.316 0 0)
(253.126 0 0)
(253.929 0 0)
(254.724 0 0)
(255.512 0 0)
(256.292 0 0)
(257.065 0 0)
(257.83 0 0)
(258.588 0 0)
(259.338 0 0)
(260.081 0 0)
(260.816 0 0)
(261.544 0 0)
(262.265 0 0)
(262.978 0 0)
(263.684 0 0)
(264.382 0 0)
(265.073 0 0)
(265.757 0 0)
(266.434 0 0)
(267.104 0 0)
(267.766 0 0)
(268.421 0 0)
(269.069 0 0)
(269.709 0 0)
(270.343 0 0)
(270.969 0 0)
(271.588 0 0)
(272.2 0 0)
(272.805 0 0)
(273.403 0 0)
(273.994 0 0)
(274.578 0 0)
(275.155 0 0)
(275.724 0 0)
(276.287 0 0)
(276.843 0 0)
(277.392 0 0)
(277.934 0 0)
(278.468 0 0)
(278.996 0 0)
(279.517 0 0)
(280.032 0 0)
(280.538 0 0)
(281.04 0 0)
(281.529 0 0)
(282.03 0 0)
(282.465 0 0)
(283.076 0 0)
(225.496 0 0)
(226.51 0 0)
(227.516 0 0)
(228.513 0 0)
(229.503 0 0)
(230.484 0 0)
(231.457 0 0)
(232.422 0 0)
(233.379 0 0)
(234.329 0 0)
(235.27 0 0)
(236.204 0 0)
(237.13 0 0)
(238.048 0 0)
(238.959 0 0)
(239.862 0 0)
(240.757 0 0)
(241.645 0 0)
(242.526 0 0)
(243.398 0 0)
(244.264 0 0)
(245.122 0 0)
(245.972 0 0)
(246.815 0 0)
(247.651 0 0)
(248.48 0 0)
(249.301 0 0)
(250.115 0 0)
(250.921 0 0)
(251.721 0 0)
(252.513 0 0)
(253.298 0 0)
(254.076 0 0)
(254.847 0 0)
(255.61 0 0)
(256.367 0 0)
(257.116 0 0)
(257.858 0 0)
(258.594 0 0)
(259.322 0 0)
(260.043 0 0)
(260.757 0 0)
(261.465 0 0)
(262.165 0 0)
(262.858 0 0)
(263.545 0 0)
(264.224 0 0)
(264.897 0 0)
(265.563 0 0)
(266.221 0 0)
(266.873 0 0)
(267.518 0 0)
(268.157 0 0)
(268.788 0 0)
(269.413 0 0)
(270.031 0 0)
(270.642 0 0)
(271.246 0 0)
(271.844 0 0)
(272.435 0 0)
(273.019 0 0)
(273.596 0 0)
(274.167 0 0)
(274.731 0 0)
(275.288 0 0)
(275.839 0 0)
(276.383 0 0)
(276.92 0 0)
(277.451 0 0)
(277.975 0 0)
(278.493 0 0)
(279.004 0 0)
(279.509 0 0)
(280.006 0 0)
(280.499 0 0)
(280.979 0 0)
(281.472 0 0)
(281.9 0 0)
(282.501 0 0)
(226.677 0 0)
(227.649 0 0)
(228.613 0 0)
(229.57 0 0)
(230.519 0 0)
(231.461 0 0)
(232.395 0 0)
(233.323 0 0)
(234.243 0 0)
(235.155 0 0)
(236.061 0 0)
(236.959 0 0)
(237.851 0 0)
(238.735 0 0)
(239.612 0 0)
(240.482 0 0)
(241.345 0 0)
(242.201 0 0)
(243.05 0 0)
(243.893 0 0)
(244.728 0 0)
(245.556 0 0)
(246.378 0 0)
(247.192 0 0)
(248 0 0)
(248.801 0 0)
(249.595 0 0)
(250.383 0 0)
(251.163 0 0)
(251.937 0 0)
(252.704 0 0)
(253.464 0 0)
(254.218 0 0)
(254.965 0 0)
(255.705 0 0)
(256.439 0 0)
(257.165 0 0)
(257.886 0 0)
(258.599 0 0)
(259.306 0 0)
(260.007 0 0)
(260.7 0 0)
(261.388 0 0)
(262.068 0 0)
(262.742 0 0)
(263.41 0 0)
(264.071 0 0)
(264.725 0 0)
(265.373 0 0)
(266.014 0 0)
(266.649 0 0)
(267.278 0 0)
(267.899 0 0)
(268.515 0 0)
(269.124 0 0)
(269.726 0 0)
(270.323 0 0)
(270.912 0 0)
(271.496 0 0)
(272.072 0 0)
(272.643 0 0)
(273.207 0 0)
(273.765 0 0)
(274.316 0 0)
(274.861 0 0)
(275.4 0 0)
(275.932 0 0)
(276.458 0 0)
(276.978 0 0)
(277.492 0 0)
(277.999 0 0)
(278.5 0 0)
(278.995 0 0)
(279.483 0 0)
(279.967 0 0)
(280.439 0 0)
(280.922 0 0)
(281.343 0 0)
(281.934 0 0)
(227.811 0 0)
(228.742 0 0)
(229.667 0 0)
(230.585 0 0)
(231.496 0 0)
(232.4 0 0)
(233.297 0 0)
(234.188 0 0)
(235.073 0 0)
(235.951 0 0)
(236.822 0 0)
(237.686 0 0)
(238.545 0 0)
(239.396 0 0)
(240.241 0 0)
(241.08 0 0)
(241.912 0 0)
(242.738 0 0)
(243.557 0 0)
(244.369 0 0)
(245.176 0 0)
(245.976 0 0)
(246.769 0 0)
(247.557 0 0)
(248.337 0 0)
(249.112 0 0)
(249.88 0 0)
(250.642 0 0)
(251.397 0 0)
(252.146 0 0)
(252.889 0 0)
(253.625 0 0)
(254.356 0 0)
(255.079 0 0)
(255.797 0 0)
(256.508 0 0)
(257.213 0 0)
(257.912 0 0)
(258.605 0 0)
(259.291 0 0)
(259.971 0 0)
(260.645 0 0)
(261.313 0 0)
(261.974 0 0)
(262.629 0 0)
(263.278 0 0)
(263.921 0 0)
(264.558 0 0)
(265.188 0 0)
(265.813 0 0)
(266.431 0 0)
(267.043 0 0)
(267.649 0 0)
(268.249 0 0)
(268.842 0 0)
(269.43 0 0)
(270.011 0 0)
(270.586 0 0)
(271.156 0 0)
(271.719 0 0)
(272.276 0 0)
(272.827 0 0)
(273.372 0 0)
(273.911 0 0)
(274.444 0 0)
(274.97 0 0)
(275.491 0 0)
(276.006 0 0)
(276.515 0 0)
(277.018 0 0)
(277.515 0 0)
(278.006 0 0)
(278.491 0 0)
(278.969 0 0)
(279.444 0 0)
(279.907 0 0)
(280.382 0 0)
(280.796 0 0)
(281.375 0 0)
(228.898 0 0)
(229.792 0 0)
(230.679 0 0)
(231.559 0 0)
(232.434 0 0)
(233.303 0 0)
(234.165 0 0)
(235.021 0 0)
(235.872 0 0)
(236.716 0 0)
(237.554 0 0)
(238.387 0 0)
(239.213 0 0)
(240.033 0 0)
(240.848 0 0)
(241.656 0 0)
(242.458 0 0)
(243.255 0 0)
(244.045 0 0)
(244.83 0 0)
(245.608 0 0)
(246.381 0 0)
(247.148 0 0)
(247.908 0 0)
(248.663 0 0)
(249.412 0 0)
(250.155 0 0)
(250.892 0 0)
(251.623 0 0)
(252.349 0 0)
(253.068 0 0)
(253.781 0 0)
(254.489 0 0)
(255.19 0 0)
(255.886 0 0)
(256.576 0 0)
(257.26 0 0)
(257.938 0 0)
(258.61 0 0)
(259.277 0 0)
(259.937 0 0)
(260.591 0 0)
(261.24 0 0)
(261.883 0 0)
(262.52 0 0)
(263.151 0 0)
(263.776 0 0)
(264.396 0 0)
(265.009 0 0)
(265.617 0 0)
(266.219 0 0)
(266.815 0 0)
(267.405 0 0)
(267.989 0 0)
(268.568 0 0)
(269.141 0 0)
(269.707 0 0)
(270.269 0 0)
(270.824 0 0)
(271.374 0 0)
(271.917 0 0)
(272.455 0 0)
(272.988 0 0)
(273.514 0 0)
(274.035 0 0)
(274.55 0 0)
(275.059 0 0)
(275.563 0 0)
(276.061 0 0)
(276.553 0 0)
(277.04 0 0)
(277.521 0 0)
(277.996 0 0)
(278.465 0 0)
(278.931 0 0)
(279.385 0 0)
(279.85 0 0)
(280.257 0 0)
(280.825 0 0)
(229.943 0 0)
(230.8 0 0)
(231.651 0 0)
(232.496 0 0)
(233.336 0 0)
(234.171 0 0)
(235 0 0)
(235.823 0 0)
(236.641 0 0)
(237.453 0 0)
(238.26 0 0)
(239.061 0 0)
(239.857 0 0)
(240.648 0 0)
(241.432 0 0)
(242.212 0 0)
(242.986 0 0)
(243.754 0 0)
(244.517 0 0)
(245.274 0 0)
(246.026 0 0)
(246.772 0 0)
(247.513 0 0)
(248.249 0 0)
(248.978 0 0)
(249.703 0 0)
(250.421 0 0)
(251.135 0 0)
(251.842 0 0)
(252.545 0 0)
(253.241 0 0)
(253.932 0 0)
(254.618 0 0)
(255.298 0 0)
(255.973 0 0)
(256.642 0 0)
(257.305 0 0)
(257.963 0 0)
(258.615 0 0)
(259.262 0 0)