/*--------------------------------*- C++ -*----------------------------------*\
| =========                 |                                                 |
| \\      /  F ield         | OpenFOAM: The Open Source CFD Toolbox           |
|  \\    /   O peration     | Version:  2312                                  |
|   \\  /    A nd           | Website:  www.openfoam.com                      |
|    \\/     M anipulation  |                                                 |
\*---------------------------------------------------------------------------*/
FoamFile
{
    version     2.0;
    format      ascii;
    arch        "LSB;label=32;scalar=64";
    class       volVectorField;
    location    "0.311";
    object      U;
}
// * * * * * * * * * * * * * * * * * * * * * * * * * * * * * * * * * * * * * //

dimensions      [0 1 -1 0 0 0 0];

internalField   nonuniform List<vector> 
31205
(
(295.797 0 0)
(296.329 0 0)
(296.823 0 0)
(297.279 0 0)
(297.697 0 0)
(298.078 0 0)
(298.421 0 0)
(298.728 0 0)
(298.998 0 0)
(299.23 0 0)
(299.426 0 0)
(299.585 0 0)
(299.707 0 0)
(299.792 0 0)
(299.84 0 0)
(299.85 0 0)
(299.823 0 0)
(299.758 0 0)
(299.654 0 0)
(299.512 0 0)
(299.331 0 0)
(299.111 0 0)
(298.85 0 0)
(298.549 0 0)
(298.207 0 0)
(297.822 0 0)
(297.394 0 0)
(296.923 0 0)
(296.407 0 0)
(295.846 0 0)
(295.237 0 0)
(294.58 0 0)
(293.873 0 0)
(293.116 0 0)
(292.305 0 0)
(291.439 0 0)
(290.517 0 0)
(289.536 0 0)
(288.493 0 0)
(287.385 0 0)
(286.21 0 0)
(284.963 0 0)
(283.642 0 0)
(282.241 0 0)
(280.756 0 0)
(279.18 0 0)
(277.508 0 0)
(275.731 0 0)
(273.84 0 0)
(271.826 0 0)
(269.674 0 0)
(267.367 0 0)
(264.893 0 0)
(262.243 0 0)
(259.352 0 0)
(256.053 0 0)
(252.365 0 0)
(249.097 0 0)
(246.861 0 0)
(241.087 0 0)
(219.722 0 0)
(179.952 0 0)
(141.378 0 0)
(119.246 0 0)
(110.275 0 0)
(107.354 0 0)
(106.705 0 0)
(106.887 0 0)
(107.396 0 0)
(108.049 0 0)
(108.779 0 0)
(109.556 0 0)
(110.365 0 0)
(111.197 0 0)
(112.053 0 0)
(112.909 0 0)
(113.823 0 0)
(114.611 0 0)
(115.826 0 0)
(296.282 0 0)
(296.767 0 0)
(297.216 0 0)
(297.629 0 0)
(298.007 0 0)
(298.349 0 0)
(298.657 0 0)
(298.929 0 0)
(299.166 0 0)
(299.369 0 0)
(299.536 0 0)
(299.669 0 0)
(299.766 0 0)
(299.828 0 0)
(299.855 0 0)
(299.846 0 0)
(299.801 0 0)
(299.72 0 0)
(299.603 0 0)
(299.448 0 0)
(299.257 0 0)
(299.028 0 0)
(298.76 0 0)
(298.454 0 0)
(298.108 0 0)
(297.722 0 0)
(297.295 0 0)
(296.827 0 0)
(296.315 0 0)
(295.76 0 0)
(295.16 0 0)
(294.514 0 0)
(293.821 0 0)
(293.079 0 0)
(292.286 0 0)
(291.442 0 0)
(290.543 0 0)
(289.588 0 0)
(288.575 0 0)
(287.501 0 0)
(286.362 0 0)
(285.157 0 0)
(283.881 0 0)
(282.53 0 0)
(281.1 0 0)
(279.586 0 0)
(277.981 0 0)
(276.279 0 0)
(274.472 0 0)
(272.551 0 0)
(270.505 0 0)
(268.318 0 0)
(265.975 0 0)
(263.468 0 0)
(260.778 0 0)
(257.802 0 0)
(254.375 0 0)
(250.748 0 0)
(247.973 0 0)
(245.621 0 0)
(236.069 0 0)
(207.443 0 0)
(165.207 0 0)
(131.639 0 0)
(114.937 0 0)
(108.716 0 0)
(106.849 0 0)
(106.573 0 0)
(106.885 0 0)
(107.435 0 0)
(108.098 0 0)
(108.822 0 0)
(109.586 0 0)
(110.378 0 0)
(111.195 0 0)
(112.016 0 0)
(112.893 0 0)
(113.652 0 0)
(114.819 0 0)
(296.744 0 0)
(297.183 0 0)
(297.588 0 0)
(297.96 0 0)
(298.298 0 0)
(298.603 0 0)
(298.875 0 0)
(299.114 0 0)
(299.32 0 0)
(299.493 0 0)
(299.632 0 0)
(299.739 0 0)
(299.811 0 0)
(299.851 0 0)
(299.857 0 0)
(299.829 0 0)
(299.766 0 0)
(299.669 0 0)
(299.538 0 0)
(299.371 0 0)
(299.169 0 0)
(298.931 0 0)
(298.656 0 0)
(298.344 0 0)
(297.994 0 0)
(297.606 0 0)
(297.179 0 0)
(296.712 0 0)
(296.204 0 0)
(295.655 0 0)
(295.062 0 0)
(294.426 0 0)
(293.744 0 0)
(293.016 0 0)
(292.24 0 0)
(291.414 0 0)
(290.537 0 0)
(289.606 0 0)
(288.62 0 0)
(287.576 0 0)
(286.472 0 0)
(285.304 0 0)
(284.069 0 0)
(282.764 0 0)
(281.385 0 0)
(279.926 0 0)
(278.383 0 0)
(276.749 0 0)
(275.018 0 0)
(273.181 0 0)
(271.229 0 0)
(269.15 0 0)
(266.927 0 0)
(264.549 0 0)
(262.008 0 0)
(259.267 0 0)
(256.181 0 0)
(252.653 0 0)
(249.243 0 0)
(246.996 0 0)
(243.605 0 0)
(228.447 0 0)
(192.962 0 0)
(151.338 0 0)
(123.882 0 0)
(111.801 0 0)
(107.626 0 0)
(106.509 0 0)
(106.496 0 0)
(106.898 0 0)
(107.477 0 0)
(108.142 0 0)
(108.859 0 0)
(109.608 0 0)
(110.387 0 0)
(111.171 0 0)
(112.012 0 0)
(112.743 0 0)
(113.861 0 0)
(297.17 0 0)
(297.566 0 0)
(297.93 0 0)
(298.262 0 0)
(298.563 0 0)
(298.833 0 0)
(299.072 0 0)
(299.279 0 0)
(299.454 0 0)
(299.599 0 0)
(299.712 0 0)
(299.793 0 0)
(299.843 0 0)
(299.861 0 0)
(299.846 0 0)
(299.8 0 0)
(299.721 0 0)
(299.609 0 0)
(299.464 0 0)
(299.285 0 0)
(299.072 0 0)
(298.825 0 0)
(298.543 0 0)
(298.225 0 0)
(297.872 0 0)
(297.481 0 0)
(297.054 0 0)
(296.588 0 0)
(296.083 0 0)
(295.538 0 0)
(294.952 0 0)
(294.325 0 0)
(293.654 0 0)
(292.939 0 0)
(292.178 0 0)
(291.369 0 0)
(290.512 0 0)
(289.604 0 0)
(288.643 0 0)
(287.627 0 0)
(286.554 0 0)
(285.42 0 0)
(284.224 0 0)
(282.961 0 0)
(281.628 0 0)
(280.22 0 0)
(278.734 0 0)
(277.163 0 0)
(275.501 0 0)
(273.741 0 0)
(271.874 0 0)
(269.891 0 0)
(267.779 0 0)
(265.521 0 0)
(263.108 0 0)
(260.533 0 0)
(257.723 0 0)
(254.508 0 0)
(250.95 0 0)
(247.943 0 0)
(246.037 0 0)
(240.164 0 0)
(217.853 0 0)
(177.316 0 0)
(139.234 0 0)
(118.016 0 0)
(109.594 0 0)
(106.889 0 0)
(106.295 0 0)
(106.464 0 0)
(106.928 0 0)
(107.523 0 0)
(108.187 0 0)
(108.893 0 0)
(109.632 0 0)
(110.38 0 0)
(111.185 0 0)
(111.886 0 0)
(112.958 0 0)
(297.557 0 0)
(297.912 0 0)
(298.238 0 0)
(298.534 0 0)
(298.8 0 0)
(299.037 0 0)
(299.244 0 0)
(299.421 0 0)
(299.569 0 0)
(299.686 0 0)
(299.774 0 0)
(299.832 0 0)
(299.86 0 0)
(299.858 0 0)
(299.825 0 0)
(299.761 0 0)
(299.666 0 0)
(299.539 0 0)
(299.382 0 0)
(299.192 0 0)
(298.969 0 0)
(298.714 0 0)
(298.425 0 0)
(298.102 0 0)
(297.745 0 0)
(297.353 0 0)
(296.924 0 0)
(296.46 0 0)
(295.958 0 0)
(295.418 0 0)
(294.838 0 0)
(294.219 0 0)
(293.558 0 0)
(292.855 0 0)
(292.109 0 0)
(291.317 0 0)
(290.478 0 0)
(289.591 0 0)
(288.654 0 0)
(287.665 0 0)
(286.621 0 0)
(285.52 0 0)
(284.36 0 0)
(283.137 0 0)
(281.847 0 0)
(280.488 0 0)
(279.054 0 0)
(277.542 0 0)
(275.944 0 0)
(274.255 0 0)
(272.468 0 0)
(270.573 0 0)
(268.561 0 0)
(266.416 0 0)
(264.125 0 0)
(261.682 0 0)
(259.067 0 0)
(256.168 0 0)
(252.83 0 0)
(249.37 0 0)
(246.907 0 0)
(244.779 0 0)
(234.677 0 0)
(204.76 0 0)
(162.167 0 0)
(129.57 0 0)
(113.842 0 0)
(108.105 0 0)
(106.409 0 0)
(106.168 0 0)
(106.459 0 0)
(106.962 0 0)
(107.566 0 0)
(108.224 0 0)
(108.922 0 0)
(109.633 0 0)
(110.401 0 0)
(111.074 0 0)
(112.1 0 0)
(297.905 0 0)
(298.223 0 0)
(298.513 0 0)
(298.774 0 0)
(299.008 0 0)
(299.214 0 0)
(299.392 0 0)
(299.541 0 0)
(299.663 0 0)
(299.756 0 0)
(299.82 0 0)
(299.857 0 0)
(299.864 0 0)
(299.843 0 0)
(299.792 0 0)
(299.712 0 0)
(299.603 0 0)
(299.463 0 0)
(299.293 0 0)
(299.093 0 0)
(298.862 0 0)
(298.599 0 0)
(298.304 0 0)
(297.976 0 0)
(297.616 0 0)
(297.222 0 0)
(296.794 0 0)
(296.331 0 0)
(295.832 0 0)
(295.296 0 0)
(294.724 0 0)
(294.112 0 0)
(293.462 0 0)
(292.771 0 0)
(292.038 0 0)
(291.262 0 0)
(290.442 0 0)
(289.575 0 0)
(288.661 0 0)
(287.697 0 0)
(286.681 0 0)
(285.612 0 0)
(284.486 0 0)
(283.3 0 0)
(282.052 0 0)
(280.739 0 0)
(279.355 0 0)
(277.897 0 0)
(276.36 0 0)
(274.738 0 0)
(273.025 0 0)
(271.212 0 0)
(269.291 0 0)
(267.251 0 0)
(265.076 0 0)
(262.755 0 0)
(260.285 0 0)
(257.623 0 0)
(254.618 0 0)
(251.197 0 0)
(247.998 0 0)
(246.08 0 0)
(242.761 0 0)
(226.807 0 0)
(190.245 0 0)
(148.781 0 0)
(122.324 0 0)
(110.975 0 0)
(107.12 0 0)
(106.103 0 0)
(106.097 0 0)
(106.466 0 0)
(106.994 0 0)
(107.599 0 0)
(108.252 0 0)
(108.926 0 0)
(109.656 0 0)
(110.299 0 0)
(111.281 0 0)
(298.216 0 0)
(298.499 0 0)
(298.756 0 0)
(298.986 0 0)
(299.189 0 0)
(299.366 0 0)
(299.517 0 0)
(299.641 0 0)
(299.738 0 0)
(299.808 0 0)
(299.851 0 0)
(299.867 0 0)
(299.856 0 0)
(299.817 0 0)
(299.75 0 0)
(299.655 0 0)
(299.532 0 0)
(299.381 0 0)
(299.2 0 0)
(298.99 0 0)
(298.751 0 0)
(298.481 0 0)
(298.181 0 0)
(297.849 0 0)
(297.486 0 0)
(297.091 0 0)
(296.663 0 0)
(296.202 0 0)
(295.707 0 0)
(295.176 0 0)
(294.61 0 0)
(294.007 0 0)
(293.366 0 0)
(292.687 0 0)
(291.968 0 0)
(291.207 0 0)
(290.405 0 0)
(289.558 0 0)
(288.666 0 0)
(287.726 0 0)
(286.738 0 0)
(285.698 0 0)
(284.605 0 0)
(283.456 0 0)
(282.247 0 0)
(280.977 0 0)
(279.641 0 0)
(278.235 0 0)
(276.756 0 0)
(275.197 0 0)
(273.553 0 0)
(271.817 0 0)
(269.981 0 0)
(268.037 0 0)
(265.97 0 0)
(263.768 0 0)
(261.423 0 0)
(258.927 0 0)
(256.206 0 0)
(253.088 0 0)
(249.662 0 0)
(246.887 0 0)
(245.29 0 0)
(239.492 0 0)
(216.663 0 0)
(175.596 0 0)
(137.758 0 0)
(117.101 0 0)
(109.035 0 0)
(106.472 0 0)
(105.908 0 0)
(106.057 0 0)
(106.478 0 0)
(107.017 0 0)
(107.623 0 0)
(108.255 0 0)
(108.948 0 0)
(109.56 0 0)
(110.498 0 0)
(298.492 0 0)
(298.743 0 0)
(298.969 0 0)
(299.169 0 0)
(299.345 0 0)
(299.495 0 0)
(299.62 0 0)
(299.72 0 0)
(299.795 0 0)
(299.844 0 0)
(299.867 0 0)
(299.864 0 0)
(299.836 0 0)
(299.781 0 0)
(299.699 0 0)
(299.591 0 0)
(299.455 0 0)
(299.293 0 0)
(299.102 0 0)
(298.884 0 0)
(298.637 0 0)
(298.361 0 0)
(298.056 0 0)
(297.722 0 0)
(297.357 0 0)
(296.961 0 0)
(296.534 0 0)
(296.075 0 0)
(295.583 0 0)
(295.057 0 0)
(294.498 0 0)
(293.903 0 0)
(293.272 0 0)
(292.604 0 0)
(291.899 0 0)
(291.154 0 0)
(290.368 0 0)
(289.541 0 0)
(288.67 0 0)
(287.754 0 0)
(286.792 0 0)
(285.781 0 0)
(284.719 0 0)
(283.605 0 0)
(282.434 0 0)
(281.205 0 0)
(279.914 0 0)
(278.558 0 0)
(277.133 0 0)
(275.634 0 0)
(274.055 0 0)
(272.391 0 0)
(270.635 0 0)
(268.779 0 0)
(266.813 0 0)
(264.724 0 0)
(262.498 0 0)
(260.133 0 0)
(257.61 0 0)
(254.816 0 0)
(251.596 0 0)
(248.281 0 0)
(246.034 0 0)
(244.267 0 0)
(234.596 0 0)
(204.796 0 0)
(161.927 0 0)
(129.137 0 0)
(113.418 0 0)
(107.726 0 0)
(106.044 0 0)
(105.783 0 0)
(106.035 0 0)
(106.486 0 0)
(107.034 0 0)
(107.623 0 0)
(108.276 0 0)
(108.856 0 0)
(109.75 0 0)
(298.736 0 0)
(298.957 0 0)
(299.154 0 0)
(299.327 0 0)
(299.477 0 0)
(299.603 0 0)
(299.705 0 0)
(299.782 0 0)
(299.836 0 0)
(299.865 0 0)
(299.87 0 0)
(299.85 0 0)
(299.805 0 0)
(299.735 0 0)
(299.64 0 0)
(299.519 0 0)
(299.373 0 0)
(299.2 0 0)
(299.001 0 0)
(298.774 0 0)
(298.521 0 0)
(298.24 0 0)
(297.931 0 0)
(297.594 0 0)
(297.227 0 0)
(296.831 0 0)
(296.405 0 0)
(295.949 0 0)
(295.46 0 0)
(294.94 0 0)
(294.387 0 0)
(293.801 0 0)
(293.18 0 0)
(292.524 0 0)
(291.831 0 0)
(291.101 0 0)
(290.332 0 0)
(289.524 0 0)
(288.674 0 0)
(287.781 0 0)
(286.844 0 0)
(285.861 0 0)
(284.83 0 0)
(283.748 0 0)
(282.614 0 0)
(281.424 0 0)
(280.177 0 0)
(278.868 0 0)
(277.494 0 0)
(276.051 0 0)
(274.534 0 0)
(272.938 0 0)
(271.257 0 0)
(269.483 0 0)
(267.609 0 0)
(265.624 0 0)
(263.514 0 0)
(261.27 0 0)
(258.888 0 0)
(256.333 0 0)
(253.455 0 0)
(250.169 0 0)
(247.094 0 0)
(245.379 0 0)
(242.692 0 0)
(227.922 0 0)
(192.036 0 0)
(149.958 0 0)
(122.628 0 0)
(110.845 0 0)
(106.838 0 0)
(105.757 0 0)
(105.701 0 0)
(106.019 0 0)
(106.492 0 0)
(107.03 0 0)
(107.64 0 0)
(108.187 0 0)
(109.037 0 0)
(298.951 0 0)
(299.143 0 0)
(299.314 0 0)
(299.462 0 0)
(299.587 0 0)
(299.69 0 0)
(299.77 0 0)
(299.828 0 0)
(299.862 0 0)
(299.873 0 0)
(299.861 0 0)
(299.825 0 0)
(299.765 0 0)
(299.682 0 0)
(299.574 0 0)
(299.442 0 0)
(299.285 0 0)
(299.103 0 0)
(298.895 0 0)
(298.662 0 0)
(298.403 0 0)
(298.118 0 0)
(297.805 0 0)
(297.466 0 0)
(297.098 0 0)
(296.702 0 0)
(296.278 0 0)
(295.824 0 0)
(295.34 0 0)
(294.825 0 0)
(294.279 0 0)
(293.701 0 0)
(293.09 0 0)
(292.445 0 0)
(291.765 0 0)
(291.05 0 0)
(290.297 0 0)
(289.507 0 0)
(288.677 0 0)
(287.807 0 0)
(286.894 0 0)
(285.938 0 0)
(284.936 0 0)
(283.886 0 0)
(282.787 0 0)
(281.635 0 0)
(280.429 0 0)
(279.165 0 0)
(277.839 0 0)
(276.45 0 0)
(274.991 0 0)
(273.459 0 0)
(271.848 0 0)
(270.152 0 0)
(268.363 0 0)
(266.474 0 0)
(264.472 0 0)
(262.345 0 0)
(260.086 0 0)
(257.691 0 0)
(255.096 0 0)
(252.13 0 0)
(248.837 0 0)
(246.128 0 0)
(244.803 0 0)
(240.263 0 0)
(219.603 0 0)
(179.274 0 0)
(139.988 0 0)
(117.823 0 0)
(109.049 0 0)
(106.23 0 0)
(105.561 0 0)
(105.643 0 0)
(106.007 0 0)
(106.481 0 0)
(107.043 0 0)
(107.555 0 0)
(108.358 0 0)
(299.137 0 0)
(299.304 0 0)
(299.45 0 0)
(299.575 0 0)
(299.678 0 0)
(299.759 0 0)
(299.819 0 0)
(299.858 0 0)
(299.874 0 0)
(299.868 0 0)
(299.84 0 0)
(299.789 0 0)
(299.716 0 0)
(299.62 0 0)
(299.501 0 0)
(299.358 0 0)
(299.192 0 0)
(299.002 0 0)
(298.787 0 0)
(298.548 0 0)
(298.284 0 0)
(297.994 0 0)
(297.679 0 0)
(297.338 0 0)
(296.97 0 0)
(296.574 0 0)
(296.152 0 0)
(295.701 0 0)
(295.221 0 0)
(294.712 0 0)
(294.173 0 0)
(293.603 0 0)
(293.002 0 0)
(292.368 0 0)
(291.701 0 0)
(291 0 0)
(290.263 0 0)
(289.491 0 0)
(288.681 0 0)
(287.832 0 0)
(286.943 0 0)
(286.012 0 0)
(285.038 0 0)
(284.019 0 0)
(282.953 0 0)
(281.837 0 0)
(280.67 0 0)
(279.449 0 0)
(278.17 0 0)
(276.831 0 0)
(275.428 0 0)
(273.956 0 0)
(272.411 0 0)
(270.787 0 0)
(269.078 0 0)
(267.277 0 0)
(265.374 0 0)
(263.359 0 0)
(261.218 0 0)
(258.949 0 0)
(256.541 0 0)
(253.898 0 0)
(250.85 0 0)
(247.629 0 0)
(245.379 0 0)
(244.145 0 0)
(236.763 0 0)
(210.025 0 0)
(167.264 0 0)
(131.988 0 0)
(114.317 0 0)
(107.789 0 0)
(105.806 0 0)
(105.422 0 0)
(105.6 0 0)
(105.984 0 0)
(106.488 0 0)
(106.96 0 0)
(107.716 0 0)
(299.299 0 0)
(299.442 0 0)
(299.565 0 0)
(299.667 0 0)
(299.75 0 0)
(299.812 0 0)
(299.853 0 0)
(299.874 0 0)
(299.873 0 0)
(299.852 0 0)
(299.809 0 0)
(299.745 0 0)
(299.659 0 0)
(299.552 0 0)
(299.422 0 0)
(299.27 0 0)
(299.095 0 0)
(298.897 0 0)
(298.676 0 0)
(298.431 0 0)
(298.163 0 0)
(297.87 0 0)
(297.552 0 0)
(297.21 0 0)
(296.842 0 0)
(296.448 0 0)
(296.027 0 0)
(295.579 0 0)
(295.104 0 0)
(294.601 0 0)
(294.069 0 0)
(293.507 0 0)
(292.915 0 0)
(292.293 0 0)
(291.638 0 0)
(290.951 0 0)
(290.23 0 0)
(289.475 0 0)
(288.684 0 0)
(287.856 0 0)
(286.99 0 0)
(286.084 0 0)
(285.137 0 0)
(284.147 0 0)
(283.113 0 0)
(282.032 0 0)
(280.903 0 0)
(279.722 0 0)
(278.488 0 0)
(277.196 0 0)
(275.845 0 0)
(274.43 0 0)
(272.947 0 0)
(271.391 0 0)
(269.756 0 0)
(268.037 0 0)
(266.226 0 0)
(264.313 0 0)
(262.286 0 0)
(260.135 0 0)
(257.86 0 0)
(255.438 0 0)
(252.74 0 0)
(249.631 0 0)
(246.571 0 0)
(244.817 0 0)
(243.231 0 0)
(232.115 0 0)
(199.734 0 0)
(156.515 0 0)
(125.737 0 0)
(111.771 0 0)
(106.897 0 0)
(105.505 0 0)
(105.321 0 0)
(105.555 0 0)
(105.981 0 0)
(106.405 0 0)
(107.11 0 0)
(299.437 0 0)
(299.557 0 0)
(299.659 0 0)
(299.742 0 0)
(299.805 0 0)
(299.848 0 0)
(299.872 0 0)
(299.877 0 0)
(299.861 0 0)
(299.825 0 0)
(299.769 0 0)
(299.693 0 0)
(299.595 0 0)
(299.477 0 0)
(299.338 0 0)
(299.177 0 0)
(298.994 0 0)
(298.79 0 0)
(298.563 0 0)
(298.313 0 0)
(298.041 0 0)
(297.745 0 0)
(297.426 0 0)
(297.082 0 0)
(296.715 0 0)
(296.322 0 0)
(295.904 0 0)
(295.459 0 0)
(294.989 0 0)
(294.491 0 0)
(293.966 0 0)
(293.413 0 0)
(292.831 0 0)
(292.219 0 0)
(291.577 0 0)
(290.903 0 0)
(290.198 0 0)
(289.459 0 0)
(288.687 0 0)
(287.879 0 0)
(287.035 0 0)
(286.153 0 0)
(285.232 0 0)
(284.271 0 0)
(283.267 0 0)
(282.219 0 0)
(281.126 0 0)
(279.984 0 0)
(278.791 0 0)
(277.546 0 0)
(276.244 0 0)
(274.883 0 0)
(273.458 0 0)
(271.965 0 0)
(270.4 0 0)
(268.758 0 0)
(267.03 0 0)
(265.211 0 0)
(263.29 0 0)
(261.255 0 0)
(259.099 0 0)
(256.821 0 0)
(254.382 0 0)
(251.625 0 0)
(248.487 0 0)
(245.678 0 0)
(244.383 0 0)
(241.905 0 0)
(226.4 0 0)
(189.316 0 0)
(147.274 0 0)
(120.938 0 0)
(109.92 0 0)
(106.256 0 0)
(105.288 0 0)
(105.235 0 0)
(105.536 0 0)
(105.896 0 0)
(106.543 0 0)
(299.553 0 0)
(299.653 0 0)
(299.735 0 0)
(299.799 0 0)
(299.844 0 0)
(299.871 0 0)
(299.879 0 0)
(299.868 0 0)
(299.838 0 0)
(299.789 0 0)
(299.721 0 0)
(299.633 0 0)
(299.525 0 0)
(299.397 0 0)
(299.249 0 0)
(299.08 0 0)
(298.89 0 0)
(298.68 0 0)
(298.448 0 0)
(298.194 0 0)
(297.918 0 0)
(297.62 0 0)
(297.3 0 0)
(296.956 0 0)
(296.588 0 0)
(296.197 0 0)
(295.782 0 0)
(295.341 0 0)
(294.875 0 0)
(294.384 0 0)
(293.866 0 0)
(293.321 0 0)
(292.748 0 0)
(292.147 0 0)
(291.517 0 0)
(290.857 0 0)
(290.166 0 0)
(289.444 0 0)
(288.689 0 0)
(287.901 0 0)
(287.078 0 0)
(286.219 0 0)
(285.324 0 0)
(284.389 0 0)
(283.415 0 0)
(282.399 0 0)
(281.34 0 0)
(280.235 0 0)
(279.083 0 0)
(277.88 0 0)
(276.625 0 0)
(275.315 0 0)
(273.945 0 0)
(272.512 0 0)
(271.013 0 0)
(269.441 0 0)
(267.792 0 0)
(266.06 0 0)
(264.235 0 0)
(262.309 0 0)
(260.269 0 0)
(258.11 0 0)
(255.833 0 0)
(253.373 0 0)
(250.559 0 0)
(247.436 0 0)
(244.95 0 0)
(244.006 0 0)
(240.06 0 0)
(219.839 0 0)
(179.292 0 0)
(139.574 0 0)
(117.29 0 0)
(108.567 0 0)
(105.791 0 0)
(105.116 0 0)
(105.184 0 0)
(105.443 0 0)
(106.019 0 0)
(299.649 0 0)
(299.73 0 0)
(299.794 0 0)
(299.84 0 0)
(299.869 0 0)
(299.88 0 0)
(299.873 0 0)
(299.848 0 0)
(299.806 0 0)
(299.744 0 0)
(299.664 0 0)
(299.566 0 0)
(299.448 0 0)
(299.312 0 0)
(299.155 0 0)
(298.979 0 0)
(298.784 0 0)
(298.568 0 0)
(298.331 0 0)
(298.074 0 0)
(297.795 0 0)
(297.495 0 0)
(297.174 0 0)
(296.83 0 0)
(296.463 0 0)
(296.074 0 0)
(295.661 0 0)
(295.225 0 0)
(294.764 0 0)
(294.278 0 0)
(293.767 0 0)
(293.23 0 0)
(292.667 0 0)
(292.076 0 0)
(291.458 0 0)
(290.811 0 0)
(290.135 0 0)
(289.429 0 0)
(288.691 0 0)
(287.922 0 0)
(287.12 0 0)
(286.283 0 0)
(285.412 0 0)
(284.504 0 0)
(283.558 0 0)
(282.572 0 0)
(281.546 0 0)
(280.476 0 0)
(279.362 0 0)
(278.201 0 0)
(276.99 0 0)
(275.728 0 0)
(274.41 0 0)
(273.034 0 0)
(271.596 0 0)
(270.091 0 0)
(268.515 0 0)
(266.862 0 0)
(265.126 0 0)
(263.299 0 0)
(261.369 0 0)
(259.327 0 0)
(257.171 0 0)
(254.896 0 0)
(252.413 0 0)
(249.549 0 0)
(246.487 0 0)
(244.377 0 0)
(243.609 0 0)
(237.662 0 0)
(212.749 0 0)
(170.051 0 0)
(133.308 0 0)
(114.531 0 0)
(107.571 0 0)
(105.439 0 0)
(105.002 0 0)
(105.073 0 0)
(105.547 0 0)
(299.727 0 0)
(299.79 0 0)
(299.837 0 0)
(299.867 0 0)
(299.88 0 0)
(299.877 0 0)
(299.857 0 0)
(299.819 0 0)
(299.764 0 0)
(299.692 0 0)
(299.601 0 0)
(299.493 0 0)
(299.367 0 0)
(299.222 0 0)
(299.058 0 0)
(298.876 0 0)
(298.674 0 0)
(298.454 0 0)
(298.213 0 0)
(297.953 0 0)
(297.672 0 0)
(297.37 0 0)
(297.048 0 0)
(296.705 0 0)
(296.339 0 0)
(295.952 0 0)
(295.543 0 0)
(295.11 0 0)
(294.654 0 0)
(294.175 0 0)
(293.671 0 0)
(293.142 0 0)
(292.588 0 0)
(292.008 0 0)
(291.401 0 0)
(290.767 0 0)
(290.105 0 0)
(289.414 0 0)
(288.693 0 0)
(287.942 0 0)
(287.16 0 0)
(286.345 0 0)
(285.497 0 0)
(284.614 0 0)
(283.695 0 0)
(282.739 0 0)
(281.744 0 0)
(280.708 0 0)
(279.63 0 0)
(278.508 0 0)
(277.34 0 0)
(276.122 0 0)
(274.854 0 0)
(273.531 0 0)
(272.15 0 0)
(270.708 0 0)
(269.2 0 0)
(267.622 0 0)
(265.967 0 0)
(264.23 0 0)
(262.403 0 0)
(260.473 0 0)
(258.433 0 0)
(256.283 0 0)
(254.01 0 0)
(251.503 0 0)
(248.601 0 0)
(245.651 0 0)
(243.937 0 0)
(243.128 0 0)
(234.755 0 0)
(205.484 0 0)
(161.832 0 0)
(128.294 0 0)
(112.448 0 0)
(106.823 0 0)
(105.189 0 0)
(104.848 0 0)
(105.148 0 0)
(299.787 0 0)
(299.834 0 0)
(299.865 0 0)
(299.881 0 0)
(299.88 0 0)
(299.863 0 0)
(299.83 0 0)
(299.781 0 0)
(299.715 0 0)
(299.632 0 0)
(299.532 0 0)
(299.415 0 0)
(299.28 0 0)
(299.128 0 0)
(298.958 0 0)
(298.77 0 0)
(298.563 0 0)
(298.338 0 0)
(298.094 0 0)
(297.831 0 0)
(297.548 0 0)
(297.246 0 0)
(296.923 0 0)
(296.581 0 0)
(296.217 0 0)
(295.832 0 0)
(295.426 0 0)
(294.997 0 0)
(294.546 0 0)
(294.073 0 0)
(293.576 0 0)
(293.055 0 0)
(292.51 0 0)
(291.94 0 0)
(291.345 0 0)
(290.723 0 0)
(290.075 0 0)
(289.399 0 0)
(288.695 0 0)
(287.962 0 0)
(287.199 0 0)
(286.405 0 0)
(285.579 0 0)
(284.72 0 0)
(283.827 0 0)
(282.899 0 0)
(281.934 0 0)
(280.93 0 0)
(279.887 0 0)
(278.803 0 0)
(277.674 0 0)
(276.5 0 0)
(275.278 0 0)
(274.005 0 0)
(272.679 0 0)
(271.295 0 0)
(269.851 0 0)
(268.342 0 0)
(266.764 0 0)
(265.11 0 0)
(263.374 0 0)
(261.548 0 0)
(259.622 0 0)
(257.586 0 0)
(255.446 0 0)
(253.177 0 0)
(250.646 0 0)
(247.724 0 0)
(244.926 0 0)
(243.602 0 0)
(242.523 0 0)
(231.457 0 0)
(198.385 0 0)
(154.739 0 0)
(124.336 0 0)
(110.864 0 0)
(106.276 0 0)
(104.94 0 0)
(104.874 0 0)
(299.832 0 0)
(299.864 0 0)
(299.88 0 0)
(299.882 0 0)
(299.868 0 0)
(299.839 0 0)
(299.794 0 0)
(299.734 0 0)
(299.658 0 0)
(299.565 0 0)
(299.457 0 0)
(299.331 0 0)
(299.19 0 0)
(299.031 0 0)
(298.855 0 0)
(298.661 0 0)
(298.45 0 0)
(298.222 0 0)
(297.975 0 0)
(297.709 0 0)
(297.425 0 0)
(297.122 0 0)
(296.8 0 0)
(296.458 0 0)
(296.096 0 0)
(295.713 0 0)
(295.31 0 0)
(294.886 0 0)
(294.441 0 0)
(293.973 0 0)
(293.483 0 0)
(292.971 0 0)
(292.435 0 0)
(291.875 0 0)
(291.29 0 0)
(290.681 0 0)
(290.046 0 0)
(289.385 0 0)
(288.697 0 0)
(287.981 0 0)
(287.236 0 0)
(286.462 0 0)
(285.658 0 0)
(284.823 0 0)
(283.955 0 0)
(283.053 0 0)
(282.117 0 0)
(281.144 0 0)
(280.134 0 0)
(279.085 0 0)
(277.995 0 0)
(276.862 0 0)
(275.684 0 0)
(274.458 0 0)
(273.183 0 0)
(271.855 0 0)
(270.47 0 0)
(269.026 0 0)
(267.518 0 0)
(265.941 0 0)
(264.29 0 0)
(262.558 0 0)
(260.737 0 0)
(258.815 0 0)
(256.788 0 0)
(254.66 0 0)
(252.397 0 0)
(249.845 0 0)
(246.921 0 0)
(244.31 0 0)
(243.34 0 0)
(241.785 0 0)
(227.937 0 0)
(191.738 0 0)
(148.78 0 0)
(121.236 0 0)
(109.679 0 0)
(105.81 0 0)
(104.869 0 0)
(299.863 0 0)
(299.88 0 0)
(299.883 0 0)
(299.872 0 0)
(299.846 0 0)
(299.806 0 0)
(299.75 0 0)
(299.68 0 0)
(299.594 0 0)
(299.493 0 0)
(299.376 0 0)
(299.244 0 0)
(299.095 0 0)
(298.93 0 0)
(298.749 0 0)
(298.551 0 0)
(298.336 0 0)
(298.104 0 0)
(297.854 0 0)
(297.587 0 0)
(297.302 0 0)
(296.999 0 0)
(296.677 0 0)
(296.336 0 0)
(295.976 0 0)
(295.596 0 0)
(295.197 0 0)
(294.777 0 0)
(294.337 0 0)
(293.875 0 0)
(293.392 0 0)
(292.888 0 0)
(292.361 0 0)
(291.811 0 0)
(291.237 0 0)
(290.64 0 0)
(290.018 0 0)
(289.371 0 0)
(288.698 0 0)
(287.999 0 0)
(287.272 0 0)
(286.518 0 0)
(285.734 0 0)
(284.921 0 0)
(284.077 0 0)
(283.201 0 0)
(282.293 0 0)
(281.35 0 0)
(280.371 0 0)
(279.356 0 0)
(278.302 0 0)
(277.208 0 0)
(276.071 0 0)
(274.891 0 0)
(273.664 0 0)
(272.387 0 0)
(271.059 0 0)
(269.675 0 0)
(268.233 0 0)
(266.728 0 0)
(265.154 0 0)
(263.508 0 0)
(261.782 0 0)
(259.968 0 0)
(258.055 0 0)
(256.04 0 0)
(253.928 0 0)
(251.671 0 0)
(249.102 0 0)
(246.195 0 0)
(243.792 0 0)
(243.125 0 0)
(240.938 0 0)
(224.393 0 0)
(185.768 0 0)
(143.887 0 0)
(118.851 0 0)
(108.738 0 0)
(105.53 0 0)
(299.88 0 0)
(299.885 0 0)
(299.875 0 0)
(299.852 0 0)
(299.815 0 0)
(299.764 0 0)
(299.699 0 0)
(299.619 0 0)
(299.525 0 0)
(299.416 0 0)
(299.291 0 0)
(299.152 0 0)
(298.998 0 0)
(298.827 0 0)
(298.641 0 0)
(298.439 0 0)
(298.221 0 0)
(297.986 0 0)
(297.734 0 0)
(297.466 0 0)
(297.18 0 0)
(296.876 0 0)
(296.555 0 0)
(296.215 0 0)
(295.857 0 0)
(295.481 0 0)
(295.085 0 0)
(294.67 0 0)
(294.235 0 0)
(293.779 0 0)
(293.303 0 0)
(292.807 0 0)
(292.288 0 0)
(291.748 0 0)
(291.185 0 0)
(290.6 0 0)
(289.99 0 0)
(289.357 0 0)
(288.699 0 0)
(288.016 0 0)
(287.307 0 0)
(286.571 0 0)
(285.808 0 0)
(285.016 0 0)
(284.195 0 0)
(283.344 0 0)
(282.462 0 0)
(281.547 0 0)
(280.599 0 0)
(279.616 0 0)
(278.596 0 0)
(277.539 0 0)
(276.442 0 0)
(275.304 0 0)
(274.123 0 0)
(272.895 0 0)
(271.62 0 0)
(270.293 0 0)
(268.912 0 0)
(267.473 0 0)
(265.972 0 0)
(264.405 0 0)
(262.766 0 0)
(261.048 0 0)
(259.244 0 0)
(257.342 0 0)
(255.342 0 0)
(253.248 0 0)
(251 0 0)
(248.422 0 0)
(245.549 0 0)
(243.359 0 0)
(242.938 0 0)
(240.032 0 0)
(221.032 0 0)
(180.619 0 0)
(139.993 0 0)
(117.001 0 0)
(107.989 0 0)
(299.885 0 0)
(299.878 0 0)
(299.857 0 0)
(299.823 0 0)
(299.775 0 0)
(299.715 0 0)
(299.64 0 0)
(299.552 0 0)
(299.45 0 0)
(299.333 0 0)
(299.203 0 0)
(299.057 0 0)
(298.897 0 0)
(298.722 0 0)
(298.532 0 0)
(298.326 0 0)
(298.104 0 0)
(297.867 0 0)
(297.614 0 0)
(297.344 0 0)
(297.058 0 0)
(296.754 0 0)
(296.434 0 0)
(296.096 0 0)
(295.741 0 0)
(295.367 0 0)
(294.975 0 0)
(294.564 0 0)
(294.134 0 0)
(293.685 0 0)
(293.216 0 0)
(292.727 0 0)
(292.218 0 0)
(291.687 0 0)
(291.134 0 0)
(290.56 0 0)
(289.964 0 0)
(289.344 0 0)
(288.701 0 0)
(288.033 0 0)
(287.341 0 0)
(286.623 0 0)
(285.879 0 0)
(285.108 0 0)
(284.309 0 0)
(283.482 0 0)
(282.625 0 0)
(281.737 0 0)
(280.818 0 0)
(279.865 0 0)
(278.879 0 0)
(277.857 0 0)
(276.798 0 0)
(275.7 0 0)
(274.561 0 0)
(273.38 0 0)
(272.154 0 0)
(270.88 0 0)
(269.557 0 0)
(268.18 0 0)
(266.747 0 0)
(265.253 0 0)
(263.693 0 0)
(262.063 0 0)
(260.356 0 0)
(258.564 0 0)
(256.676 0 0)
(254.694 0 0)
(252.621 0 0)
(250.385 0 0)
(247.806 0 0)
(244.98 0 0)
(242.997 0 0)
(242.767 0 0)
(239.144 0 0)
(218.042 0 0)
(176.401 0 0)
(137.003 0 0)
(115.242 0 0)
(299.879 0 0)
(299.86 0 0)
(299.829 0 0)
(299.785 0 0)
(299.728 0 0)
(299.658 0 0)
(299.576 0 0)
(299.48 0 0)
(299.37 0 0)
(299.247 0 0)
(299.11 0 0)
(298.959 0 0)
(298.794 0 0)
(298.615 0 0)
(298.421 0 0)
(298.212 0 0)
(297.988 0 0)
(297.748 0 0)
(297.494 0 0)
(297.223 0 0)
(296.937 0 0)
(296.634 0 0)
(296.315 0 0)
(295.979 0 0)
(295.626 0 0)
(295.255 0 0)
(294.867 0 0)
(294.461 0 0)
(294.036 0 0)
(293.593 0 0)
(293.131 0 0)
(292.65 0 0)
(292.148 0 0)
(291.627 0 0)
(291.085 0 0)
(290.522 0 0)
(289.937 0 0)
(289.331 0 0)
(288.701 0 0)
(288.049 0 0)
(287.373 0 0)
(286.673 0 0)
(285.947 0 0)
(285.196 0 0)
(284.419 0 0)
(283.614 0 0)
(282.782 0 0)
(281.92 0 0)
(281.028 0 0)
(280.105 0 0)
(279.15 0 0)
(278.161 0 0)
(277.138 0 0)
(276.078 0 0)
(274.98 0 0)
(273.842 0 0)
(272.663 0 0)
(271.44 0 0)
(270.17 0 0)
(268.852 0 0)
(267.481 0 0)
(266.054 0 0)
(264.569 0 0)
(263.019 0 0)
(261.4 0 0)
(259.707 0 0)
(257.929 0 0)
(256.058 0 0)
(254.097 0 0)
(252.047 0 0)
(249.828 0 0)
(247.256 0 0)
(244.485 0 0)
(242.691 0 0)
(242.608 0 0)
(238.353 0 0)
(215.574 0 0)
(173.342 0 0)
(133.354 0 0)
(299.863 0 0)
(299.834 0 0)
(299.792 0 0)
(299.739 0 0)
(299.674 0 0)
(299.596 0 0)
(299.505 0 0)
(299.402 0 0)
(299.286 0 0)
(299.157 0 0)
(299.015 0 0)
(298.859 0 0)
(298.689 0 0)
(298.506 0 0)
(298.308 0 0)
(298.097 0 0)
(297.871 0 0)
(297.63 0 0)
(297.374 0 0)
(297.103 0 0)
(296.817 0 0)
(296.515 0 0)
(296.197 0 0)
(295.863 0 0)
(295.512 0 0)
(295.145 0 0)
(294.761 0 0)
(294.359 0 0)
(293.94 0 0)
(293.503 0 0)
(293.048 0 0)
(292.574 0 0)
(292.081 0 0)
(291.569 0 0)
(291.037 0 0)
(290.484 0 0)
(289.912 0 0)
(289.318 0 0)
(288.702 0 0)
(288.065 0 0)
(287.404 0 0)
(286.721 0 0)
(286.013 0 0)
(285.282 0 0)
(284.525 0 0)
(283.742 0 0)
(282.932 0 0)
(282.095 0 0)
(281.23 0 0)
(280.335 0 0)
(279.41 0 0)
(278.453 0 0)
(277.464 0 0)
(276.44 0 0)
(275.381 0 0)
(274.284 0 0)
(273.149 0 0)
(271.973 0 0)
(270.754 0 0)
(269.49 0 0)
(268.177 0 0)
(266.814 0 0)
(265.397 0 0)
(263.921 0 0)
(262.383 0 0)
(260.778 0 0)
(259.1 0 0)
(257.339 0 0)
(255.488 0 0)
(253.55 0 0)
(251.527 0 0)
(249.329 0 0)
(246.774 0 0)
(244.061 0 0)
(242.425 0 0)
(242.48 0 0)
(237.619 0 0)
(214.532 0 0)
(166.825 0 0)
(299.837 0 0)
(299.798 0 0)
(299.748 0 0)
(299.686 0 0)
(299.613 0 0)
(299.527 0 0)
(299.43 0 0)
(299.32 0 0)
(299.198 0 0)
(299.064 0 0)
(298.916 0 0)
(298.756 0 0)
(298.583 0 0)
(298.396 0 0)
(298.195 0 0)
(297.981 0 0)
(297.753 0 0)
(297.511 0 0)
(297.255 0 0)
(296.983 0 0)
(296.697 0 0)
(296.396 0 0)
(296.08 0 0)
(295.748 0 0)
(295.4 0 0)
(295.037 0 0)
(294.656 0 0)
(294.26 0 0)
(293.846 0 0)
(293.415 0 0)
(292.966 0 0)
(292.5 0 0)
(292.015 0 0)
(291.512 0 0)
(290.99 0 0)
(290.448 0 0)
(289.887 0 0)
(289.305 0 0)
(288.703 0 0)
(288.079 0 0)
(287.434 0 0)
(286.767 0 0)
(286.077 0 0)
(285.364 0 0)
(284.627 0 0)
(283.865 0 0)
(283.078 0 0)
(282.265 0 0)
(281.424 0 0)
(280.556 0 0)
(279.66 0 0)
(278.733 0 0)
(277.776 0 0)
(276.787 0 0)
(275.764 0 0)
(274.707 0 0)
(273.613 0 0)
(272.481 0 0)
(271.31 0 0)
(270.096 0 0)
(268.839 0 0)
(267.534 0 0)
(266.18 0 0)
(264.774 0 0)
(263.31 0 0)
(261.786 0 0)
(260.196 0 0)
(258.535 0 0)
(256.794 0 0)
(254.965 0 0)
(253.054 0 0)
(251.059 0 0)
(248.888 0 0)
(246.362 0 0)
(243.69 0 0)
(242.259 0 0)
(241.986 0 0)
(239.107 0 0)
(205.009 0 0)
(299.803 0 0)
(299.755 0 0)
(299.697 0 0)
(299.627 0 0)
(299.546 0 0)
(299.454 0 0)
(299.35 0 0)
(299.235 0 0)
(299.107 0 0)
(298.968 0 0)
(298.816 0 0)
(298.651 0 0)
(298.474 0 0)
(298.285 0 0)
(298.082 0 0)
(297.866 0 0)
(297.636 0 0)
(297.393 0 0)
(297.136 0 0)
(296.865 0 0)
(296.579 0 0)
(296.28 0 0)
(295.965 0 0)
(295.635 0 0)
(295.29 0 0)
(294.93 0 0)
(294.554 0 0)
(294.162 0 0)
(293.753 0 0)
(293.328 0 0)
(292.887 0 0)
(292.427 0 0)
(291.951 0 0)
(291.456 0 0)
(290.944 0 0)
(290.412 0 0)
(289.862 0 0)
(289.293 0 0)
(288.703 0 0)
(288.094 0 0)
(287.463 0 0)
(286.812 0 0)
(286.139 0 0)
(285.443 0 0)
(284.725 0 0)
(283.984 0 0)
(283.218 0 0)
(282.427 0 0)
(281.611 0 0)
(280.769 0 0)
(279.9 0 0)
(279.002 0 0)
(278.076 0 0)
(277.119 0 0)
(276.131 0 0)
(275.111 0 0)
(274.056 0 0)
(272.967 0 0)
(271.84 0 0)
(270.674 0 0)
(269.468 0 0)
(268.218 0 0)
(266.923 0 0)
(265.58 0 0)
(264.185 0 0)
(262.736 0 0)
(261.227 0 0)
(259.655 0 0)
(258.013 0 0)
(256.294 0 0)
(254.49 0 0)
(252.607 0 0)
(250.643 0 0)
(248.513 0 0)
(245.983 0 0)
(243.55 0 0)
(241.349 0 0)
(244.703 0 0)
(229.466 0 0)
(299.761 0 0)
(299.705 0 0)
(299.639 0 0)
(299.562 0 0)
(299.475 0 0)
(299.376 0 0)
(299.267 0 0)
(299.146 0 0)
(299.013 0 0)
(298.869 0 0)
(298.713 0 0)
(298.545 0 0)
(298.365 0 0)
(298.173 0 0)
(297.968 0 0)
(297.75 0 0)
(297.519 0 0)
(297.275 0 0)
(297.018 0 0)
(296.747 0 0)
(296.463 0 0)
(296.164 0 0)
(295.851 0 0)
(295.524 0 0)
(295.182 0 0)
(294.826 0 0)
(294.454 0 0)
(294.066 0 0)
(293.663 0 0)
(293.244 0 0)
(292.809 0 0)
(292.357 0 0)
(291.888 0 0)
(291.402 0 0)
(290.899 0 0)
(290.378 0 0)
(289.838 0 0)
(289.28 0 0)
(288.704 0 0)
(288.107 0 0)
(287.491 0 0)
(286.855 0 0)
(286.198 0 0)
(285.52 0 0)
(284.82 0 0)
(284.098 0 0)
(283.353 0 0)
(282.584 0 0)
(281.791 0 0)
(280.974 0 0)
(280.13 0 0)
(279.26 0 0)
(278.363 0 0)
(277.437 0 0)
(276.482 0 0)
(275.497 0 0)
(274.48 0 0)
(273.43 0 0)
(272.345 0 0)
(271.225 0 0)
(270.066 0 0)
(268.868 0 0)
(267.628 0 0)
(266.344 0 0)
(265.013 0 0)
(263.632 0 0)
(262.198 0 0)
(260.707 0 0)
(259.154 0 0)
(257.534 0 0)
(255.839 0 0)
(254.062 0 0)
(252.206 0 0)
(250.295 0 0)
(248.131 0 0)
(245.944 0 0)
(242.461 0 0)
(243.729 0 0)
(238.614 0 0)
(299.712 0 0)
(299.649 0 0)
(299.576 0 0)
(299.492 0 0)
(299.399 0 0)
(299.294 0 0)
(299.179 0 0)
(299.053 0 0)
(298.917 0 0)
(298.768 0 0)
(298.609 0 0)
(298.438 0 0)
(298.255 0 0)
(298.06 0 0)
(297.853 0 0)
(297.634 0 0)
(297.403 0 0)
(297.158 0 0)
(296.901 0 0)
(296.631 0 0)
(296.347 0 0)
(296.05 0 0)
(295.74 0 0)
(295.415 0 0)
(295.076 0 0)
(294.723 0 0)
(294.355 0 0)
(293.972 0 0)
(293.574 0 0)
(293.161 0 0)
(292.733 0 0)
(292.288 0 0)
(291.827 0 0)
(291.349 0 0)
(290.855 0 0)
(290.344 0 0)
(289.815 0 0)
(289.268 0 0)
(288.704 0 0)
(288.12 0 0)
(287.518 0 0)
(286.897 0 0)