/*--------------------------------*- C++ -*----------------------------------*\
| =========                 |                                                 |
| \\      /  F ield         | OpenFOAM: The Open Source CFD Toolbox           |
|  \\    /   O peration     | Version:  2312                                  |
|   \\  /    A nd           | Website:  www.openfoam.com                      |
|    \\/     M anipulation  |                                                 |
\*---------------------------------------------------------------------------*/
FoamFile
{
    version     2.0;
    format      ascii;
    arch        "LSB;label=32;scalar=64";
    class       volVectorField;
    location    "0.076";
    object      U;
}
// * * * * * * * * * * * * * * * * * * * * * * * * * * * * * * * * * * * * * //

dimensions      [0 1 -1 0 0 0 0];

internalField   nonuniform List<vector> 
31205
(
(167.477 0 0)
(170.594 0 0)
(173.633 0 0)
(176.599 0 0)
(179.494 0 0)
(182.322 0 0)
(185.086 0 0)
(187.788 0 0)
(190.432 0 0)
(193.019 0 0)
(195.551 0 0)
(198.031 0 0)
(200.461 0 0)
(202.842 0 0)
(205.177 0 0)
(207.466 0 0)
(209.711 0 0)
(211.915 0 0)
(214.077 0 0)
(216.199 0 0)
(218.283 0 0)
(220.329 0 0)
(222.338 0 0)
(224.313 0 0)
(226.252 0 0)
(228.157 0 0)
(230.03 0 0)
(231.87 0 0)
(233.679 0 0)
(235.457 0 0)
(237.205 0 0)
(238.923 0 0)
(240.612 0 0)
(242.273 0 0)
(243.905 0 0)
(245.511 0 0)
(247.089 0 0)
(248.64 0 0)
(250.166 0 0)
(251.665 0 0)
(253.139 0 0)
(254.588 0 0)
(256.013 0 0)
(257.413 0 0)
(258.788 0 0)
(260.14 0 0)
(261.468 0 0)
(262.772 0 0)
(264.054 0 0)
(265.312 0 0)
(266.548 0 0)
(267.76 0 0)
(268.951 0 0)
(270.119 0 0)
(271.264 0 0)
(272.388 0 0)
(273.49 0 0)
(274.569 0 0)
(275.627 0 0)
(276.663 0 0)
(277.677 0 0)
(278.67 0 0)
(279.641 0 0)
(280.59 0 0)
(281.518 0 0)
(282.424 0 0)
(283.308 0 0)
(284.169 0 0)
(285.012 0 0)
(285.833 0 0)
(286.616 0 0)
(287.39 0 0)
(288.205 0 0)
(288.987 0 0)
(288.842 0 0)
(291.618 0 0)
(290.592 0 0)
(290.591 0 0)
(289.862 0 0)
(170.785 0 0)
(173.729 0 0)
(176.605 0 0)
(179.414 0 0)
(182.16 0 0)
(184.846 0 0)
(187.473 0 0)
(190.045 0 0)
(192.563 0 0)
(195.03 0 0)
(197.447 0 0)
(199.817 0 0)
(202.14 0 0)
(204.419 0 0)
(206.655 0 0)
(208.85 0 0)
(211.004 0 0)
(213.119 0 0)
(215.196 0 0)
(217.236 0 0)
(219.241 0 0)
(221.21 0 0)
(223.146 0 0)
(225.048 0 0)
(226.918 0 0)
(228.757 0 0)
(230.565 0 0)
(232.342 0 0)
(234.091 0 0)
(235.81 0 0)
(237.501 0 0)
(239.164 0 0)
(240.8 0 0)
(242.409 0 0)
(243.992 0 0)
(245.549 0 0)
(247.08 0 0)
(248.587 0 0)
(250.068 0 0)
(251.526 0 0)
(252.959 0 0)
(254.369 0 0)
(255.756 0 0)
(257.119 0 0)
(258.459 0 0)
(259.777 0 0)
(261.073 0 0)
(262.346 0 0)
(263.597 0 0)
(264.827 0 0)
(266.035 0 0)
(267.222 0 0)
(268.387 0 0)
(269.531 0 0)
(270.654 0 0)
(271.756 0 0)
(272.838 0 0)
(273.899 0 0)
(274.939 0 0)
(275.958 0 0)
(276.957 0 0)
(277.936 0 0)
(278.894 0 0)
(279.832 0 0)
(280.749 0 0)
(281.646 0 0)
(282.522 0 0)
(283.378 0 0)
(284.213 0 0)
(285.029 0 0)
(285.824 0 0)
(286.604 0 0)
(287.299 0 0)
(288.196 0 0)
(288.714 0 0)
(289.357 0 0)
(290.327 0 0)
(290.898 0 0)
(291.864 0 0)
(174.057 0 0)
(176.838 0 0)
(179.557 0 0)
(182.217 0 0)
(184.82 0 0)
(187.369 0 0)
(189.865 0 0)
(192.311 0 0)
(194.709 0 0)
(197.06 0 0)
(199.366 0 0)
(201.629 0 0)
(203.849 0 0)
(206.029 0 0)
(208.169 0 0)
(210.271 0 0)
(212.336 0 0)
(214.365 0 0)
(216.359 0 0)
(218.319 0 0)
(220.246 0 0)
(222.141 0 0)
(224.003 0 0)
(225.836 0 0)
(227.638 0 0)
(229.41 0 0)
(231.154 0 0)
(232.87 0 0)
(234.558 0 0)
(236.22 0 0)
(237.854 0 0)
(239.463 0 0)
(241.046 0 0)
(242.604 0 0)
(244.137 0 0)
(245.646 0 0)
(247.131 0 0)
(248.593 0 0)
(250.031 0 0)
(251.446 0 0)
(252.839 0 0)
(254.21 0 0)
(255.558 0 0)
(256.885 0 0)
(258.19 0 0)
(259.473 0 0)
(260.736 0 0)
(261.978 0 0)
(263.199 0 0)
(264.399 0 0)
(265.579 0 0)
(266.739 0 0)
(267.878 0 0)
(268.998 0 0)
(270.098 0 0)
(271.178 0 0)
(272.238 0 0)
(273.279 0 0)
(274.3 0 0)
(275.302 0 0)
(276.284 0 0)
(277.248 0 0)
(278.192 0 0)
(279.116 0 0)
(280.022 0 0)
(280.908 0 0)
(281.775 0 0)
(282.623 0 0)
(283.451 0 0)
(284.261 0 0)
(285.047 0 0)
(285.83 0 0)
(286.564 0 0)
(287.295 0 0)
(288.043 0 0)
(288.7 0 0)
(289.356 0 0)
(289.981 0 0)
(290.784 0 0)
(177.207 0 0)
(179.836 0 0)
(182.409 0 0)
(184.93 0 0)
(187.399 0 0)
(189.819 0 0)
(192.193 0 0)
(194.52 0 0)
(196.804 0 0)
(199.046 0 0)
(201.246 0 0)
(203.407 0 0)
(205.529 0 0)
(207.615 0 0)
(209.663 0 0)
(211.677 0 0)
(213.657 0 0)
(215.604 0 0)
(217.518 0 0)
(219.401 0 0)
(221.253 0 0)
(223.075 0 0)
(224.868 0 0)
(226.632 0 0)
(228.368 0 0)
(230.077 0 0)
(231.759 0 0)
(233.415 0 0)
(235.045 0 0)
(236.65 0 0)
(238.23 0 0)
(239.785 0 0)
(241.317 0 0)
(242.825 0 0)
(244.31 0 0)
(245.772 0 0)
(247.212 0 0)
(248.629 0 0)
(250.025 0 0)
(251.399 0 0)
(252.752 0 0)
(254.083 0 0)
(255.394 0 0)
(256.684 0 0)
(257.954 0 0)
(259.204 0 0)
(260.434 0 0)
(261.644 0 0)
(262.835 0 0)
(264.006 0 0)
(265.158 0 0)
(266.291 0 0)
(267.404 0 0)
(268.499 0 0)
(269.575 0 0)
(270.633 0 0)
(271.672 0 0)
(272.692 0 0)
(273.694 0 0)
(274.678 0 0)
(275.643 0 0)
(276.59 0 0)
(277.519 0 0)
(278.43 0 0)
(279.323 0 0)
(280.197 0 0)
(281.054 0 0)
(281.892 0 0)
(282.712 0 0)
(283.515 0 0)
(284.298 0 0)
(285.064 0 0)
(285.814 0 0)
(286.538 0 0)
(287.249 0 0)
(287.944 0 0)
(288.636 0 0)
(289.22 0 0)
(290.059 0 0)
(180.207 0 0)
(182.695 0 0)
(185.133 0 0)
(187.523 0 0)
(189.868 0 0)
(192.168 0 0)
(194.426 0 0)
(196.643 0 0)
(198.82 0 0)
(200.958 0 0)
(203.059 0 0)
(205.124 0 0)
(207.153 0 0)
(209.149 0 0)
(211.111 0 0)
(213.041 0 0)
(214.94 0 0)
(216.808 0 0)
(218.646 0 0)
(220.455 0 0)
(222.236 0 0)
(223.989 0 0)
(225.714 0 0)
(227.413 0 0)
(229.086 0 0)
(230.734 0 0)
(232.356 0 0)
(233.955 0 0)
(235.528 0 0)
(237.079 0 0)
(238.606 0 0)
(240.11 0 0)
(241.592 0 0)
(243.052 0 0)
(244.49 0 0)
(245.906 0 0)
(247.302 0 0)
(248.676 0 0)
(250.03 0 0)
(251.364 0 0)
(252.678 0 0)
(253.971 0 0)
(255.246 0 0)
(256.501 0 0)
(257.736 0 0)
(258.953 0 0)
(260.151 0 0)
(261.33 0 0)
(262.49 0 0)
(263.633 0 0)
(264.757 0 0)
(265.863 0 0)
(266.951 0 0)
(268.021 0 0)
(269.074 0 0)
(270.108 0 0)
(271.126 0 0)
(272.126 0 0)
(273.108 0 0)
(274.073 0 0)
(275.021 0 0)
(275.952 0 0)
(276.865 0 0)
(277.762 0 0)
(278.641 0 0)
(279.503 0 0)
(280.348 0 0)
(281.176 0 0)
(281.987 0 0)
(282.781 0 0)
(283.558 0 0)
(284.317 0 0)
(285.06 0 0)
(285.786 0 0)
(286.495 0 0)
(287.178 0 0)
(287.873 0 0)
(288.468 0 0)
(289.298 0 0)
(183.053 0 0)
(185.41 0 0)
(187.723 0 0)
(189.993 0 0)
(192.221 0 0)
(194.409 0 0)
(196.559 0 0)
(198.672 0 0)
(200.748 0 0)
(202.79 0 0)
(204.797 0 0)
(206.771 0 0)
(208.713 0 0)
(210.623 0 0)
(212.504 0 0)
(214.354 0 0)
(216.176 0 0)
(217.969 0 0)
(219.734 0 0)
(221.473 0 0)
(223.186 0 0)
(224.872 0 0)
(226.534 0 0)
(228.17 0 0)
(229.783 0 0)
(231.372 0 0)
(232.937 0 0)
(234.479 0 0)
(235.999 0 0)
(237.497 0 0)
(238.974 0 0)
(240.428 0 0)
(241.862 0 0)
(243.275 0 0)
(244.668 0 0)
(246.04 0 0)
(247.393 0 0)
(248.726 0 0)
(250.039 0 0)
(251.334 0 0)
(252.61 0 0)
(253.866 0 0)
(255.105 0 0)
(256.325 0 0)
(257.527 0 0)
(258.711 0 0)
(259.878 0 0)
(261.026 0 0)
(262.158 0 0)
(263.272 0 0)
(264.368 0 0)
(265.448 0 0)
(266.511 0 0)
(267.556 0 0)
(268.585 0 0)
(269.598 0 0)
(270.594 0 0)
(271.573 0 0)
(272.536 0 0)
(273.482 0 0)
(274.413 0 0)
(275.327 0 0)
(276.224 0 0)
(277.106 0 0)
(277.971 0 0)
(278.821 0 0)
(279.654 0 0)
(280.471 0 0)
(281.272 0 0)
(282.057 0 0)
(282.826 0 0)
(283.578 0 0)
(284.315 0 0)
(285.035 0 0)
(285.741 0 0)
(286.423 0 0)
(287.114 0 0)
(287.707 0 0)
(288.542 0 0)
(185.753 0 0)
(187.989 0 0)
(190.184 0 0)
(192.342 0 0)
(194.461 0 0)
(196.545 0 0)
(198.594 0 0)
(200.609 0 0)
(202.591 0 0)
(204.541 0 0)
(206.459 0 0)
(208.348 0 0)
(210.207 0 0)
(212.037 0 0)
(213.839 0 0)
(215.614 0 0)
(217.363 0 0)
(219.085 0 0)
(220.781 0 0)
(222.453 0 0)
(224.1 0 0)
(225.724 0 0)
(227.324 0 0)
(228.901 0 0)
(230.455 0 0)
(231.987 0 0)
(233.498 0 0)
(234.987 0 0)
(236.455 0 0)
(237.903 0 0)
(239.33 0 0)
(240.737 0 0)
(242.124 0 0)
(243.492 0 0)
(244.841 0 0)
(246.171 0 0)
(247.482 0 0)
(248.775 0 0)
(250.049 0 0)
(251.305 0 0)
(252.544 0 0)
(253.765 0 0)
(254.969 0 0)
(256.155 0 0)
(257.325 0 0)
(258.477 0 0)
(259.612 0 0)
(260.731 0 0)
(261.834 0 0)
(262.92 0 0)
(263.99 0 0)
(265.044 0 0)
(266.081 0 0)
(267.103 0 0)
(268.109 0 0)
(269.099 0 0)
(270.073 0 0)
(271.032 0 0)
(271.975 0 0)
(272.903 0 0)
(273.816 0 0)
(274.713 0 0)
(275.595 0 0)
(276.461 0 0)
(277.312 0 0)
(278.148 0 0)
(278.969 0 0)
(279.775 0 0)
(280.565 0 0)
(281.341 0 0)
(282.101 0 0)
(282.846 0 0)
(283.576 0 0)
(284.29 0 0)
(284.991 0 0)
(285.669 0 0)
(286.358 0 0)
(286.949 0 0)
(287.781 0 0)
(188.316 0 0)
(190.439 0 0)
(192.525 0 0)
(194.577 0 0)
(196.596 0 0)
(198.581 0 0)
(200.535 0 0)
(202.458 0 0)
(204.351 0 0)
(206.215 0 0)
(208.05 0 0)
(209.858 0 0)
(211.638 0 0)
(213.392 0 0)
(215.121 0 0)
(216.824 0 0)
(218.502 0 0)
(220.157 0 0)
(221.788 0 0)
(223.396 0 0)
(224.981 0 0)
(226.544 0 0)
(228.085 0 0)
(229.605 0 0)
(231.103 0 0)
(232.582 0 0)
(234.039 0 0)
(235.477 0 0)
(236.896 0 0)
(238.294 0 0)
(239.674 0 0)
(241.035 0 0)
(242.378 0 0)
(243.702 0 0)
(245.009 0 0)
(246.297 0 0)
(247.568 0 0)
(248.822 0 0)
(250.058 0 0)
(251.278 0 0)
(252.481 0 0)
(253.667 0 0)
(254.837 0 0)
(255.99 0 0)
(257.127 0 0)
(258.249 0 0)
(259.354 0 0)
(260.444 0 0)
(261.518 0 0)
(262.577 0 0)
(263.621 0 0)
(264.649 0 0)
(265.662 0 0)
(266.66 0 0)
(267.643 0 0)
(268.611 0 0)
(269.564 0 0)
(270.502 0 0)
(271.426 0 0)
(272.335 0 0)
(273.23 0 0)
(274.11 0 0)
(274.976 0 0)
(275.827 0 0)
(276.664 0 0)
(277.486 0 0)
(278.294 0 0)
(279.088 0 0)
(279.867 0 0)
(280.632 0 0)
(281.383 0 0)
(282.12 0 0)
(282.842 0 0)
(283.55 0 0)
(284.245 0 0)
(284.918 0 0)
(285.603 0 0)
(286.191 0 0)
(287.022 0 0)
(190.751 0 0)
(192.769 0 0)
(194.754 0 0)
(196.707 0 0)
(198.63 0 0)
(200.524 0 0)
(202.388 0 0)
(204.225 0 0)
(206.034 0 0)
(207.817 0 0)
(209.573 0 0)
(211.304 0 0)
(213.01 0 0)
(214.692 0 0)
(216.35 0 0)
(217.985 0 0)
(219.597 0 0)
(221.187 0 0)
(222.755 0 0)
(224.302 0 0)
(225.828 0 0)
(227.333 0 0)
(228.818 0 0)
(230.283 0 0)
(231.728 0 0)
(233.155 0 0)
(234.562 0 0)
(235.95 0 0)
(237.321 0 0)
(238.673 0 0)
(240.007 0 0)
(241.324 0 0)
(242.623 0 0)
(243.906 0 0)
(245.171 0 0)
(246.42 0 0)
(247.652 0 0)
(248.868 0 0)
(250.067 0 0)
(251.251 0 0)
(252.419 0 0)
(253.571 0 0)
(254.708 0 0)
(255.829 0 0)
(256.936 0 0)
(258.027 0 0)
(259.103 0 0)
(260.164 0 0)
(261.211 0 0)
(262.243 0 0)
(263.26 0 0)
(264.264 0 0)
(265.252 0 0)
(266.227 0 0)
(267.187 0 0)
(268.133 0 0)
(269.066 0 0)
(269.984 0 0)
(270.888 0 0)
(271.779 0 0)
(272.655 0 0)
(273.519 0 0)
(274.368 0 0)
(275.204 0 0)
(276.026 0 0)
(276.834 0 0)
(277.629 0 0)
(278.411 0 0)
(279.179 0 0)
(279.933 0 0)
(280.674 0 0)
(281.401 0 0)
(282.116 0 0)
(282.816 0 0)
(283.505 0 0)
(284.172 0 0)
(284.852 0 0)
(285.436 0 0)
(286.262 0 0)
(193.067 0 0)
(194.987 0 0)
(196.876 0 0)
(198.738 0 0)
(200.572 0 0)
(202.379 0 0)
(204.159 0 0)
(205.914 0 0)
(207.644 0 0)
(209.35 0 0)
(211.032 0 0)
(212.69 0 0)
(214.326 0 0)
(215.939 0 0)
(217.53 0 0)
(219.1 0 0)
(220.649 0 0)
(222.178 0 0)
(223.686 0 0)
(225.175 0 0)
(226.644 0 0)
(228.093 0 0)
(229.524 0 0)
(230.937 0 0)
(232.331 0 0)
(233.707 0 0)
(235.066 0 0)
(236.407 0 0)
(237.731 0 0)
(239.039 0 0)
(240.329 0 0)
(241.603 0 0)
(242.861 0 0)
(244.102 0 0)
(245.328 0 0)
(246.538 0 0)
(247.733 0 0)
(248.912 0 0)
(250.076 0 0)
(251.225 0 0)
(252.359 0 0)
(253.478 0 0)
(254.583 0 0)
(255.673 0 0)
(256.749 0 0)
(257.811 0 0)
(258.858 0 0)
(259.892 0 0)
(260.911 0 0)
(261.917 0 0)
(262.909 0 0)
(263.888 0 0)
(264.852 0 0)
(265.804 0 0)
(266.742 0 0)
(267.667 0 0)
(268.578 0 0)
(269.476 0 0)
(270.361 0 0)
(271.233 0 0)
(272.092 0 0)
(272.938 0 0)
(273.771 0 0)
(274.591 0 0)
(275.398 0 0)
(276.193 0 0)
(276.974 0 0)
(277.743 0 0)
(278.499 0 0)
(279.243 0 0)
(279.973 0 0)
(280.691 0 0)
(281.397 0 0)
(282.088 0 0)
(282.77 0 0)
(283.431 0 0)
(284.105 0 0)
(284.685 0 0)
(285.506 0 0)
(195.273 0 0)
(197.1 0 0)
(198.901 0 0)
(200.676 0 0)
(202.425 0 0)
(204.151 0 0)
(205.852 0 0)
(207.53 0 0)
(209.185 0 0)
(210.818 0 0)
(212.429 0 0)
(214.019 0 0)
(215.588 0 0)
(217.136 0 0)
(218.664 0 0)
(220.172 0 0)
(221.661 0 0)
(223.131 0 0)
(224.582 0 0)
(226.015 0 0)
(227.429 0 0)
(228.826 0 0)
(230.205 0 0)
(231.568 0 0)
(232.913 0 0)
(234.241 0 0)
(235.553 0 0)
(236.849 0 0)
(238.128 0 0)
(239.392 0 0)
(240.64 0 0)
(241.873 0 0)
(243.09 0 0)
(244.293 0 0)
(245.48 0 0)
(246.653 0 0)
(247.811 0 0)
(248.955 0 0)
(250.084 0 0)
(251.199 0 0)
(252.301 0 0)
(253.388 0 0)
(254.461 0 0)
(255.521 0 0)
(256.568 0 0)
(257.6 0 0)
(258.62 0 0)
(259.626 0 0)
(260.619 0 0)
(261.599 0 0)
(262.567 0 0)
(263.521 0 0)
(264.462 0 0)
(265.391 0 0)
(266.307 0 0)
(267.21 0 0)
(268.101 0 0)
(268.979 0 0)
(269.845 0 0)
(270.699 0 0)
(271.54 0 0)
(272.369 0 0)
(273.186 0 0)
(273.99 0 0)
(274.782 0 0)
(275.562 0 0)
(276.33 0 0)
(277.086 0 0)
(277.83 0 0)
(278.562 0 0)
(279.282 0 0)
(279.99 0 0)
(280.686 0 0)
(281.369 0 0)
(282.043 0 0)
(282.696 0 0)
(283.364 0 0)
(283.939 0 0)
(284.753 0 0)
(197.374 0 0)
(199.115 0 0)
(200.832 0 0)
(202.526 0 0)
(204.197 0 0)
(205.845 0 0)
(207.472 0 0)
(209.077 0 0)
(210.661 0 0)
(212.226 0 0)
(213.769 0 0)
(215.294 0 0)
(216.799 0 0)
(218.285 0 0)
(219.753 0 0)
(221.202 0 0)
(222.633 0 0)
(224.047 0 0)
(225.444 0 0)
(226.823 0 0)
(228.186 0 0)
(229.532 0 0)
(230.862 0 0)
(232.176 0 0)
(233.474 0 0)
(234.756 0 0)
(236.023 0 0)
(237.275 0 0)
(238.512 0 0)
(239.734 0 0)
(240.941 0 0)
(242.134 0 0)
(243.313 0 0)
(244.477 0 0)
(245.628 0 0)
(246.764 0 0)
(247.887 0 0)
(248.996 0 0)
(250.092 0 0)
(251.175 0 0)
(252.244 0 0)
(253.3 0 0)
(254.343 0 0)
(255.374 0 0)
(256.391 0 0)
(257.396 0 0)
(258.388 0 0)
(259.368 0 0)
(260.335 0 0)
(261.29 0 0)
(262.233 0 0)
(263.163 0 0)
(264.081 0 0)
(264.988 0 0)
(265.882 0 0)
(266.764 0 0)
(267.635 0 0)
(268.494 0 0)
(269.34 0 0)
(270.176 0 0)
(270.999 0 0)
(271.811 0 0)
(272.611 0 0)
(273.4 0 0)
(274.177 0 0)
(274.943 0 0)
(275.697 0 0)
(276.44 0 0)
(277.171 0 0)
(277.892 0 0)
(278.6 0 0)
(279.298 0 0)
(279.984 0 0)
(280.658 0 0)
(281.323 0 0)
(281.969 0 0)
(282.629 0 0)
(283.198 0 0)
(284.004 0 0)
(199.378 0 0)
(201.039 0 0)
(202.677 0 0)
(204.294 0 0)
(205.89 0 0)
(207.466 0 0)
(209.022 0 0)
(210.558 0 0)
(212.076 0 0)
(213.575 0 0)
(215.055 0 0)
(216.517 0 0)
(217.962 0 0)
(219.389 0 0)
(220.799 0 0)
(222.192 0 0)
(223.569 0 0)
(224.929 0 0)
(226.274 0 0)
(227.602 0 0)
(228.915 0 0)
(230.213 0 0)
(231.495 0 0)
(232.763 0 0)
(234.015 0 0)
(235.254 0 0)
(236.478 0 0)
(237.687 0 0)
(238.883 0 0)
(240.064 0 0)
(241.233 0 0)
(242.387 0 0)
(243.528 0 0)
(244.656 0 0)
(245.77 0 0)
(246.872 0 0)
(247.961 0 0)
(249.037 0 0)
(250.1 0 0)
(251.151 0 0)
(252.189 0 0)
(253.215 0 0)
(254.229 0 0)
(255.23 0 0)
(256.219 0 0)
(257.197 0 0)
(258.162 0 0)
(259.116 0 0)
(260.058 0 0)
(260.988 0 0)
(261.907 0 0)
(262.814 0 0)
(263.71 0 0)
(264.594 0 0)
(265.467 0 0)
(266.329 0 0)
(267.179 0 0)
(268.019 0 0)
(268.847 0 0)
(269.664 0 0)
(270.47 0 0)
(271.264 0 0)
(272.048 0 0)
(272.821 0 0)
(273.583 0 0)
(274.335 0 0)
(275.075 0 0)
(275.805 0 0)
(276.523 0 0)
(277.231 0 0)
(277.929 0 0)
(278.615 0 0)
(279.291 0 0)
(279.956 0 0)
(280.612 0 0)
(281.25 0 0)
(281.902 0 0)
(282.465 0 0)
(283.262 0 0)
(201.291 0 0)
(202.875 0 0)
(204.439 0 0)
(205.984 0 0)
(207.51 0 0)
(209.017 0 0)
(210.507 0 0)
(211.978 0 0)
(213.432 0 0)
(214.869 0 0)
(216.289 0 0)
(217.692 0 0)
(219.079 0 0)
(220.45 0 0)
(221.805 0 0)
(223.145 0 0)
(224.469 0 0)
(225.779 0 0)
(227.073 0 0)
(228.353 0 0)
(229.618 0 0)
(230.869 0 0)
(232.106 0 0)
(233.329 0 0)
(234.538 0 0)
(235.734 0 0)
(236.916 0 0)
(238.085 0 0)
(239.241 0 0)
(240.384 0 0)
(241.514 0 0)
(242.632 0 0)
(243.736 0 0)
(244.829 0 0)
(245.909 0 0)
(246.977 0 0)
(248.032 0 0)
(249.076 0 0)
(250.108 0 0)
(251.127 0 0)
(252.136 0 0)
(253.132 0 0)
(254.117 0 0)
(255.091 0 0)
(256.053 0 0)
(257.003 0 0)
(257.943 0 0)
(258.871 0 0)
(259.789 0 0)
(260.695 0 0)
(261.59 0 0)
(262.474 0 0)
(263.348 0 0)
(264.211 0 0)
(265.062 0 0)
(265.904 0 0)
(266.734 0 0)
(267.554 0 0)
(268.364 0 0)
(269.163 0 0)
(269.951 0 0)
(270.729 0 0)
(271.497 0 0)
(272.254 0 0)
(273.001 0 0)
(273.738 0 0)
(274.464 0 0)
(275.18 0 0)
(275.886 0 0)
(276.582 0 0)
(277.267 0 0)
(277.943 0 0)
(278.608 0 0)
(279.263 0 0)
(279.91 0 0)
(280.538 0 0)
(281.182 0 0)
(281.738 0 0)
(282.526 0 0)
(203.118 0 0)
(204.63 0 0)
(206.125 0 0)
(207.601 0 0)
(209.061 0 0)
(210.503 0 0)
(211.929 0 0)
(213.339 0 0)
(214.732 0 0)
(216.11 0 0)
(217.473 0 0)
(218.82 0 0)
(220.152 0 0)
(221.47 0 0)
(222.773 0 0)
(224.061 0 0)
(225.336 0 0)
(226.596 0 0)
(227.843 0 0)
(229.076 0 0)
(230.296 0 0)
(231.502 0 0)
(232.695 0 0)
(233.875 0 0)
(235.043 0 0)
(236.198 0 0)
(237.34 0 0)
(238.47 0 0)
(239.588 0 0)
(240.693 0 0)
(241.787 0 0)
(242.869 0 0)
(243.938 0 0)
(244.996 0 0)
(246.043 0 0)
(247.078 0 0)
(248.102 0 0)
(249.114 0 0)
(250.115 0 0)
(251.105 0 0)
(252.084 0 0)
(253.052 0 0)
(254.009 0 0)
(254.955 0 0)
(255.891 0 0)
(256.815 0 0)
(257.729 0 0)
(258.633 0 0)
(259.526 0 0)
(260.409 0 0)
(261.281 0 0)
(262.143 0 0)
(262.995 0 0)
(263.836 0 0)
(264.667 0 0)
(265.489 0 0)
(266.3 0 0)
(267.101 0 0)
(267.892 0 0)
(268.673 0 0)
(269.444 0 0)
(270.205 0 0)
(270.956 0 0)
(271.698 0 0)
(272.43 0 0)
(273.152 0 0)
(273.864 0 0)
(274.567 0 0)
(275.26 0 0)
(275.943 0 0)
(276.617 0 0)
(277.281 0 0)
(277.935 0 0)
(278.579 0 0)
(279.217 0 0)
(279.836 0 0)
(280.471 0 0)
(281.02 0 0)
(281.798 0 0)
(204.864 0 0)
(206.309 0 0)
(207.737 0 0)
(209.149 0 0)
(210.545 0 0)
(211.927 0 0)
(213.293 0 0)
(214.644 0 0)
(215.98 0 0)
(217.302 0 0)
(218.61 0 0)
(219.904 0 0)
(221.184 0 0)
(222.45 0 0)
(223.703 0 0)
(224.943 0 0)
(226.17 0 0)
(227.384 0 0)
(228.585 0 0)
(229.773 0 0)
(230.949 0 0)
(232.112 0 0)
(233.264 0 0)
(234.403 0 0)
(235.53 0 0)
(236.646 0 0)
(237.75 0 0)
(238.842 0 0)
(239.923 0 0)
(240.992 0 0)
(242.051 0 0)
(243.098 0 0)
(244.134 0 0)
(245.159 0 0)
(246.173 0 0)
(247.176 0 0)
(248.169 0 0)
(249.151 0 0)
(250.122 0 0)
(251.083 0 0)
(252.034 0 0)
(252.974 0 0)
(253.904 0 0)
(254.823 0 0)
(255.733 0 0)
(256.632 0 0)
(257.522 0 0)
(258.401 0 0)
(259.271 0 0)
(260.13 0 0)
(260.98 0 0)
(261.82 0 0)
(262.65 0 0)
(263.471 0 0)
(264.282 0 0)
(265.083 0 0)
(265.875 0 0)
(266.657 0 0)
(267.43 0 0)
(268.194 0 0)
(268.948 0 0)
(269.692 0 0)
(270.427 0 0)
(271.153 0 0)
(271.87 0 0)
(272.578 0 0)
(273.276 0 0)
(273.965 0 0)
(274.645 0 0)
(275.315 0 0)
(275.977 0 0)
(276.629 0 0)
(277.273 0 0)
(277.906 0 0)
(278.534 0 0)
(279.144 0 0)
(279.769 0 0)
(280.31 0 0)
(281.077 0 0)
(206.534 0 0)
(207.914 0 0)
(209.28 0 0)
(210.631 0 0)
(211.968 0 0)
(213.291 0 0)
(214.6 0 0)
(215.896 0 0)
(217.178 0 0)
(218.447 0 0)
(219.703 0 0)
(220.946 0 0)
(222.176 0 0)
(223.394 0 0)
(224.599 0 0)
(225.792 0 0)
(226.973 0 0)
(228.142 0 0)
(229.299 0 0)
(230.445 0 0)
(231.579 0 0)
(232.701 0 0)
(233.812 0 0)
(234.912 0 0)
(236.001 0 0)
(237.079 0 0)
(238.146 0 0)
(239.202 0 0)
(240.247 0 0)
(241.282 0 0)
(242.306 0 0)
(243.32 0 0)
(244.323 0 0)
(245.316 0 0)
(246.299 0 0)
(247.271 0 0)
(248.234 0 0)
(249.187 0 0)
(250.129 0 0)
(251.062 0 0)
(251.985 0 0)
(252.898 0 0)
(253.802 0 0)
(254.696 0 0)
(255.58 0 0)
(256.454 0 0)
(257.32 0 0)
(258.176 0 0)
(259.022 0 0)
(259.859 0 0)
(260.687 0 0)
(261.505 0 0)
(262.315 0 0)
(263.115 0 0)
(263.906 0 0)
(264.688 0 0)
(265.461 0 0)
(266.225 0 0)
(266.979 0 0)
(267.725 0 0)
(268.462 0 0)
(269.19 0 0)
(269.91 0 0)
(270.62 0 0)
(271.322 0 0)
(272.015 0 0)
(272.699 0 0)
(273.374 0 0)
(274.041 0 0)
(274.699 0 0)
(275.348 0 0)
(275.989 0 0)
(276.621 0 0)
(277.244 0 0)
(277.861 0 0)
(278.461 0 0)
(279.077 0 0)
(279.61 0 0)
(280.365 0 0)
(208.131 0 0)
(209.451 0 0)
(210.758 0 0)
(212.052 0 0)
(213.332 0 0)
(214.6 0 0)
(215.855 0 0)
(217.098 0 0)
(218.328 0 0)
(219.546 0 0)
(220.753 0 0)
(221.947 0 0)
(223.13 0 0)
(224.301 0 0)
(225.461 0 0)
(226.609 0 0)
(227.747 0 0)
(228.873 0 0)
(229.988 0 0)
(231.093 0 0)
(232.186 0 0)
(233.269 0 0)
(234.342 0 0)
(235.404 0 0)
(236.456 0 0)
(237.497 0 0)
(238.528 0 0)
(239.549 0 0)
(240.561 0 0)
(241.562 0 0)
(242.553 0 0)
(243.535 0 0)
(244.506 0 0)
(245.468 0 0)
(246.421 0 0)
(247.364 0 0)
(248.297 0 0)
(249.221 0 0)
(250.136 0 0)
(251.042 0 0)
(251.938 0 0)
(252.825 0 0)
(253.703 0 0)
(254.571 0 0)
(255.431 0 0)
(256.282 0 0)
(257.123 0 0)
(257.956 0 0)
(258.78 0 0)
(259.595 0 0)
(260.401 0 0)
(261.199 0 0)
(261.988 0 0)
(262.768 0 0)
(263.539 0 0)
(264.302 0 0)
(265.056 0 0)
(265.802 0 0)
(266.539 0 0)
(267.268 0 0)
(267.988 0 0)
(268.7 0 0)
(269.403 0 0)
(270.098 0 0)
(270.785 0 0)
(271.463 0 0)
(272.133 0 0)
(272.795 0 0)
(273.448 0 0)
(274.093 0 0)
(274.73 0 0)
(275.359 0 0)
(275.98 0 0)
(276.592 0 0)
(277.198 0 0)
(277.789 0 0)
(278.395 0 0)
(278.92 0 0)
(279.663 0 0)
(209.66 0 0)
(210.923 0 0)
(212.174 0 0)
(213.413 0 0)
(214.64 0 0)
(215.855 0 0)
(217.059 0 0)
(218.252 0 0)
(219.433 0 0)
(220.603 0 0)
(221.762 0 0)
(222.91 0 0)
(224.048 0 0)
(225.175 0 0)
(226.291 0 0)
(227.397 0 0)
(228.492 0 0)
(229.577 0 0)
(230.652 0 0)
(231.717 0 0)
(232.773 0 0)
(233.818 0 0)
(234.853 0 0)
(235.879 0 0)
(236.895 0 0)
(237.901 0 0)
(238.898 0 0)
(239.886 0 0)
(240.864 0 0)
(241.833 0 0)
(242.792 0 0)
(243.742 0 0)
(244.684 0 0)
(245.616 0 0)
(246.539 0 0)
(247.453 0 0)
(248.359 0 0)
(249.255 0 0)
(250.143 0 0)
(251.022 0 0)
(251.892 0 0)
(252.753 0 0)
(253.606 0 0)
(254.451 0 0)
(255.286 0 0)
(256.113 0 0)
(256.932 0 0)
(257.743 0 0)
(258.544 0 0)
(259.338 0 0)
(260.123 0 0)
(260.9 0 0)
(261.669 0 0)
(262.429 0 0)
(263.181 0 0)
(263.926 0 0)
(264.661 0 0)
(265.389 0 0)
(266.109 0 0)
(266.821 0 0)
(267.524 0 0)
(268.22 0 0)
(268.907 0 0)
(269.587 0 0)
(270.259 0 0)
(270.923 0 0)
(271.579 0 0)
(272.227 0 0)
(272.867 0 0)
(273.5 0 0)
(274.124 0 0)
(274.741 0 0)
(275.35 0 0)
(275.951 0 0)
(276.546 0 0)
(277.127 0 0)
(277.722 0 0)
(278.239 0 0)
(278.97 0 0)
(211.125 0 0)
(212.334 0 0)
(213.532 0 0)
(214.719 0 0)
(215.895 0 0)
(217.06 0 0)
(218.216 0 0)
(219.36 0 0)
(220.494 0 0)
(221.619 0 0)
(222.733 0 0)
(223.837 0 0)
(224.931 0 0)
(226.015 0 0)
(227.09 0 0)
(228.155 0 0)
(229.21 0 0)
(230.256 0 0)
(231.293 0 0)
(232.32 0 0)
(233.338 0 0)
(234.347 0 0)
(235.347 0 0)
(236.337 0 0)
(237.319 0 0)
(238.292 0 0)
(239.256 0 0)
(240.211 0 0)
(241.157 0 0)
(242.095 0 0)
(243.024 0 0)
(243.944 0 0)
(244.856 0 0)
(245.759 0 0)
(246.654 0 0)
(247.54 0 0)
(248.418 0 0)
(249.288 0 0)
(250.149 0 0)
(251.002 0 0)
(251.847 0 0)
(252.684 0 0)
(253.513 0 0)
(254.333 0 0)
(255.146 0 0)
(255.95 0 0)
(256.746 0 0)
(257.535 0 0)
(258.315 0 0)
(259.088 0 0)
(259.852 0 0)
(260.609 0 0)
(261.358 0 0)
(262.099 0 0)
(262.833 0 0)
(263.558 0 0)
(264.276 0 0)
(264.987 0 0)
(265.689 0 0)
(266.384 0 0)
(267.071 0 0)
(267.751 0 0)
(268.423 0 0)
(269.087 0 0)
(269.744 0 0)
(270.394 0 0)
(271.036 0 0)
(271.67 0 0)
(272.297 0 0)
(272.917 0 0)
(273.529 0 0)
(274.134 0 0)
(274.732 0 0)
(275.321 0 0)
(275.906 0 0)
(276.476 0 0)
(277.061 0 0)
(277.569 0 0)
(278.287 0 0)
(212.528 0 0)
(213.686 0 0)
(214.834 0 0)
(215.971 0 0)
(217.099 0 0)
(218.218 0 0)
(219.326 0 0)
(220.425 0 0)
(221.515 0 0)
(222.595 0 0)
(223.666 0 0)
(224.728 0 0)
(225.781 0 0)
(226.825 0 0)
(227.86 0 0)
(228.886 0 0)
(229.903 0 0)
(230.911 0 0)
(231.911 0 0)
(232.902 0 0)
(233.884 0 0)
(234.858 0 0)
(235.823 0 0)
(236.78 0 0)
(237.729 0 0)
(238.669 0 0)
(239.601 0 0)
(240.525 0 0)
(241.441 0 0)
(242.348 0 0)
(243.248 0 0)
(244.139 0 0)
(245.022 0 0)
(245.898 0 0)
(246.765 0 0)
(247.624 0 0)
(248.476 0 0)
(249.32 0 0)
(250.156 0 0)
(250.984 0 0)
(251.804 0 0)
(252.617 0 0)
(253.422 0 0)
(254.219 0 0)
(255.009 0 0)
(255.791 0 0)
(256.566 0 0)
(257.333 0 0)
(258.092 0 0)
(258.844 0 0)
(259.589 0 0)
(260.326 0 0)
(261.056 0 0)
(261.778 0 0)
(262.493 0 0)
(263.2 0 0)
(263.901 0 0)
(264.594 0 0)
(265.279 0 0)
(265.958 0 0)
(266.629 0 0)
(267.293 0 0)
(267.949 0 0)
(268.599 0 0)
(269.241 0 0)
(269.876 0 0)
(270.504 0 0)
(271.125 0 0)
(271.739 0 0)
(272.346 0 0)
(272.946 0 0)
(273.538 0 0)
(274.124 0 0)
(274.702 0 0)
(275.276 0 0)
(275.835 0 0)
(276.41 0 0)
(276.909 0 0)
(277.614 0 0)
(213.874 0 0)
(214.983 0 0)
(216.083 0 0)
(217.174 0 0)
(218.256 0 0)
(219.329 0 0)
(220.393 0 0)
(221.449 0 0)
(222.496 0 0)
(223.535 0 0)
(224.565 0 0)
(225.586 0 0)
(226.599 0 0)
(227.604 0 0)
(228.601 0 0)
(229.59 0 0)
(230.57 0 0)
(231.542 0 0)
(232.506 0 0)
(233.463 0 0)
(234.411 0 0)
(235.351 0 0)
(236.284 0 0)
(237.208 0 0)
(238.125 0 0)
(239.034 0 0)
(239.935 0 0)
(240.829 0 0)
(241.715 0 0)
(242.594 0 0)
(243.464 0 0)
(244.328 0 0)
(245.183 0 0)
(246.032 0 0)
(246.873 0 0)
(247.706 0 0)
(248.532 0 0)
(249.351 0 0)
(250.162 0 0)
(250.966 0 0)
(251.762 0 0)
(252.552 0 0)
(253.334 0 0)
(254.109 0 0)
(254.876 0 0)
(255.637 0 0)
(256.39 0 0)
(257.136 0 0)
(257.875 0 0)
(258.607 0 0)
(259.332 0 0)
(260.05 0 0)
(260.761 0 0)
(261.465 0 0)
(262.162 0 0)
(262.851 0 0)
(263.534 0 0)
(264.21 0 0)
(264.879 0 0)
(265.541 0 0)
(266.196 0 0)
(266.845 0 0)
(267.486 0 0)
(268.121 0 0)
(268.749 0 0)
(269.37 0 0)
(269.984 0 0)
(270.592 0 0)
(271.192 0 0)
(271.786 0 0)
(272.374 0 0)
(272.954 0 0)
(273.528 0 0)
(274.095 0 0)
(274.657 0 0)
(275.206 0 0)
(275.77 0 0)
(276.26 0 0)
(276.952 0 0)
(215.164 0 0)
(216.227 0 0)
(217.282 0 0)
(218.328 0 0)
(219.366 0 0)
(220.397 0 0)
(221.419 0 0)
(222.433 0 0)
(223.44 0 0)
(224.438 0 0)
(225.429 0 0)
(226.412 0 0)
(227.388 0 0)
(228.356 0 0)
(229.316 0 0)
(230.268 0 0)
(231.213 0 0)
(232.151 0 0)
(233.081 0 0)
(234.004 0 0)
(234.919 0 0)
(235.828 0 0)
(236.728 0 0)
(237.622 0 0)
(238.508 0 0)
(239.387 0 0)
(240.259 0 0)
(241.123 0 0)
(241.981 0 0)
(242.831 0 0)
(243.674 0 0)
(244.511 0 0)
(245.34 0 0)
(246.162 0 0)
(246.977 0 0)
(247.785 0 0)
(248.586 0 0)
(249.38 0 0)
(250.168 0 0)
(250.948 0 0)
(251.722 0 0)
(252.488 0 0)
(253.248 0 0)
(254.001 0 0)
(254.747 0 0)
(255.487 0 0)
(256.22 0 0)
(256.945 0 0)
(257.665 0 0)
(258.377 0 0)
(259.083 0 0)
(259.782 0 0)
(260.474 0 0)
(261.16 0 0)
(261.839 0 0)
(262.511 0 0)
(263.177 0 0)
(263.836 0 0)
(264.489 0 0)
(265.135 0 0)
(265.774 0 0)
(266.407 0 0)
(267.034 0 0)
(267.654 0 0)
(268.267 0 0)
(268.874 0 0)
(269.475 0 0)
(270.069 0 0)
(270.657 0 0)
(271.238 0 0)
(271.813 0 0)
(272.382 0 0)
(272.944 0 0)
(273.499 0 0)
(274.05 0 0)
(274.589 0 0)
(275.141 0 0)
(275.623 0 0)
(276.301 0 0)
(216.402 0 0)
(217.422 0 0)
(218.433 0 0)
(219.437 0 0)
(220.434 0 0)
(221.423 0 0)
(222.405 0 0)
(223.38 0 0)
(224.348 0 0)
(225.308 0 0)
(226.261 0 0)
(227.208 0 0)
(228.147 0 0)
(229.079 0 0)
(230.004 0 0)
(230.923 0 0)
(231.834 0 0)
(232.738 0 0)
(233.636 0 0)
(234.527 0 0)
(235.41 0 0)
(236.288 0 0)
(237.158 0 0)
(238.021 0 0)
(238.878 0 0)
(239.728 0 0)
(240.571 0 0)
(241.408 0 0)
(242.238 0 0)
(243.061 0 0)
(243.878 0 0)
(244.688 0 0)
(245.491 0 0)
(246.288 0 0)
(247.078 0 0)
(247.862 0 0)
(248.639 0 0)
(249.41 0 0)
(250.174 0 0)
(250.931 0 0)
(251.682 0 0)
(252.427 0 0)
(253.165 0 0)
(253.897 0 0)
(254.622 0 0)
(255.341 0 0)
(256.054 0 0)
(256.76 0 0)
(257.459 0 0)
(258.153 0 0)
(258.84 0 0)
(259.52 0 0)
(260.195 0 0)
(260.863 0 0)
(261.524 0 0)
(262.18 0 0)
(262.829 0 0)
(263.472 0 0)
(264.108 0 0)
(264.738 0 0)
(265.363 0 0)
(265.98 0 0)
(266.592 0 0)
(267.198 0 0)
(267.797 0 0)
(268.39 0 0)
(268.977 0 0)
(269.558 0 0)
(270.133 0 0)
(270.701 0 0)
(271.264 0 0)
(271.82 0 0)
(272.371 0 0)
(272.915 0 0)
(273.455 0 0)
(273.982 0 0)
(274.524 0 0)
(274.996 0 0)
(275.66 0 0)
(217.591 0 0)
(218.569 0 0)
(219.539 0 0)
(220.503 0 0)
(221.46 0 0)
(222.41 0 0)
(223.354 0 0)
(224.291 0 0)
(225.221 0 0)
(226.145 0 0)
(227.063 0 0)
(227.974 0 0)
(228.879 0 0)
(229.777 0 0)
(230.668 0 0)
(231.554 0 0)
(232.433 0 0)
(233.305 0 0)
(234.171 0 0)
(235.031 0 0)
(235.885 0 0)
(236.732 0 0)
(237.573 0 0)
(238.407 0 0)
(239.236 0 0)
(240.058 0 0)
(240.874 0 0)
(241.683 0 0)
(242.486 0 0)
(243.284 0 0)
(244.074 0 0)
(244.859 0 0)
(245.638 0 0)
(246.41 0 0)
(247.176 0 0)
(247.936 0 0)
(248.69 0 0)
(249.438 0 0)
(250.179 0 0)
(250.915 0 0)
(251.644 0 0)
(252.367 0 0)
(253.085 0 0)
(253.796 0 0)
(254.501 0 0)
(255.199 0 0)
(255.892 0 0)
(256.579 0 0)
(257.26 0 0)
(257.935 0 0)
(258.603 0 0)
(259.266 0 0)
(259.922 0 0)
(260.573 0 0)
(261.218 0 0)
(261.856 0 0)
(262.489 0 0)
(263.116 0 0)
(263.737 0 0)
(264.352 0 0)
(264.961 0 0)
(265.564 0 0)
(266.161 0 0)
(266.752 0 0)
(267.337 0 0)
(267.917 0 0)
(268.49 0 0)
(269.058 0 0)
(269.62 0 0)
(270.176 0 0)
(270.726 0 0)
(271.271 0 0)
(271.81 0 0)
(272.342 0 0)
(272.871 0 0)
(273.387 0 0)
(273.918 0 0)
(274.381 0 0)
(275.032 0 0)
(218.732 0 0)
(219.67 0 0)
(220.601 0 0)
(221.527 0 0)
(222.446 0 0)
(223.359 0 0)
(224.266 0 0)
(225.167 0 0)
(226.062 0 0)
(226.952 0 0)
(227.835 0 0)
(228.712 0 0)
(229.584 0 0)
(230.449 0 0)
(231.309 0 0)
(232.162 0 0)
(233.01 0 0)
(233.852 0 0)
(234.688 0 0)
(235.518 0 0)
(236.343 0 0)
(237.161 0 0)
(237.974 0 0)
(238.781 0 0)
(239.581 0 0)
(240.377 0 0)
(241.166 0 0)
(241.949 0 0)
(242.727 0 0)
(243.499 0 0)
(244.265 0 0)
(245.025 0 0)
(245.78 0 0)
(246.528 0 0)
(247.271 0 0)
(248.008 0 0)
(248.74 0 0)
(249.465 0 0)
(250.185 0 0)
(250.899 0 0)
(251.607 0 0)
(252.31 0 0)
(253.006 0 0)
(253.697 0 0)
(254.382 0 0)
(255.062 0 0)
(255.736 0 0)
(256.404 0 0)
(257.066 0 0)
(257.722 0 0)
(258.373 0 0)
(259.018 0 0)
(259.658 0 0)
(260.291 0 0)
(260.919 0 0)
(261.542 0 0)
(262.158 0 0)
(262.769 0 0)
(263.375 0 0)
(263.974 0 0)
(264.568 0 0)
(265.157 0 0)
(265.739 0 0)
(266.317 0 0)
(266.888 0 0)
(267.454 0 0)
(268.014 0 0)
(268.569 0 0)
(269.118 0 0)
(269.662 0 0)
(270.2 0 0)
(270.732 0 0)
(271.26 0 0)
(271.781 0 0)
(272.298 0 0)
(272.804 0 0)
(273.324 0 0)
(273.778 0 0)
(274.414 0 0)
(219.829 0 0)
(220.729 0 0)
(221.623 0 0)
(222.511 0 0)
(223.394 0 0)
(224.272 0 0)
(225.144 0 0)
(226.011 0 0)
(226.872 0 0)
(227.728 0 0)
(228.578 0 0)
(229.424 0 0)
(230.263 0 0)
(231.097 0 0)
(231.926 0 0)
(232.749 0 0)
(233.567 0 0)
(234.38 0 0)
(235.187 0 0)
(235.989 0 0)
(236.785 0 0)
(237.576 0 0)
(238.361 0 0)
(239.141 0 0)
(239.916 0 0)
(240.685 0 0)
(241.449 0 0)
(242.207 0 0)
(242.96 0 0)
(243.707 0 0)
(244.45 0 0)
(245.186 0 0)
(245.917 0 0)
(246.643 0 0)
(247.363 0 0)
(248.078 0 0)
(248.788 0 0)
(249.492 0 0)
(250.19 0 0)
(250.883 0 0)