/*--------------------------------*- C++ -*----------------------------------*\
| =========                 |                                                 |
| \\      /  F ield         | OpenFOAM: The Open Source CFD Toolbox           |
|  \\    /   O peration     | Version:  2312                                  |
|   \\  /    A nd           | Website:  www.openfoam.com                      |
|    \\/     M anipulation  |                                                 |
\*---------------------------------------------------------------------------*/
FoamFile
{
    version     2.0;
    format      ascii;
    arch        "LSB;label=32;scalar=64";
    class       volVectorField;
    location    "0.301";
    object      U;
}
// * * * * * * * * * * * * * * * * * * * * * * * * * * * * * * * * * * * * * //

dimensions      [0 1 -1 0 0 0 0];

internalField   nonuniform List<vector> 
31205
(
(298.445 0 0)
(298.075 0 0)
(297.667 0 0)
(297.22 0 0)
(296.734 0 0)
(296.208 0 0)
(295.641 0 0)
(295.034 0 0)
(294.385 0 0)
(293.694 0 0)
(292.959 0 0)
(292.181 0 0)
(291.357 0 0)
(290.488 0 0)
(289.571 0 0)
(288.607 0 0)
(287.592 0 0)
(286.526 0 0)
(285.407 0 0)
(284.234 0 0)
(283.004 0 0)
(281.716 0 0)
(280.366 0 0)
(278.953 0 0)
(277.473 0 0)
(275.923 0 0)
(274.3 0 0)
(272.599 0 0)
(270.817 0 0)
(268.948 0 0)
(266.986 0 0)
(264.924 0 0)
(262.756 0 0)
(260.471 0 0)
(258.061 0 0)
(255.512 0 0)
(252.811 0 0)
(249.938 0 0)
(246.872 0 0)
(243.586 0 0)
(240.046 0 0)
(236.192 0 0)
(231.943 0 0)
(227.266 0 0)
(222.206 0 0)
(216.352 0 0)
(207.477 0 0)
(191.599 0 0)
(167.891 0 0)
(142.876 0 0)
(124.21 0 0)
(113.487 0 0)
(108.233 0 0)
(105.91 0 0)
(105.036 0 0)
(104.884 0 0)
(105.117 0 0)
(105.571 0 0)
(106.164 0 0)
(106.852 0 0)
(107.606 0 0)
(108.411 0 0)
(109.255 0 0)
(110.13 0 0)
(111.03 0 0)
(111.95 0 0)
(112.888 0 0)
(113.84 0 0)
(114.803 0 0)
(115.777 0 0)
(116.76 0 0)
(117.749 0 0)
(118.745 0 0)
(119.744 0 0)
(120.753 0 0)
(121.75 0 0)
(122.799 0 0)
(123.7 0 0)
(125.063 0 0)
(298.05 0 0)
(297.653 0 0)
(297.219 0 0)
(296.748 0 0)
(296.24 0 0)
(295.694 0 0)
(295.109 0 0)
(294.485 0 0)
(293.822 0 0)
(293.118 0 0)
(292.373 0 0)
(291.586 0 0)
(290.755 0 0)
(289.881 0 0)
(288.961 0 0)
(287.996 0 0)
(286.982 0 0)
(285.92 0 0)
(284.806 0 0)
(283.641 0 0)
(282.421 0 0)
(281.145 0 0)
(279.81 0 0)
(278.414 0 0)
(276.955 0 0)
(275.428 0 0)
(273.832 0 0)
(272.161 0 0)
(270.412 0 0)
(268.58 0 0)
(266.66 0 0)
(264.645 0 0)
(262.528 0 0)
(260.302 0 0)
(257.956 0 0)
(255.479 0 0)
(252.858 0 0)
(250.076 0 0)
(247.114 0 0)
(243.946 0 0)
(240.544 0 0)
(236.859 0 0)
(232.816 0 0)
(228.354 0 0)
(223.507 0 0)
(218.161 0 0)
(210.94 0 0)
(198.257 0 0)
(177.289 0 0)
(151.844 0 0)
(130.292 0 0)
(116.751 0 0)
(109.748 0 0)
(106.513 0 0)
(105.173 0 0)
(104.768 0 0)
(104.847 0 0)
(105.196 0 0)
(105.709 0 0)
(106.33 0 0)
(107.026 0 0)
(107.778 0 0)
(108.574 0 0)
(109.403 0 0)
(110.259 0 0)
(111.137 0 0)
(112.034 0 0)
(112.946 0 0)
(113.872 0 0)
(114.808 0 0)
(115.753 0 0)
(116.706 0 0)
(117.666 0 0)
(118.631 0 0)
(119.605 0 0)
(120.568 0 0)
(121.581 0 0)
(122.453 0 0)
(123.768 0 0)
(297.602 0 0)
(297.179 0 0)
(296.72 0 0)
(296.226 0 0)
(295.697 0 0)
(295.131 0 0)
(294.529 0 0)
(293.889 0 0)
(293.212 0 0)
(292.495 0 0)
(291.739 0 0)
(290.943 0 0)
(290.106 0 0)
(289.226 0 0)
(288.303 0 0)
(287.336 0 0)
(286.323 0 0)
(285.262 0 0)
(284.154 0 0)
(282.994 0 0)
(281.783 0 0)
(280.518 0 0)
(279.197 0 0)
(277.817 0 0)
(276.375 0 0)
(274.87 0 0)
(273.297 0 0)
(271.654 0 0)
(269.935 0 0)
(268.138 0 0)
(266.255 0 0)
(264.282 0 0)
(262.213 0 0)
(260.038 0 0)
(257.75 0 0)
(255.338 0 0)
(252.79 0 0)
(250.09 0 0)
(247.221 0 0)
(244.159 0 0)
(240.878 0 0)
(237.339 0 0)
(233.477 0 0)
(229.218 0 0)
(224.562 0 0)
(219.523 0 0)
(213.346 0 0)
(203.202 0 0)
(185.332 0 0)
(160.751 0 0)
(137.101 0 0)
(120.704 0 0)
(111.686 0 0)
(107.35 0 0)
(105.448 0 0)
(104.747 0 0)
(104.652 0 0)
(104.887 0 0)
(105.315 0 0)
(105.867 0 0)
(106.505 0 0)
(107.204 0 0)
(107.951 0 0)
(108.734 0 0)
(109.547 0 0)
(110.384 0 0)
(111.24 0 0)
(112.113 0 0)
(113 0 0)
(113.899 0 0)
(114.808 0 0)
(115.725 0 0)
(116.65 0 0)
(117.58 0 0)
(118.519 0 0)
(119.449 0 0)
(120.427 0 0)
(121.272 0 0)
(122.538 0 0)
(297.116 0 0)
(296.667 0 0)
(296.186 0 0)
(295.671 0 0)
(295.122 0 0)
(294.538 0 0)
(293.92 0 0)
(293.265 0 0)
(292.574 0 0)
(291.847 0 0)
(291.081 0 0)
(290.277 0 0)
(289.433 0 0)
(288.548 0 0)
(287.623 0 0)
(286.654 0 0)
(285.641 0 0)
(284.584 0 0)
(283.479 0 0)
(282.327 0 0)
(281.124 0 0)
(279.869 0 0)
(278.56 0 0)
(277.195 0 0)
(275.772 0 0)
(274.286 0 0)
(272.737 0 0)
(271.119 0 0)
(269.429 0 0)
(267.663 0 0)
(265.817 0 0)
(263.884 0 0)
(261.858 0 0)
(259.733 0 0)
(257.499 0 0)
(255.148 0 0)
(252.668 0 0)
(250.044 0 0)
(247.261 0 0)
(244.297 0 0)
(241.127 0 0)
(237.72 0 0)
(234.02 0 0)
(229.952 0 0)
(225.484 0 0)
(220.662 0 0)
(215.145 0 0)
(206.915 0 0)
(192.109 0 0)
(169.401 0 0)
(144.594 0 0)
(125.452 0 0)
(114.147 0 0)
(108.474 0 0)
(105.884 0 0)
(104.825 0 0)
(104.53 0 0)
(104.638 0 0)
(104.975 0 0)
(105.457 0 0)
(106.034 0 0)
(106.681 0 0)
(107.378 0 0)
(108.116 0 0)
(108.886 0 0)
(109.681 0 0)
(110.498 0 0)
(111.333 0 0)
(112.182 0 0)
(113.045 0 0)
(113.918 0 0)
(114.799 0 0)
(115.69 0 0)
(116.585 0 0)
(117.491 0 0)
(118.388 0 0)
(119.332 0 0)
(120.149 0 0)
(121.369 0 0)
(296.598 0 0)
(296.127 0 0)
(295.625 0 0)
(295.091 0 0)
(294.524 0 0)
(293.925 0 0)
(293.291 0 0)
(292.624 0 0)
(291.921 0 0)
(291.184 0 0)
(290.409 0 0)
(289.598 0 0)
(288.749 0 0)
(287.861 0 0)
(286.933 0 0)
(285.965 0 0)
(284.954 0 0)
(283.899 0 0)
(282.8 0 0)
(281.654 0 0)
(280.46 0 0)
(279.216 0 0)
(277.92 0 0)
(276.57 0 0)
(275.164 0 0)
(273.699 0 0)
(272.172 0 0)
(270.579 0 0)
(268.918 0 0)
(267.183 0 0)
(265.372 0 0)
(263.477 0 0)
(261.495 0 0)
(259.417 0 0)
(257.236 0 0)
(254.943 0 0)
(252.528 0 0)
(249.977 0 0)
(247.275 0 0)
(244.404 0 0)
(241.341 0 0)
(238.056 0 0)
(234.505 0 0)
(230.619 0 0)
(226.34 0 0)
(221.704 0 0)
(216.61 0 0)
(209.78 0 0)
(197.788 0 0)
(177.696 0 0)
(152.787 0 0)
(131.182 0 0)
(117.305 0 0)
(109.986 0 0)
(106.524 0 0)
(105.019 0 0)
(104.483 0 0)
(104.445 0 0)
(104.683 0 0)
(105.089 0 0)
(105.605 0 0)
(106.197 0 0)
(106.845 0 0)
(107.538 0 0)
(108.264 0 0)
(109.019 0 0)
(109.796 0 0)
(110.593 0 0)
(111.405 0 0)
(112.231 0 0)
(113.069 0 0)
(113.916 0 0)
(114.772 0 0)
(115.634 0 0)
(116.507 0 0)
(117.372 0 0)
(118.281 0 0)
(119.071 0 0)
(120.247 0 0)
(296.054 0 0)
(295.563 0 0)
(295.043 0 0)
(294.491 0 0)
(293.909 0 0)
(293.295 0 0)
(292.649 0 0)
(291.97 0 0)
(291.258 0 0)
(290.511 0 0)
(289.73 0 0)
(288.914 0 0)
(288.061 0 0)
(287.17 0 0)
(286.242 0 0)
(285.274 0 0)
(284.265 0 0)
(283.215 0 0)
(282.121 0 0)
(280.983 0 0)
(279.799 0 0)
(278.566 0 0)
(277.284 0 0)
(275.95 0 0)
(274.561 0 0)
(273.116 0 0)
(271.612 0 0)
(270.044 0 0)
(268.411 0 0)
(266.708 0 0)
(264.931 0 0)
(263.075 0 0)
(261.134 0 0)
(259.103 0 0)
(256.973 0 0)
(254.737 0 0)
(252.385 0 0)
(249.905 0 0)
(247.282 0 0)
(244.5 0 0)
(241.538 0 0)
(238.37 0 0)
(234.958 0 0)
(231.243 0 0)
(227.156 0 0)
(222.699 0 0)
(217.889 0 0)
(212.03 0 0)
(202.441 0 0)
(185.399 0 0)
(161.518 0 0)
(138.017 0 0)
(121.36 0 0)
(112.019 0 0)
(107.437 0 0)
(105.361 0 0)
(104.524 0 0)
(104.313 0 0)
(104.439 0 0)
(104.762 0 0)
(105.212 0 0)
(105.748 0 0)
(106.347 0 0)
(106.993 0 0)
(107.676 0 0)
(108.39 0 0)
(109.128 0 0)
(109.887 0 0)
(110.663 0 0)
(111.453 0 0)
(112.255 0 0)
(113.068 0 0)
(113.891 0 0)
(114.72 0 0)
(115.56 0 0)
(116.393 0 0)
(117.27 0 0)
(118.031 0 0)
(119.166 0 0)
(295.487 0 0)
(294.978 0 0)
(294.441 0 0)
(293.875 0 0)
(293.279 0 0)
(292.652 0 0)
(291.995 0 0)
(291.307 0 0)
(290.586 0 0)
(289.833 0 0)
(289.046 0 0)
(288.226 0 0)
(287.37 0 0)
(286.479 0 0)
(285.55 0 0)
(284.584 0 0)
(283.579 0 0)
(282.533 0 0)
(281.447 0 0)
(280.317 0 0)
(279.143 0 0)
(277.922 0 0)
(276.654 0 0)
(275.336 0 0)
(273.966 0 0)
(272.541 0 0)
(271.059 0 0)
(269.518 0 0)
(267.912 0 0)
(266.24 0 0)
(264.498 0 0)
(262.679 0 0)
(260.78 0 0)
(258.794 0 0)
(256.715 0 0)
(254.535 0 0)
(252.245 0 0)
(249.833 0 0)
(247.287 0 0)
(244.592 0 0)
(241.727 0 0)
(238.67 0 0)
(235.389 0 0)
(231.835 0 0)
(227.936 0 0)
(223.663 0 0)
(219.064 0 0)
(213.842 0 0)
(206.146 0 0)
(192.238 0 0)
(170.448 0 0)
(145.954 0 0)
(126.508 0 0)
(114.744 0 0)
(108.719 0 0)
(105.895 0 0)
(104.674 0 0)
(104.251 0 0)
(104.246 0 0)
(104.478 0 0)
(104.857 0 0)
(105.334 0 0)
(105.882 0 0)
(106.481 0 0)
(107.121 0 0)
(107.793 0 0)
(108.492 0 0)
(109.213 0 0)
(109.952 0 0)
(110.707 0 0)
(111.475 0 0)
(112.254 0 0)
(113.044 0 0)
(113.84 0 0)
(114.648 0 0)
(115.449 0 0)
(116.294 0 0)
(117.028 0 0)
(118.122 0 0)
(294.899 0 0)
(294.375 0 0)
(293.823 0 0)
(293.244 0 0)
(292.636 0 0)
(291.998 0 0)
(291.332 0 0)
(290.635 0 0)
(289.908 0 0)
(289.149 0 0)
(288.359 0 0)
(287.535 0 0)
(286.678 0 0)
(285.787 0 0)
(284.86 0 0)
(283.896 0 0)
(282.896 0 0)
(281.856 0 0)
(280.777 0 0)
(279.656 0 0)
(278.493 0 0)
(277.286 0 0)
(276.032 0 0)
(274.73 0 0)
(273.379 0 0)
(271.975 0 0)
(270.516 0 0)
(269 0 0)
(267.423 0 0)
(265.782 0 0)
(264.073 0 0)
(262.292 0 0)
(260.434 0 0)
(258.493 0 0)
(256.464 0 0)
(254.338 0 0)
(252.108 0 0)
(249.763 0 0)
(247.292 0 0)
(244.679 0 0)
(241.909 0 0)
(238.958 0 0)
(235.802 0 0)
(232.397 0 0)
(228.68 0 0)
(224.598 0 0)
(220.18 0 0)
(215.363 0 0)
(209.038 0 0)
(198.013 0 0)
(179.121 0 0)
(154.819 0 0)
(132.907 0 0)
(118.362 0 0)
(110.496 0 0)
(106.687 0 0)
(104.964 0 0)
(104.274 0 0)
(104.112 0 0)
(104.24 0 0)
(104.542 0 0)
(104.957 0 0)
(105.45 0 0)
(106.002 0 0)
(106.598 0 0)
(107.229 0 0)
(107.888 0 0)
(108.572 0 0)
(109.274 0 0)
(109.994 0 0)
(110.728 0 0)
(111.473 0 0)
(112.23 0 0)
(112.994 0 0)
(113.77 0 0)
(114.541 0 0)
(115.353 0 0)
(116.06 0 0)
(117.113 0 0)
(294.293 0 0)
(293.755 0 0)
(293.191 0 0)
(292.6 0 0)
(291.981 0 0)
(291.335 0 0)
(290.661 0 0)
(289.958 0 0)
(289.225 0 0)
(288.462 0 0)
(287.669 0 0)
(286.843 0 0)
(285.986 0 0)
(285.096 0 0)
(284.171 0 0)
(283.212 0 0)
(282.216 0 0)
(281.184 0 0)
(280.113 0 0)
(279.002 0 0)
(277.85 0 0)
(276.656 0 0)
(275.417 0 0)
(274.133 0 0)
(272.8 0 0)
(271.417 0 0)
(269.982 0 0)
(268.491 0 0)
(266.942 0 0)
(265.332 0 0)
(263.657 0 0)
(261.913 0 0)
(260.095 0 0)
(258.199 0 0)
(256.218 0 0)
(254.146 0 0)
(251.975 0 0)
(249.695 0 0)
(247.296 0 0)
(244.764 0 0)
(242.084 0 0)
(239.236 0 0)
(236.197 0 0)
(232.933 0 0)
(229.388 0 0)
(225.498 0 0)
(221.26 0 0)
(216.707 0 0)
(211.295 0 0)
(202.661 0 0)
(187.072 0 0)
(164.246 0 0)
(140.614 0 0)
(123.094 0 0)
(112.937 0 0)
(107.827 0 0)
(105.438 0 0)
(104.402 0 0)
(104.047 0 0)
(104.053 0 0)
(104.269 0 0)
(104.617 0 0)
(105.054 0 0)
(105.556 0 0)
(106.107 0 0)
(106.696 0 0)
(107.316 0 0)
(107.961 0 0)
(108.628 0 0)
(109.313 0 0)
(110.012 0 0)
(110.725 0 0)
(111.448 0 0)
(112.181 0 0)
(112.925 0 0)
(113.666 0 0)
(114.447 0 0)
(115.128 0 0)
(116.141 0 0)
(293.671 0 0)
(293.121 0 0)
(292.545 0 0)
(291.944 0 0)
(291.317 0 0)
(290.664 0 0)
(289.983 0 0)
(289.274 0 0)
(288.538 0 0)
(287.772 0 0)
(286.977 0 0)
(286.151 0 0)
(285.295 0 0)
(284.406 0 0)
(283.485 0 0)
(282.531 0 0)
(281.541 0 0)
(280.516 0 0)
(279.454 0 0)
(278.354 0 0)
(277.214 0 0)
(276.034 0 0)
(274.811 0 0)
(273.543 0 0)
(272.23 0 0)
(270.868 0 0)
(269.456 0 0)
(267.991 0 0)
(266.471 0 0)
(264.891 0 0)
(263.25 0 0)
(261.542 0 0)
(259.765 0 0)
(257.912 0 0)
(255.979 0 0)
(253.959 0 0)
(251.845 0 0)
(249.629 0 0)
(247.3 0 0)
(244.846 0 0)
(242.253 0 0)
(239.504 0 0)
(236.577 0 0)
(233.444 0 0)
(230.059 0 0)
(226.359 0 0)
(222.308 0 0)
(217.952 0 0)
(213.106 0 0)
(206.264 0 0)
(193.931 0 0)
(173.711 0 0)
(149.524 0 0)
(129.15 0 0)
(116.253 0 0)
(109.439 0 0)
(106.157 0 0)
(104.666 0 0)
(104.065 0 0)
(103.925 0 0)
(104.043 0 0)
(104.317 0 0)
(104.694 0 0)
(105.144 0 0)
(105.649 0 0)
(106.195 0 0)
(106.775 0 0)
(107.383 0 0)
(108.013 0 0)
(108.663 0 0)
(109.329 0 0)
(110.008 0 0)
(110.7 0 0)
(111.401 0 0)
(112.114 0 0)
(112.824 0 0)
(113.574 0 0)
(114.229 0 0)
(115.203 0 0)
(293.034 0 0)
(292.474 0 0)
(291.889 0 0)
(291.28 0 0)
(290.645 0 0)
(289.986 0 0)
(289.3 0 0)
(288.587 0 0)
(287.848 0 0)
(287.08 0 0)
(286.284 0 0)
(285.459 0 0)
(284.605 0 0)
(283.719 0 0)
(282.802 0 0)
(281.853 0 0)
(280.871 0 0)
(279.854 0 0)
(278.802 0 0)
(277.713 0 0)
(276.586 0 0)
(275.419 0 0)
(274.212 0 0)
(272.963 0 0)
(271.669 0 0)
(270.328 0 0)
(268.94 0 0)
(267.5 0 0)
(266.008 0 0)
(264.459 0 0)
(262.851 0 0)
(261.179 0 0)
(259.441 0 0)
(257.631 0 0)
(255.745 0 0)
(253.776 0 0)
(251.719 0 0)
(249.564 0 0)
(247.303 0 0)
(244.925 0 0)
(242.416 0 0)
(239.762 0 0)
(236.942 0 0)
(233.932 0 0)
(230.696 0 0)
(227.177 0 0)
(223.319 0 0)
(219.141 0 0)
(214.638 0 0)
(209.01 0 0)
(199.508 0 0)
(182.62 0 0)
(159.308 0 0)
(136.667 0 0)
(120.697 0 0)
(111.697 0 0)
(107.211 0 0)
(105.108 0 0)
(104.188 0 0)
(103.866 0 0)
(103.868 0 0)
(104.06 0 0)
(104.372 0 0)
(104.768 0 0)
(105.224 0 0)
(105.727 0 0)
(106.267 0 0)
(106.837 0 0)
(107.43 0 0)
(108.045 0 0)
(108.677 0 0)
(109.324 0 0)
(109.983 0 0)
(110.653 0 0)
(111.335 0 0)
(112.016 0 0)
(112.736 0 0)
(113.364 0 0)
(114.3 0 0)
(292.385 0 0)
(291.816 0 0)
(291.223 0 0)
(290.607 0 0)
(289.967 0 0)
(289.302 0 0)
(288.612 0 0)
(287.897 0 0)
(287.156 0 0)
(286.387 0 0)
(285.592 0 0)
(284.769 0 0)
(283.917 0 0)
(283.035 0 0)
(282.123 0 0)
(281.18 0 0)
(280.205 0 0)
(279.198 0 0)
(278.155 0 0)
(277.078 0 0)
(275.964 0 0)
(274.813 0 0)
(273.622 0 0)
(272.39 0 0)
(271.116 0 0)
(269.797 0 0)
(268.432 0 0)
(267.018 0 0)
(265.554 0 0)
(264.035 0 0)
(262.46 0 0)
(260.824 0 0)
(259.125 0 0)
(257.357 0 0)
(255.517 0 0)
(253.598 0 0)
(251.595 0 0)
(249.5 0 0)
(247.305 0 0)
(245 0 0)
(242.573 0 0)
(240.01 0 0)
(237.292 0 0)
(234.399 0 0)
(231.301 0 0)
(227.951 0 0)
(224.287 0 0)
(220.292 0 0)
(216.014 0 0)
(211.135 0 0)
(203.82 0 0)
(190.452 0 0)
(169.41 0 0)
(145.615 0 0)
(126.532 0 0)
(114.83 0 0)
(108.73 0 0)
(105.79 0 0)
(104.444 0 0)
(103.891 0 0)
(103.753 0 0)
(103.849 0 0)
(104.091 0 0)
(104.428 0 0)
(104.835 0 0)
(105.293 0 0)
(105.791 0 0)
(106.322 0 0)
(106.879 0 0)
(107.459 0 0)
(108.057 0 0)
(108.671 0 0)
(109.299 0 0)
(109.937 0 0)
(110.59 0 0)
(111.241 0 0)
(111.93 0 0)
(112.533 0 0)
(113.43 0 0)
(291.726 0 0)
(291.149 0 0)
(290.549 0 0)
(289.928 0 0)
(289.283 0 0)
(288.614 0 0)
(287.922 0 0)
(287.205 0 0)
(286.463 0 0)
(285.695 0 0)
(284.901 0 0)
(284.08 0 0)
(283.231 0 0)
(282.354 0 0)
(281.448 0 0)
(280.513 0 0)
(279.546 0 0)
(278.547 0 0)
(277.516 0 0)
(276.451 0 0)
(275.351 0 0)
(274.214 0 0)
(273.04 0 0)
(271.826 0 0)
(270.572 0 0)
(269.275 0 0)
(267.933 0 0)
(266.545 0 0)
(265.108 0 0)
(263.62 0 0)
(262.077 0 0)
(260.477 0 0)
(258.816 0 0)
(257.09 0 0)
(255.294 0 0)
(253.425 0 0)
(251.475 0 0)
(249.439 0 0)
(247.308 0 0)
(245.073 0 0)
(242.724 0 0)
(240.248 0 0)
(237.629 0 0)
(234.847 0 0)
(231.878 0 0)
(228.684 0 0)
(225.208 0 0)
(221.404 0 0)
(217.308 0 0)
(212.862 0 0)
(207.051 0 0)
(196.877 0 0)
(179.133 0 0)
(155.709 0 0)
(133.962 0 0)
(119.12 0 0)
(110.895 0 0)
(106.807 0 0)
(104.878 0 0)
(104.019 0 0)
(103.707 0 0)
(103.692 0 0)
(103.853 0 0)
(104.127 0 0)
(104.481 0 0)
(104.892 0 0)
(105.348 0 0)
(105.839 0 0)
(106.36 0 0)
(106.904 0 0)
(107.468 0 0)
(108.05 0 0)
(108.646 0 0)
(109.254 0 0)
(109.876 0 0)
(110.498 0 0)
(111.157 0 0)
(111.735 0 0)
(112.595 0 0)
(291.057 0 0)
(290.474 0 0)
(289.869 0 0)
(289.243 0 0)
(288.595 0 0)
(287.923 0 0)
(287.229 0 0)
(286.512 0 0)
(285.77 0 0)
(285.003 0 0)
(284.211 0 0)
(283.394 0 0)
(282.549 0 0)
(281.678 0 0)
(280.778 0 0)
(279.85 0 0)
(278.892 0 0)
(277.904 0 0)
(276.884 0 0)
(275.831 0 0)
(274.745 0 0)
(273.623 0 0)
(272.466 0 0)
(271.271 0 0)
(270.036 0 0)
(268.761 0 0)
(267.443 0 0)
(266.081 0 0)
(264.671 0 0)
(263.213 0 0)
(261.702 0 0)
(260.137 0 0)
(258.513 0 0)
(256.828 0 0)
(255.077 0 0)
(253.255 0 0)
(251.358 0 0)
(249.378 0 0)
(247.309 0 0)
(245.143 0 0)
(242.87 0 0)
(240.478 0 0)
(237.952 0 0)
(235.276 0 0)
(232.428 0 0)
(229.379 0 0)
(226.079 0 0)
(222.471 0 0)
(218.553 0 0)
(214.366 0 0)
(209.48 0 0)
(201.832 0 0)
(187.799 0 0)
(166.368 0 0)
(143.026 0 0)
(124.88 0 0)
(113.956 0 0)
(108.295 0 0)
(105.556 0 0)
(104.284 0 0)
(103.746 0 0)
(103.594 0 0)
(103.663 0 0)
(103.867 0 0)
(104.164 0 0)
(104.526 0 0)
(104.938 0 0)
(105.389 0 0)
(105.872 0 0)
(106.381 0 0)
(106.911 0 0)
(107.46 0 0)
(108.025 0 0)
(108.602 0 0)
(109.194 0 0)
(109.787 0 0)
(110.417 0 0)
(110.969 0 0)
(111.792 0 0)
(290.381 0 0)
(289.792 0 0)
(289.184 0 0)
(288.554 0 0)
(287.903 0 0)
(287.231 0 0)
(286.536 0 0)
(285.818 0 0)
(285.077 0 0)
(284.313 0 0)
(283.524 0 0)
(282.711 0 0)
(281.871 0 0)
(281.006 0 0)
(280.114 0 0)
(279.194 0 0)
(278.245 0 0)
(277.267 0 0)
(276.259 0 0)
(275.219 0 0)
(274.147 0 0)
(273.041 0 0)
(271.901 0 0)
(270.724 0 0)
(269.51 0 0)
(268.257 0 0)
(266.962 0 0)
(265.625 0 0)
(264.243 0 0)
(262.814 0 0)
(261.335 0 0)
(259.805 0 0)
(258.218 0 0)
(256.573 0 0)
(254.865 0 0)
(253.09 0 0)
(251.243 0 0)
(249.319 0 0)
(247.311 0 0)
(245.211 0 0)
(243.01 0 0)
(240.699 0 0)
(238.263 0 0)
(235.688 0 0)
(232.955 0 0)
(230.039 0 0)
(226.901 0 0)
(223.485 0 0)
(219.756 0 0)
(215.757 0 0)
(211.389 0 0)
(205.49 0 0)
(194.94 0 0)
(176.789 0 0)
(153.471 0 0)
(132.377 0 0)
(118.233 0 0)
(110.452 0 0)
(106.579 0 0)
(104.733 0 0)
(103.893 0 0)
(103.569 0 0)
(103.527 0 0)
(103.652 0 0)
(103.886 0 0)
(104.197 0 0)
(104.563 0 0)
(104.973 0 0)
(105.417 0 0)
(105.89 0 0)
(106.386 0 0)
(106.902 0 0)
(107.435 0 0)
(107.982 0 0)
(108.544 0 0)
(109.108 0 0)
(109.708 0 0)
(110.236 0 0)
(111.022 0 0)
(289.698 0 0)
(289.106 0 0)
(288.494 0 0)
(287.862 0 0)
(287.21 0 0)
(286.537 0 0)
(285.842 0 0)
(285.126 0 0)
(284.387 0 0)
(283.625 0 0)
(282.84 0 0)
(282.031 0 0)
(281.198 0 0)
(280.339 0 0)
(279.454 0 0)
(278.543 0 0)
(277.604 0 0)
(276.637 0 0)
(275.641 0 0)
(274.615 0 0)
(273.557 0 0)
(272.467 0 0)
(271.344 0 0)
(270.186 0 0)
(268.992 0 0)
(267.761 0 0)
(266.49 0 0)
(265.178 0 0)
(263.823 0 0)
(262.424 0 0)
(260.977 0 0)
(259.48 0 0)
(257.93 0 0)
(256.324 0 0)
(254.658 0 0)
(252.929 0 0)
(251.132 0 0)
(249.262 0 0)
(247.312 0 0)
(245.276 0 0)
(243.145 0 0)
(240.911 0 0)
(238.562 0 0)
(236.083 0 0)
(233.458 0 0)
(230.667 0 0)
(227.678 0 0)
(224.444 0 0)
(220.912 0 0)
(217.089 0 0)
(213.008 0 0)
(208.173 0 0)
(200.412 0 0)
(186.141 0 0)
(164.672 0 0)
(141.704 0 0)
(124.09 0 0)
(113.558 0 0)
(108.098 0 0)
(105.438 0 0)
(104.183 0 0)
(103.633 0 0)
(103.454 0 0)
(103.486 0 0)
(103.651 0 0)
(103.905 0 0)
(104.223 0 0)
(104.59 0 0)
(104.995 0 0)
(105.431 0 0)
(105.892 0 0)
(106.375 0 0)
(106.876 0 0)
(107.393 0 0)
(107.925 0 0)
(108.461 0 0)
(109.032 0 0)
(109.535 0 0)
(110.285 0 0)
(289.01 0 0)
(288.415 0 0)
(287.801 0 0)
(287.168 0 0)
(286.515 0 0)
(285.842 0 0)
(285.149 0 0)
(284.434 0 0)
(283.698 0 0)
(282.94 0 0)
(282.16 0 0)
(281.356 0 0)
(280.529 0 0)
(279.678 0 0)
(278.801 0 0)
(277.899 0 0)
(276.971 0 0)
(276.015 0 0)
(275.031 0 0)
(274.019 0 0)
(272.976 0 0)
(271.902 0 0)
(270.797 0 0)
(269.657 0 0)
(268.484 0 0)
(267.274 0 0)
(266.027 0 0)
(264.74 0 0)
(263.412 0 0)
(262.042 0 0)
(260.626 0 0)
(259.162 0 0)
(257.648 0 0)
(256.08 0 0)
(254.457 0 0)
(252.772 0 0)
(251.023 0 0)
(249.205 0 0)
(247.312 0 0)
(245.338 0 0)
(243.276 0 0)
(241.116 0 0)
(238.849 0 0)
(236.463 0 0)
(233.941 0 0)
(231.266 0 0)
(228.415 0 0)
(225.347 0 0)
(222.01 0 0)
(218.374 0 0)
(214.486 0 0)
(210.228 0 0)
(204.386 0 0)
(193.822 0 0)
(175.702 0 0)
(152.607 0 0)
(131.85 0 0)
(117.975 0 0)
(110.335 0 0)
(106.512 0 0)
(104.67 0 0)
(103.811 0 0)
(103.456 0 0)
(103.377 0 0)
(103.462 0 0)
(103.654 0 0)
(103.92 0 0)
(104.242 0 0)
(104.606 0 0)
(105.004 0 0)
(105.431 0 0)
(105.88 0 0)
(106.35 0 0)
(106.835 0 0)
(107.338 0 0)
(107.845 0 0)
(108.387 0 0)
(108.866 0 0)
(109.58 0 0)
(288.319 0 0)
(287.722 0 0)
(287.107 0 0)
(286.473 0 0)
(285.821 0 0)
(285.149 0 0)
(284.457 0 0)
(283.745 0 0)
(283.013 0 0)
(282.259 0 0)
(281.484 0 0)
(280.686 0 0)
(279.866 0 0)
(279.022 0 0)
(278.155 0 0)
(277.262 0 0)
(276.344 0 0)
(275.4 0 0)
(274.43 0 0)
(273.431 0 0)
(272.403 0 0)
(271.346 0 0)
(270.258 0 0)
(269.137 0 0)
(267.984 0 0)
(266.796 0 0)
(265.572 0 0)
(264.31 0 0)
(263.009 0 0)
(261.667 0 0)
(260.282 0 0)
(258.851 0 0)
(257.373 0 0)
(255.843 0 0)
(254.26 0 0)
(252.619 0 0)
(250.917 0 0)
(249.15 0 0)
(247.312 0 0)
(245.398 0 0)
(243.401 0 0)
(241.313 0 0)
(239.126 0 0)
(236.827 0 0)
(234.403 0 0)
(231.839 0 0)
(229.114 0 0)
(226.199 0 0)
(223.047 0 0)
(219.608 0 0)
(215.895 0 0)
(211.938 0 0)
(207.236 0 0)
(199.629 0 0)
(185.575 0 0)
(164.378 0 0)
(141.636 0 0)
(124.128 0 0)
(113.611 0 0)
(108.129 0 0)
(105.435 0 0)
(104.144 0 0)
(103.554 0 0)
(103.335 0 0)
(103.325 0 0)
(103.447 0 0)
(103.657 0 0)
(103.93 0 0)
(104.252 0 0)
(104.611 0 0)
(105.002 0 0)
(105.417 0 0)
(105.854 0 0)
(106.309 0 0)
(106.782 0 0)
(107.261 0 0)
(107.773 0 0)
(108.228 0 0)
(108.906 0 0)
(287.624 0 0)
(287.026 0 0)
(286.411 0 0)
(285.778 0 0)
(285.127 0 0)
(284.457 0 0)
(283.768 0 0)
(283.059 0 0)
(282.331 0 0)
(281.582 0 0)
(280.813 0 0)
(280.022 0 0)
(279.209 0 0)
(278.373 0 0)
(277.515 0 0)
(276.632 0 0)
(275.726 0 0)
(274.794 0 0)
(273.836 0 0)
(272.851 0 0)
(271.839 0 0)
(270.798 0 0)
(269.727 0 0)
(268.626 0 0)
(267.493 0 0)
(266.327 0 0)
(265.126 0 0)
(263.889 0 0)
(262.615 0 0)
(261.301 0 0)
(259.946 0 0)
(258.548 0 0)
(257.104 0 0)
(255.611 0 0)
(254.068 0 0)
(252.47 0 0)
(250.814 0 0)
(249.097 0 0)
(247.312 0 0)
(245.456 0 0)
(243.522 0 0)
(241.503 0 0)
(239.392 0 0)
(237.176 0 0)
(234.846 0 0)
(232.387 0 0)
(229.781 0 0)
(227.005 0 0)
(224.021 0 0)
(220.78 0 0)
(217.253 0 0)
(213.488 0 0)
(209.378 0 0)
(203.761 0 0)
(193.576 0 0)
(175.933 0 0)
(153.147 0 0)
(132.389 0 0)
(118.349 0 0)
(110.547 0 0)
(106.612 0 0)
(104.694 0 0)
(103.778 0 0)
(103.374 0 0)
(103.249 0 0)
(103.289 0 0)
(103.436 0 0)
(103.657 0 0)
(103.934 0 0)
(104.253 0 0)
(104.606 0 0)
(104.987 0 0)
(105.391 0 0)
(105.815 0 0)
(106.257 0 0)
(106.708 0 0)
(107.191 0 0)
(107.621 0 0)
(108.264 0 0)
(286.928 0 0)
(286.33 0 0)
(285.716 0 0)
(285.084 0 0)
(284.434 0 0)
(283.767 0 0)
(283.081 0 0)
(282.377 0 0)
(281.653 0 0)
(280.91 0 0)
(280.147 0 0)
(279.363 0 0)
(278.558 0 0)
(277.731 0 0)
(276.882 0 0)
(276.01 0 0)
(275.115 0 0)
(274.195 0 0)
(273.251 0 0)
(272.28 0 0)
(271.283 0 0)
(270.259 0 0)
(269.206 0 0)
(268.124 0 0)
(267.011 0 0)
(265.867 0 0)
(264.689 0 0)
(263.477 0 0)
(262.229 0 0)
(260.943 0 0)
(259.618 0 0)
(258.251 0 0)
(256.841 0 0)
(255.385 0 0)
(253.881 0 0)
(252.325 0 0)
(250.714 0 0)
(249.044 0 0)
(247.312 0 0)
(245.512 0 0)
(243.639 0 0)
(241.687 0 0)
(239.647 0 0)
(237.512 0 0)
(235.271 0 0)
(232.911 0 0)
(230.416 0 0)
(227.768 0 0)
(224.939 0 0)
(221.883 0 0)
(218.555 0 0)
(214.964 0 0)
(211.148 0 0)
(206.664 0 0)
(199.49 0 0)
(186.124 0 0)
(165.527 0 0)
(142.872 0 0)
(125.039 0 0)
(114.147 0 0)
(108.407 0 0)
(105.56 0 0)
(104.174 0 0)
(103.518 0 0)
(103.244 0 0)
(103.186 0 0)
(103.261 0 0)
(103.425 0 0)
(103.653 0 0)
(103.929 0 0)
(104.244 0 0)
(104.589 0 0)
(104.96 0 0)
(105.352 0 0)
(105.764 0 0)
(106.186 0 0)
(106.641 0 0)
(107.046 0 0)
(107.654 0 0)
(286.231 0 0)
(285.634 0 0)
(285.021 0 0)
(284.391 0 0)
(283.744 0 0)
(283.08 0 0)
(282.398 0 0)
(281.698 0 0)
(280.98 0 0)
(280.243 0 0)
(279.486 0 0)
(278.71 0 0)
(277.913 0 0)
(277.095 0 0)
(276.256 0 0)
(275.395 0 0)
(274.512 0 0)
(273.605 0 0)
(272.674 0 0)
(271.718 0 0)
(270.737 0 0)
(269.729 0 0)
(268.694 0 0)
(267.631 0 0)
(266.538 0 0)
(265.415 0 0)
(264.26 0 0)
(263.073 0 0)
(261.851 0 0)
(260.593 0 0)
(259.297 0 0)
(257.962 0 0)
(256.585 0 0)
(255.165 0 0)
(253.698 0 0)
(252.183 0 0)
(250.616 0 0)
(248.993 0 0)
(247.311 0 0)
(245.566 0 0)
(243.751 0 0)
(241.863 0 0)
(239.894 0 0)
(237.835 0 0)
(235.679 0 0)
(233.413 0 0)
(231.023 0 0)
(228.494 0 0)
(225.804 0 0)
(222.918 0 0)
(219.788 0 0)
(216.385 0 0)
(212.754 0 0)
(208.826 0 0)
(203.59 0 0)
(194.172 0 0)
(177.482 0 0)
(155.156 0 0)
(134.087 0 0)
(119.431 0 0)
(111.137 0 0)
(106.906 0 0)
(104.821 0 0)
(103.804 0 0)
(103.33 0 0)
(103.148 0 0)
(103.137 0 0)
(103.236 0 0)
(103.412 0 0)
(103.643 0 0)
(103.917 0 0)
(104.225 0 0)
(104.562 0 0)
(104.922 0 0)
(105.303 0 0)
(105.696 0 0)
(106.122 0 0)
(106.502 0 0)
(107.076 0 0)
(285.535 0 0)
(284.939 0 0)
(284.327 0 0)
(283.7 0 0)
(283.057 0 0)
(282.396 0 0)
(281.719 0 0)
(281.024 0 0)
(280.312 0 0)
(279.581 0 0)
(278.832 0 0)
(278.063 0 0)
(277.275 0 0)
(276.467 0 0)
(275.638 0 0)
(274.788 0 0)
(273.917 0 0)
(273.023 0 0)
(272.105 0 0)
(271.164 0 0)
(270.199 0 0)
(269.208 0 0)
(268.191 0 0)
(267.146 0 0)
(266.074 0 0)
(264.972 0 0)
(263.84 0 0)
(262.677 0 0)
(261.481 0 0)
(260.25 0 0)
(258.983 0 0)
(257.679 0 0)
(256.335 0 0)
(254.95 0 0)
(253.521 0 0)
(252.045 0 0)
(250.52 0 0)
(248.943 0 0)
(247.31 0 0)
(245.617 0 0)
(243.86 0 0)
(242.033 0 0)
(240.131 0 0)
(238.146 0 0)
(236.07 0 0)
(233.893 0 0)
(231.603 0 0)
(229.186 0 0)
(226.624 0 0)
(223.891 0 0)
(220.946 0 0)
(217.743 0 0)
(214.286 0 0)
(210.624 0 0)
(206.423 0 0)
(199.926 0 0)
(187.719 0 0)
(168.138 0 0)
(145.535 0 0)
(126.959 0 0)
(115.263 0 0)
(108.988 0 0)
(105.843 0 0)
(104.292 0 0)
(103.535 0 0)
(103.19 0 0)
(103.074 0 0)
(103.097 0 0)
(103.214 0 0)
(103.395 0 0)
(103.626 0 0)
(103.896 0 0)
(104.198 0 0)
(104.524 0 0)
(104.874 0 0)
(105.237 0 0)
(105.634 0 0)
(105.99 0 0)
(106.528 0 0)
(284.839 0 0)
(284.245 0 0)
(283.636 0 0)
(283.012 0 0)
(282.373 0 0)
(281.717 0 0)
(281.044 0 0)
(280.355 0 0)
(279.649 0 0)
(278.925 0 0)
(278.184 0 0)
(277.424 0 0)
(276.645 0 0)
(275.846 0 0)
(275.028 0 0)
(274.19 0 0)
(273.33 0 0)
(272.449 0 0)
(271.546 0 0)
(270.619 0 0)
(269.67 0 0)
(268.696 0 0)
(267.696 0 0)
(266.671 0 0)
(265.619 0 0)
(264.538 0 0)
(263.429 0 0)
(262.289 0 0)
(261.118 0 0)
(259.915 0 0)
(258.677 0 0)
(257.403 0 0)
(256.091 0 0)
(254.74 0 0)
(253.347 0 0)
(251.91 0 0)
(250.427 0 0)
(248.894 0 0)
(247.309 0 0)
(245.667 0 0)
(243.965 0 0)
(242.197 0 0)
(240.359 0 0)
(238.444 0 0)
(236.445 0 0)
(234.353 0 0)
(232.157 0 0)
(229.846 0 0)
(227.402 0 0)
(224.807 0 0)
(222.03 0 0)
(219.025 0 0)
(215.76 0 0)
(212.272 0 0)
(208.544 0 0)
(203.799 0 0)
(195.482 0 0)
(180.27 0 0)
(158.714 0 0)
(137.132 0 0)
(121.389 0 0)
(112.207 0 0)
(107.449 0 0)
(105.081 0 0)
(103.907 0 0)
(103.335 0 0)
(103.083 0 0)
(103.015 0 0)
(103.063 0 0)
(103.19 0 0)
(103.374 0 0)
(103.603 0 0)
(103.868 0 0)
(104.16 0 0)
(104.478 0 0)
(104.811 0 0)
(105.178 0 0)
(105.509 0 0)
(106.012 0 0)
(284.145 0 0)
(283.554 0 0)
(282.948 0 0)
(282.328 0 0)
(281.693 0 0)
(281.042 0 0)
(280.375 0 0)
(279.692 0 0)
(278.993 0 0)
(278.276 0 0)
(277.542 0 0)
(276.791 0 0)
(276.021 0 0)
(275.233 0 0)
(274.426 0 0)
(273.599 0 0)
(272.752 0 0)
(271.884 0 0)
(270.995 0 0)
(270.083 0 0)
(269.15 0 0)
(268.192 0 0)
(267.211 0 0)
(266.204 0 0)
(265.172 0 0)
(264.113 0 0)
(263.026 0 0)
(261.91 0 0)
(260.764 0 0)
(259.587 0 0)
(258.377 0 0)
(257.133 0 0)
(255.853 0 0)
(254.535 0 0)
(253.178 0 0)
(251.779 0 0)
(250.336 0 0)
(248.847 0 0)
(247.307 0 0)
(245.715 0 0)
(244.066 0 0)
(242.355 0 0)
(240.579 0 0)
(238.732 0 0)
(236.806 0 0)
(234.794 0 0)
(232.688 0 0)
(230.475 0 0)
(228.142 0 0)
(225.674 0 0)
(223.047 0 0)
(220.225 0 0)
(217.162 0 0)
(213.851 0 0)
(210.346 0 0)
(206.456 0 0)
(200.797 0 0)
(190.18 0 0)
(172.166 0 0)
(149.795 0 0)
(130.136 0 0)
(117.142 0 0)
(109.976 0 0)
(106.338 0 0)
(104.526 0 0)
(103.623 0 0)
(103.184 0 0)
(102.998 0 0)
(102.965 0 0)
(103.03 0 0)
(103.164 0 0)
(103.349 0 0)
(103.574 0 0)
(103.831 0 0)
(104.116 0 0)
(104.418 0 0)
(104.755 0 0)
(105.06 0 0)
(105.528 0 0)
(283.453 0 0)
(282.865 0 0)
(282.264 0 0)
(281.648 0 0)
(281.017 0 0)
(280.372 0 0)
(279.711 0 0)
(279.034 0 0)
(278.342 0 0)
(277.634 0 0)
(276.908 0 0)
(276.166 0 0)
(275.406 0 0)
(274.628 0 0)
(273.832 0 0)
(273.017 0 0)
(272.182 0 0)
(271.328 0 0)
(270.453 0 0)
(269.556 0 0)
(268.638 0 0)
(267.698 0 0)
(266.734 0 0)
(265.747 0 0)
(264.734 0 0)
(263.696 0 0)
(262.631 0 0)
(261.539 0 0)
(260.418 0 0)
(259.267 0 0)
(258.084 0 0)
(256.87 0 0)
(255.621 0 0)
(254.336 0 0)
(253.014 0 0)
(251.652 0 0)
(250.248 0 0)
(248.8 0 0)
(247.306 0 0)
(245.761 0 0)
(244.163 0 0)
(242.508 0 0)
(240.791 0 0)
(239.008 0 0)
(237.152 0 0)
(235.217 0 0)
(233.195 0 0)
(231.076 0 0)
(228.847 0 0)
(226.496 0 0)
(224.005 0 0)
(221.346 0 0)
(218.478 0 0)
(215.365 0 0)
(212.028 0 0)
(208.499 0 0)
(204.278 0 0)
(197.284 0 0)
(184.089 0 0)
(163.863 0 0)
(141.799 0 0)
(124.512 0 0)
(113.948 0 0)
(108.345 0 0)
(105.528 0 0)
(104.117 0 0)
(103.408 0 0)
(103.066 0 0)
(102.93 0 0)
(102.921 0 0)
(102.997 0 0)
(103.134 0 0)
(103.318 0 0)
(103.537 0 0)
(103.788 0 0)
(104.058 0 0)
(104.364 0 0)
(104.643 0 0)
(105.076 0 0)
(282.764 0 0)
(282.18 0 0)
(281.583 0 0)
(280.972 0 0)
(280.347 0 0)
(279.707 0 0)
(279.053 0 0)
(278.383 0 0)
(277.698 0 0)
(276.998 0 0)
(276.281 0 0)
(275.548 0 0)
(274.798 0 0)
(274.031 0 0)
(273.246 0 0)
(272.443 0 0)
(271.621 0 0)
(270.78 0 0)
(269.919 0 0)
(269.038 0 0)
(268.136 0 0)
(267.212 0 0)
(266.267 0 0)
(265.298 0 0)
(264.305 0 0)
(263.288 0 0)
(262.245 0 0)
(261.176 0 0)
(260.079 0 0)
(258.954 0 0)
(257.799 0 0)
(256.613 0 0)
(255.394 0 0)
(254.141 0 0)
(252.853 0 0)
(251.527 0 0)
(250.162 0 0)
(248.755 0 0)
(247.304 0 0)
(245.805 0 0)
(244.257 0 0)
(242.655 0 0)
(240.996 0 0)
(239.274 0 0)
(237.485 0 0)
(235.623 0 0)
(233.681 0 0)
(231.649 0 0)
(229.519 0 0)
(227.278 0 0)
(224.91 0 0)
(222.397 0 0)
(219.707 0 0)
(216.796 0 0)
(213.644 0 0)
(210.299 0 0)
(206.702 0 0)
(201.914 0 0)
(193.194 0 0)
(177.422 0 0)
(155.819 0 0)
(134.937 0 0)
(120.099 0 0)
(111.561 0 0)
(107.145 0 0)
(104.928 0 0)
(103.809 0 0)
(103.242 0 0)
(102.972 0 0)
(102.872 0 0)
(102.881 0 0)
(102.964 0 0)
(103.102 0 0)
(103.281 0 0)
(103.495 0 0)
(103.733 0 0)
(104.007 0 0)
(104.259 0 0)
(104.656 0 0)
(282.079 0 0)
(281.5 0 0)
(280.907 0 0)
(280.301 0 0)
(279.682 0 0)
(279.048 0 0)
(278.401 0 0)
(277.739 0 0)
(277.062 0 0)
(276.37 0 0)
(275.662 0 0)
(274.939 0 0)
(274.199 0 0)
(273.442 0 0)
(272.669 0 0)
(271.878 0 0)
(271.069 0 0)
(270.241 0 0)
(269.395 0 0)
(268.529 0 0)
(267.643 0 0)
(266.736 0 0)
(265.808 0 0)
(264.858 0 0)
(263.884 0 0)
(262.888 0 0)
(261.867 0 0)
(260.82 0 0)
(259.748 0 0)
(258.648 0 0)
(257.52 0 0)
(256.362 0 0)
(255.173 0 0)
(253.952 0 0)
(252.697 0 0)
(251.406 0 0)
(250.078 0 0)
(248.711 0 0)
(247.302 0 0)
(245.848 0 0)