/*--------------------------------*- C++ -*----------------------------------*\
| =========                 |                                                 |
| \\      /  F ield         | OpenFOAM: The Open Source CFD Toolbox           |
|  \\    /   O peration     | Version:  2312                                  |
|   \\  /    A nd           | Website:  www.openfoam.com                      |
|    \\/     M anipulation  |                                                 |
\*---------------------------------------------------------------------------*/
FoamFile
{
    version     2.0;
    format      ascii;
    arch        "LSB;label=32;scalar=64";
    class       volVectorField;
    location    "0.513";
    object      U;
}
// * * * * * * * * * * * * * * * * * * * * * * * * * * * * * * * * * * * * * //

dimensions      [0 1 -1 0 0 0 0];

internalField   nonuniform List<vector> 
31205
(
(101.998 0 0)
(101.115 0 0)
(100.57 0 0)
(100.364 0 0)
(100.485 0 0)
(100.91 0 0)
(101.61 0 0)
(102.55 0 0)
(103.697 0 0)
(105.018 0 0)
(106.483 0 0)
(108.066 0 0)
(109.746 0 0)
(111.503 0 0)
(113.322 0 0)
(115.188 0 0)
(117.092 0 0)
(119.024 0 0)
(120.976 0 0)
(122.942 0 0)
(124.918 0 0)
(126.899 0 0)
(128.882 0 0)
(130.863 0 0)
(132.84 0 0)
(134.812 0 0)
(136.776 0 0)
(138.732 0 0)
(140.679 0 0)
(142.615 0 0)
(144.54 0 0)
(146.452 0 0)
(148.353 0 0)
(150.241 0 0)
(152.116 0 0)
(153.978 0 0)
(155.826 0 0)
(157.661 0 0)
(159.483 0 0)
(161.291 0 0)
(163.085 0 0)
(164.866 0 0)
(166.633 0 0)
(168.386 0 0)
(170.126 0 0)
(171.852 0 0)
(173.565 0 0)
(175.265 0 0)
(176.951 0 0)
(178.625 0 0)
(180.285 0 0)
(181.932 0 0)
(183.566 0 0)
(185.188 0 0)
(186.797 0 0)
(188.393 0 0)
(189.977 0 0)
(191.549 0 0)
(193.108 0 0)
(194.655 0 0)
(196.19 0 0)
(197.713 0 0)
(199.224 0 0)
(200.723 0 0)
(202.21 0 0)
(203.686 0 0)
(205.151 0 0)
(206.603 0 0)
(208.045 0 0)
(209.475 0 0)
(210.894 0 0)
(212.302 0 0)
(213.699 0 0)
(215.084 0 0)
(216.464 0 0)
(217.812 0 0)
(219.214 0 0)
(220.408 0 0)
(222.195 0 0)
(101.174 0 0)
(100.604 0 0)
(100.358 0 0)
(100.424 0 0)
(100.785 0 0)
(101.412 0 0)
(102.276 0 0)
(103.343 0 0)
(104.585 0 0)
(105.972 0 0)
(107.479 0 0)
(109.085 0 0)
(110.771 0 0)
(112.521 0 0)
(114.322 0 0)
(116.162 0 0)
(118.033 0 0)
(119.928 0 0)
(121.838 0 0)
(123.76 0 0)
(125.689 0 0)
(127.622 0 0)
(129.555 0 0)
(131.485 0 0)
(133.412 0 0)
(135.333 0 0)
(137.247 0 0)
(139.152 0 0)
(141.048 0 0)
(142.934 0 0)
(144.809 0 0)
(146.673 0 0)
(148.525 0 0)
(150.365 0 0)
(152.193 0 0)
(154.008 0 0)
(155.81 0 0)
(157.6 0 0)
(159.377 0 0)
(161.14 0 0)
(162.891 0 0)
(164.629 0 0)
(166.353 0 0)
(168.065 0 0)
(169.764 0 0)
(171.45 0 0)
(173.123 0 0)
(174.784 0 0)
(176.431 0 0)
(178.067 0 0)
(179.689 0 0)
(181.299 0 0)
(182.897 0 0)
(184.483 0 0)
(186.056 0 0)
(187.618 0 0)
(189.167 0 0)
(190.705 0 0)
(192.23 0 0)
(193.744 0 0)
(195.246 0 0)
(196.737 0 0)
(198.216 0 0)
(199.684 0 0)
(201.141 0 0)
(202.586 0 0)
(204.021 0 0)
(205.444 0 0)
(206.856 0 0)
(208.258 0 0)
(209.648 0 0)
(211.028 0 0)
(212.398 0 0)
(213.755 0 0)
(215.107 0 0)
(216.43 0 0)
(217.803 0 0)
(218.978 0 0)
(220.719 0 0)
(100.63 0 0)
(100.368 0 0)
(100.404 0 0)
(100.72 0 0)
(101.293 0 0)
(102.095 0 0)
(103.096 0 0)
(104.268 0 0)
(105.585 0 0)
(107.021 0 0)
(108.558 0 0)
(110.175 0 0)
(111.859 0 0)
(113.595 0 0)
(115.373 0 0)
(117.184 0 0)
(119.02 0 0)
(120.874 0 0)
(122.742 0 0)
(124.618 0 0)
(126.5 0 0)
(128.384 0 0)
(130.267 0 0)
(132.148 0 0)
(134.024 0 0)
(135.894 0 0)
(137.757 0 0)
(139.613 0 0)
(141.459 0 0)
(143.295 0 0)
(145.121 0 0)
(146.936 0 0)
(148.741 0 0)
(150.533 0 0)
(152.314 0 0)
(154.083 0 0)
(155.84 0 0)
(157.585 0 0)
(159.317 0 0)
(161.037 0 0)
(162.745 0 0)
(164.441 0 0)
(166.124 0 0)
(167.795 0 0)
(169.453 0 0)
(171.099 0 0)
(172.733 0 0)
(174.355 0 0)
(175.964 0 0)
(177.562 0 0)
(179.148 0 0)
(180.721 0 0)
(182.283 0 0)
(183.833 0 0)
(185.372 0 0)
(186.899 0 0)
(188.414 0 0)
(189.918 0 0)
(191.411 0 0)
(192.892 0 0)
(194.362 0 0)
(195.821 0 0)
(197.269 0 0)
(198.706 0 0)
(200.132 0 0)
(201.548 0 0)
(202.952 0 0)
(204.346 0 0)
(205.73 0 0)
(207.103 0 0)
(208.465 0 0)
(209.817 0 0)
(211.159 0 0)
(212.489 0 0)
(213.815 0 0)
(215.112 0 0)
(216.458 0 0)
(217.612 0 0)
(219.31 0 0)
(100.378 0 0)
(100.398 0 0)
(100.686 0 0)
(101.218 0 0)
(101.97 0 0)
(102.916 0 0)
(104.027 0 0)
(105.281 0 0)
(106.654 0 0)
(108.125 0 0)
(109.679 0 0)
(111.299 0 0)
(112.974 0 0)
(114.692 0 0)
(116.444 0 0)
(118.223 0 0)
(120.022 0 0)
(121.836 0 0)
(123.66 0 0)
(125.492 0 0)
(127.326 0 0)
(129.162 0 0)
(130.997 0 0)
(132.828 0 0)
(134.655 0 0)
(136.476 0 0)
(138.29 0 0)
(140.096 0 0)
(141.894 0 0)
(143.682 0 0)
(145.46 0 0)
(147.228 0 0)
(148.986 0 0)
(150.732 0 0)
(152.467 0 0)
(154.191 0 0)
(155.904 0 0)
(157.605 0 0)
(159.294 0 0)
(160.972 0 0)
(162.638 0 0)
(164.292 0 0)
(165.934 0 0)
(167.565 0 0)
(169.184 0 0)
(170.791 0 0)
(172.386 0 0)
(173.97 0 0)
(175.542 0 0)
(177.103 0 0)
(178.653 0 0)
(180.19 0 0)
(181.717 0 0)
(183.232 0 0)
(184.736 0 0)
(186.229 0 0)
(187.711 0 0)
(189.182 0 0)
(190.642 0 0)
(192.092 0 0)
(193.53 0 0)
(194.958 0 0)
(196.375 0 0)
(197.782 0 0)
(199.178 0 0)
(200.563 0 0)
(201.939 0 0)
(203.304 0 0)
(204.659 0 0)
(206.003 0 0)
(207.338 0 0)
(208.662 0 0)
(209.977 0 0)
(211.28 0 0)
(212.58 0 0)
(213.851 0 0)
(215.169 0 0)
(216.303 0 0)
(217.962 0 0)
(100.398 0 0)
(100.667 0 0)
(101.169 0 0)
(101.881 0 0)
(102.779 0 0)
(103.838 0 0)
(105.035 0 0)
(106.349 0 0)
(107.761 0 0)
(109.255 0 0)
(110.816 0 0)
(112.431 0 0)
(114.091 0 0)
(115.787 0 0)
(117.51 0 0)
(119.255 0 0)
(121.017 0 0)
(122.79 0 0)
(124.572 0 0)
(126.358 0 0)
(128.147 0 0)
(129.936 0 0)
(131.723 0 0)
(133.507 0 0)
(135.286 0 0)
(137.059 0 0)
(138.825 0 0)
(140.584 0 0)
(142.334 0 0)
(144.075 0 0)
(145.807 0 0)
(147.529 0 0)
(149.241 0 0)
(150.943 0 0)
(152.634 0 0)
(154.314 0 0)
(155.984 0 0)
(157.642 0 0)
(159.289 0 0)
(160.926 0 0)
(162.551 0 0)
(164.165 0 0)
(165.767 0 0)
(167.359 0 0)
(168.939 0 0)
(170.508 0 0)
(172.066 0 0)
(173.613 0 0)
(175.149 0 0)
(176.673 0 0)
(178.187 0 0)
(179.69 0 0)
(181.182 0 0)
(182.663 0 0)
(184.134 0 0)
(185.594 0 0)
(187.043 0 0)
(188.481 0 0)
(189.909 0 0)
(191.327 0 0)
(192.734 0 0)
(194.131 0 0)
(195.518 0 0)
(196.895 0 0)
(198.261 0 0)
(199.618 0 0)
(200.964 0 0)
(202.301 0 0)
(203.627 0 0)
(204.944 0 0)
(206.251 0 0)
(207.548 0 0)
(208.837 0 0)
(210.113 0 0)
(211.386 0 0)
(212.632 0 0)
(213.923 0 0)
(215.036 0 0)
(216.657 0 0)
(100.659 0 0)
(101.139 0 0)
(101.818 0 0)
(102.675 0 0)
(103.687 0 0)
(104.834 0 0)
(106.094 0 0)
(107.451 0 0)
(108.888 0 0)
(110.392 0 0)
(111.952 0 0)
(113.556 0 0)
(115.197 0 0)
(116.867 0 0)
(118.559 0 0)
(120.269 0 0)
(121.993 0 0)
(123.726 0 0)
(125.465 0 0)
(127.207 0 0)
(128.951 0 0)
(130.695 0 0)
(132.435 0 0)
(134.173 0 0)
(135.905 0 0)
(137.632 0 0)
(139.351 0 0)
(141.064 0 0)
(142.768 0 0)
(144.464 0 0)
(146.151 0 0)
(147.829 0 0)
(149.497 0 0)
(151.155 0 0)
(152.803 0 0)
(154.441 0 0)
(156.069 0 0)
(157.686 0 0)
(159.292 0 0)
(160.888 0 0)
(162.474 0 0)
(164.049 0 0)
(165.613 0 0)
(167.166 0 0)
(168.709 0 0)
(170.241 0 0)
(171.762 0 0)
(173.273 0 0)
(174.773 0 0)
(176.263 0 0)
(177.742 0 0)
(179.211 0 0)
(180.669 0 0)
(182.117 0 0)
(183.554 0 0)
(184.981 0 0)
(186.399 0 0)
(187.805 0 0)
(189.202 0 0)
(190.589 0 0)
(191.966 0 0)
(193.333 0 0)
(194.69 0 0)
(196.037 0 0)
(197.374 0 0)
(198.702 0 0)
(200.02 0 0)
(201.328 0 0)
(202.627 0 0)
(203.917 0 0)
(205.196 0 0)
(206.467 0 0)
(207.728 0 0)
(208.979 0 0)
(210.226 0 0)
(211.446 0 0)
(212.711 0 0)
(213.802 0 0)
(215.388 0 0)
(101.124 0 0)
(101.777 0 0)
(102.599 0 0)
(103.57 0 0)
(104.67 0 0)
(105.881 0 0)
(107.187 0 0)
(108.571 0 0)
(110.022 0 0)
(111.527 0 0)
(113.078 0 0)
(114.666 0 0)
(116.284 0 0)
(117.926 0 0)
(119.586 0 0)
(121.26 0 0)
(122.945 0 0)
(124.638 0 0)
(126.335 0 0)
(128.034 0 0)
(129.734 0 0)
(131.433 0 0)
(133.129 0 0)
(134.821 0 0)
(136.508 0 0)
(138.189 0 0)
(139.864 0 0)
(141.532 0 0)
(143.192 0 0)
(144.844 0 0)
(146.488 0 0)
(148.122 0 0)
(149.748 0 0)
(151.364 0 0)
(152.97 0 0)
(154.567 0 0)
(156.154 0 0)
(157.731 0 0)
(159.298 0 0)
(160.855 0 0)
(162.402 0 0)
(163.939 0 0)
(165.466 0 0)
(166.982 0 0)
(168.488 0 0)
(169.984 0 0)
(171.47 0 0)
(172.946 0 0)
(174.411 0 0)
(175.866 0 0)
(177.312 0 0)
(178.747 0 0)
(180.172 0 0)
(181.588 0 0)
(182.993 0 0)
(184.389 0 0)
(185.774 0 0)
(187.15 0 0)
(188.517 0 0)
(189.873 0 0)
(191.22 0 0)
(192.557 0 0)
(193.885 0 0)
(195.203 0 0)
(196.512 0 0)
(197.812 0 0)
(199.102 0 0)
(200.382 0 0)
(201.654 0 0)
(202.916 0 0)
(204.17 0 0)
(205.414 0 0)
(206.649 0 0)
(207.874 0 0)
(209.095 0 0)
(210.29 0 0)
(211.529 0 0)
(212.599 0 0)
(214.15 0 0)
(101.755 0 0)
(102.548 0 0)
(103.483 0 0)
(104.541 0 0)
(105.707 0 0)
(106.964 0 0)
(108.299 0 0)
(109.699 0 0)
(111.153 0 0)
(112.653 0 0)
(114.19 0 0)
(115.758 0 0)
(117.35 0 0)
(118.961 0 0)
(120.588 0 0)
(122.226 0 0)
(123.872 0 0)
(125.525 0 0)
(127.18 0 0)
(128.837 0 0)
(130.494 0 0)
(132.149 0 0)
(133.801 0 0)
(135.45 0 0)
(137.093 0 0)
(138.731 0 0)
(140.362 0 0)
(141.987 0 0)
(143.604 0 0)
(145.214 0 0)
(146.815 0 0)
(148.408 0 0)
(149.992 0 0)
(151.568 0 0)
(153.134 0 0)
(154.691 0 0)
(156.238 0 0)
(157.777 0 0)
(159.305 0 0)
(160.825 0 0)
(162.334 0 0)
(163.834 0 0)
(165.324 0 0)
(166.804 0 0)
(168.275 0 0)
(169.736 0 0)
(171.187 0 0)
(172.629 0 0)
(174.06 0 0)
(175.482 0 0)
(176.895 0 0)
(178.297 0 0)
(179.691 0 0)
(181.074 0 0)
(182.448 0 0)
(183.813 0 0)
(185.168 0 0)
(186.514 0 0)
(187.85 0 0)
(189.177 0 0)
(190.494 0 0)
(191.803 0 0)
(193.102 0 0)
(194.392 0 0)
(195.673 0 0)
(196.945 0 0)
(198.207 0 0)
(199.461 0 0)
(200.706 0 0)
(201.942 0 0)
(203.169 0 0)
(204.387 0 0)
(205.596 0 0)
(206.796 0 0)
(207.992 0 0)
(209.162 0 0)
(210.375 0 0)
(211.424 0 0)
(212.941 0 0)
(102.52 0 0)
(103.423 0 0)
(104.444 0 0)
(105.568 0 0)
(106.781 0 0)
(108.069 0 0)
(109.421 0 0)
(110.826 0 0)
(112.277 0 0)
(113.765 0 0)
(115.284 0 0)
(116.828 0 0)
(118.392 0 0)
(119.971 0 0)
(121.564 0 0)
(123.165 0 0)
(124.773 0 0)
(126.386 0 0)
(128.001 0 0)
(129.616 0 0)
(131.231 0 0)
(132.844 0 0)
(134.454 0 0)
(136.06 0 0)
(137.66 0 0)
(139.256 0 0)
(140.845 0 0)
(142.428 0 0)
(144.004 0 0)
(145.572 0 0)
(147.133 0 0)
(148.685 0 0)
(150.229 0 0)
(151.765 0 0)
(153.292 0 0)
(154.811 0 0)
(156.32 0 0)
(157.821 0 0)
(159.313 0 0)
(160.795 0 0)
(162.268 0 0)
(163.732 0 0)
(165.187 0 0)
(166.632 0 0)
(168.068 0 0)
(169.495 0 0)
(170.913 0 0)
(172.321 0 0)
(173.72 0 0)
(175.109 0 0)
(176.49 0 0)
(177.861 0 0)
(179.222 0 0)
(180.575 0 0)
(181.919 0 0)
(183.253 0 0)
(184.578 0 0)
(185.894 0 0)
(187.201 0 0)
(188.499 0 0)
(189.788 0 0)
(191.068 0 0)
(192.339 0 0)
(193.602 0 0)
(194.855 0 0)
(196.1 0 0)
(197.336 0 0)
(198.563 0 0)
(199.781 0 0)
(200.991 0 0)
(202.192 0 0)
(203.385 0 0)
(204.57 0 0)
(205.744 0 0)
(206.915 0 0)
(208.062 0 0)
(209.249 0 0)
(210.277 0 0)
(211.76 0 0)
(103.389 0 0)
(104.376 0 0)
(105.463 0 0)
(106.634 0 0)
(107.878 0 0)
(109.184 0 0)
(110.544 0 0)
(111.947 0 0)
(113.388 0 0)
(114.86 0 0)
(116.357 0 0)
(117.875 0 0)
(119.409 0 0)
(120.956 0 0)
(122.514 0 0)
(124.079 0 0)
(125.649 0 0)
(127.222 0 0)
(128.797 0 0)
(130.372 0 0)
(131.946 0 0)
(133.518 0 0)
(135.086 0 0)
(136.651 0 0)
(138.21 0 0)
(139.765 0 0)
(141.313 0 0)
(142.855 0 0)
(144.391 0 0)
(145.919 0 0)
(147.44 0 0)
(148.954 0 0)
(150.459 0 0)
(151.957 0 0)
(153.446 0 0)
(154.927 0 0)
(156.4 0 0)
(157.864 0 0)
(159.32 0 0)
(160.766 0 0)
(162.204 0 0)
(163.633 0 0)
(165.054 0 0)
(166.465 0 0)
(167.868 0 0)
(169.261 0 0)
(170.646 0 0)
(172.022 0 0)
(173.389 0 0)
(174.747 0 0)
(176.096 0 0)
(177.436 0 0)
(178.767 0 0)
(180.09 0 0)
(181.404 0 0)
(182.708 0 0)
(184.004 0 0)
(185.292 0 0)
(186.57 0 0)
(187.84 0 0)
(189.101 0 0)
(190.353 0 0)
(191.597 0 0)
(192.832 0 0)
(194.059 0 0)
(195.277 0 0)
(196.487 0 0)
(197.688 0 0)
(198.881 0 0)
(200.065 0 0)
(201.241 0 0)
(202.408 0 0)
(203.568 0 0)
(204.718 0 0)
(205.864 0 0)
(206.987 0 0)
(208.15 0 0)
(209.158 0 0)
(210.607 0 0)
(104.337 0 0)
(105.388 0 0)
(106.521 0 0)
(107.724 0 0)
(108.988 0 0)
(110.303 0 0)
(111.662 0 0)
(113.057 0 0)
(114.483 0 0)
(115.935 0 0)
(117.408 0 0)
(118.898 0 0)
(120.401 0 0)
(121.916 0 0)
(123.438 0 0)
(124.967 0 0)
(126.499 0 0)
(128.034 0 0)
(129.57 0 0)
(131.105 0 0)
(132.639 0 0)
(134.171 0 0)
(135.699 0 0)
(137.223 0 0)
(138.743 0 0)
(140.258 0 0)
(141.767 0 0)
(143.27 0 0)
(144.766 0 0)
(146.256 0 0)
(147.739 0 0)
(149.214 0 0)
(150.683 0 0)
(152.143 0 0)
(153.596 0 0)
(155.041 0 0)
(156.477 0 0)
(157.906 0 0)
(159.326 0 0)
(160.739 0 0)
(162.142 0 0)
(163.538 0 0)
(164.925 0 0)
(166.303 0 0)
(167.673 0 0)
(169.035 0 0)
(170.387 0 0)
(171.732 0 0)
(173.068 0 0)
(174.395 0 0)
(175.713 0 0)
(177.024 0 0)
(178.325 0 0)
(179.618 0 0)
(180.903 0 0)
(182.179 0 0)
(183.446 0 0)
(184.705 0 0)
(185.956 0 0)
(187.198 0 0)
(188.432 0 0)
(189.657 0 0)
(190.874 0 0)
(192.083 0 0)
(193.283 0 0)
(194.476 0 0)
(195.659 0 0)
(196.835 0 0)
(198.003 0 0)
(199.162 0 0)
(200.313 0 0)
(201.456 0 0)
(202.591 0 0)
(203.717 0 0)
(204.84 0 0)
(205.939 0 0)
(207.077 0 0)
(208.065 0 0)
(209.481 0 0)
(105.343 0 0)
(106.44 0 0)
(107.605 0 0)
(108.828 0 0)
(110.101 0 0)
(111.417 0 0)
(112.769 0 0)
(114.151 0 0)
(115.559 0 0)
(116.989 0 0)
(118.435 0 0)
(119.896 0 0)
(121.368 0 0)
(122.849 0 0)
(124.337 0 0)
(125.829 0 0)
(127.325 0 0)
(128.822 0 0)
(130.319 0 0)
(131.816 0 0)
(133.311 0 0)
(134.804 0 0)
(136.293 0 0)
(137.778 0 0)
(139.259 0 0)
(140.736 0 0)
(142.206 0 0)
(143.671 0 0)
(145.13 0 0)
(146.582 0 0)
(148.028 0 0)
(149.467 0 0)
(150.899 0 0)
(152.324 0 0)
(153.741 0 0)
(155.15 0 0)
(156.553 0 0)
(157.947 0 0)
(159.333 0 0)
(160.712 0 0)
(162.082 0 0)
(163.445 0 0)
(164.8 0 0)
(166.146 0 0)
(167.484 0 0)
(168.814 0 0)
(170.136 0 0)
(171.45 0 0)
(172.756 0 0)
(174.053 0 0)
(175.342 0 0)
(176.623 0 0)
(177.895 0 0)
(179.16 0 0)
(180.416 0 0)
(181.664 0 0)
(182.904 0 0)
(184.135 0 0)
(185.359 0 0)
(186.574 0 0)
(187.781 0 0)
(188.98 0 0)
(190.171 0 0)
(191.354 0 0)
(192.528 0 0)
(193.695 0 0)
(194.854 0 0)
(196.004 0 0)
(197.147 0 0)
(198.282 0 0)
(199.409 0 0)
(200.528 0 0)
(201.639 0 0)
(202.741 0 0)
(203.84 0 0)
(204.917 0 0)
(206.031 0 0)
(206.999 0 0)
(208.383 0 0)
(106.39 0 0)
(107.519 0 0)
(108.704 0 0)
(109.937 0 0)
(111.212 0 0)
(112.522 0 0)
(113.862 0 0)
(115.228 0 0)
(116.615 0 0)
(118.02 0 0)
(119.439 0 0)
(120.87 0 0)
(122.31 0 0)
(123.757 0 0)
(125.21 0 0)
(126.667 0 0)
(128.126 0 0)
(129.586 0 0)
(131.046 0 0)
(132.505 0 0)
(133.962 0 0)
(135.417 0 0)
(136.869 0 0)
(138.316 0 0)
(139.76 0 0)
(141.199 0 0)
(142.632 0 0)
(144.06 0 0)
(145.483 0 0)
(146.899 0 0)
(148.309 0 0)
(149.712 0 0)
(151.109 0 0)
(152.499 0 0)
(153.882 0 0)
(155.257 0 0)
(156.626 0 0)
(157.987 0 0)
(159.34 0 0)
(160.686 0 0)
(162.024 0 0)
(163.355 0 0)
(164.678 0 0)
(165.994 0 0)
(167.301 0 0)
(168.601 0 0)
(169.893 0 0)
(171.176 0 0)
(172.453 0 0)
(173.721 0 0)
(174.981 0 0)
(176.233 0 0)
(177.478 0 0)
(178.714 0 0)
(179.943 0 0)
(181.163 0 0)
(182.376 0 0)
(183.581 0 0)
(184.778 0 0)
(185.966 0 0)
(187.148 0 0)
(188.321 0 0)
(189.486 0 0)
(190.644 0 0)
(191.793 0 0)
(192.935 0 0)
(194.069 0 0)
(195.195 0 0)
(196.314 0 0)
(197.425 0 0)
(198.528 0 0)
(199.623 0 0)
(200.711 0 0)
(201.79 0 0)
(202.866 0 0)
(203.92 0 0)
(205.01 0 0)
(205.959 0 0)
(207.311 0 0)
(107.463 0 0)
(108.612 0 0)
(109.808 0 0)
(111.043 0 0)
(112.314 0 0)
(113.613 0 0)
(114.938 0 0)
(116.284 0 0)
(117.648 0 0)
(119.027 0 0)
(120.417 0 0)
(121.818 0 0)
(123.226 0 0)
(124.64 0 0)
(126.059 0 0)
(127.48 0 0)
(128.903 0 0)
(130.327 0 0)
(131.751 0 0)
(133.173 0 0)
(134.594 0 0)
(136.012 0 0)
(137.427 0 0)
(138.838 0 0)
(140.245 0 0)
(141.648 0 0)
(143.045 0 0)
(144.438 0 0)
(145.825 0 0)
(147.206 0 0)
(148.581 0 0)
(149.95 0 0)
(151.313 0 0)
(152.669 0 0)
(154.018 0 0)
(155.361 0 0)
(156.697 0 0)
(158.025 0 0)
(159.347 0 0)
(160.661 0 0)
(161.968 0 0)
(163.268 0 0)
(164.561 0 0)
(165.846 0 0)
(167.123 0 0)
(168.393 0 0)
(169.656 0 0)
(170.911 0 0)
(172.158 0 0)
(173.398 0 0)
(174.63 0 0)
(175.855 0 0)
(177.072 0 0)
(178.281 0 0)
(179.483 0 0)
(180.677 0 0)
(181.863 0 0)
(183.041 0 0)
(184.212 0 0)
(185.376 0 0)
(186.531 0 0)
(187.679 0 0)
(188.82 0 0)
(189.953 0 0)
(191.078 0 0)
(192.195 0 0)
(193.305 0 0)
(194.408 0 0)
(195.502 0 0)
(196.59 0 0)
(197.669 0 0)
(198.742 0 0)
(199.807 0 0)
(200.863 0 0)
(201.916 0 0)
(202.948 0 0)
(204.015 0 0)
(204.945 0 0)
(206.266 0 0)
(108.552 0 0)
(109.712 0 0)
(110.91 0 0)
(112.142 0 0)
(113.403 0 0)
(114.688 0 0)
(115.994 0 0)
(117.318 0 0)
(118.658 0 0)
(120.009 0 0)
(121.371 0 0)
(122.74 0 0)
(124.117 0 0)
(125.498 0 0)
(126.882 0 0)
(128.269 0 0)
(129.658 0 0)
(131.046 0 0)
(132.434 0 0)
(133.821 0 0)
(135.206 0 0)
(136.589 0 0)
(137.968 0 0)
(139.344 0 0)
(140.715 0 0)
(142.083 0 0)
(143.446 0 0)
(144.804 0 0)
(146.156 0 0)
(147.504 0 0)
(148.845 0 0)
(150.181 0 0)
(151.511 0 0)
(152.834 0 0)
(154.151 0 0)
(155.462 0 0)
(156.766 0 0)
(158.063 0 0)
(159.354 0 0)
(160.637 0 0)
(161.914 0 0)
(163.184 0 0)
(164.447 0 0)
(165.702 0 0)
(166.951 0 0)
(168.192 0 0)
(169.426 0 0)
(170.653 0 0)
(171.873 0 0)
(173.085 0 0)
(174.29 0 0)
(175.487 0 0)
(176.678 0 0)
(177.86 0 0)
(179.036 0 0)
(180.204 0 0)
(181.364 0 0)
(182.517 0 0)
(183.663 0 0)
(184.801 0 0)
(185.932 0 0)
(187.055 0 0)
(188.171 0 0)
(189.28 0 0)
(190.381 0 0)
(191.475 0 0)
(192.561 0 0)
(193.64 0 0)
(194.712 0 0)
(195.776 0 0)
(196.833 0 0)
(197.883 0 0)
(198.925 0 0)
(199.959 0 0)
(200.99 0 0)
(202 0 0)
(203.044 0 0)
(203.956 0 0)
(205.246 0 0)
(109.647 0 0)
(110.81 0 0)
(112.005 0 0)
(113.228 0 0)
(114.475 0 0)
(115.743 0 0)
(117.029 0 0)
(118.33 0 0)
(119.643 0 0)
(120.966 0 0)
(122.299 0 0)
(123.638 0 0)
(124.982 0 0)
(126.331 0 0)
(127.682 0 0)
(129.035 0 0)
(130.39 0 0)
(131.744 0 0)
(133.097 0 0)
(134.449 0 0)
(135.8 0 0)
(137.147 0 0)
(138.492 0 0)
(139.834 0 0)
(141.171 0 0)
(142.505 0 0)
(143.834 0 0)
(145.159 0 0)
(146.478 0 0)
(147.792 0 0)
(149.101 0 0)
(150.405 0 0)
(151.702 0 0)
(152.994 0 0)
(154.28 0 0)
(155.56 0 0)
(156.833 0 0)
(158.1 0 0)
(159.36 0 0)
(160.614 0 0)
(161.862 0 0)
(163.102 0 0)
(164.336 0 0)
(165.564 0 0)
(166.784 0 0)
(167.997 0 0)
(169.204 0 0)
(170.403 0 0)
(171.596 0 0)
(172.781 0 0)
(173.959 0 0)
(175.13 0 0)
(176.295 0 0)
(177.451 0 0)
(178.601 0 0)
(179.744 0 0)
(180.879 0 0)
(182.008 0 0)
(183.129 0 0)
(184.242 0 0)
(185.349 0 0)
(186.449 0 0)
(187.541 0 0)
(188.626 0 0)
(189.703 0 0)
(190.774 0 0)
(191.837 0 0)
(192.893 0 0)
(193.942 0 0)
(194.984 0 0)
(196.019 0 0)
(197.046 0 0)
(198.067 0 0)
(199.079 0 0)
(200.088 0 0)
(201.077 0 0)
(202.098 0 0)
(202.991 0 0)
(204.252 0 0)
(110.741 0 0)
(111.901 0 0)
(113.088 0 0)
(114.298 0 0)
(115.529 0 0)
(116.778 0 0)
(118.041 0 0)
(119.317 0 0)
(120.603 0 0)
(121.899 0 0)
(123.202 0 0)
(124.51 0 0)
(125.823 0 0)
(127.14 0 0)
(128.458 0 0)
(129.778 0 0)
(131.099 0 0)
(132.42 0 0)
(133.74 0 0)
(135.058 0 0)
(136.375 0 0)
(137.689 0 0)
(139.001 0 0)
(140.309 0 0)
(141.613 0 0)
(142.914 0 0)
(144.21 0 0)
(145.503 0 0)
(146.79 0 0)
(148.072 0 0)
(149.35 0 0)
(150.622 0 0)
(151.889 0 0)
(153.15 0 0)
(154.405 0 0)
(155.655 0 0)
(156.898 0 0)
(158.136 0 0)
(159.367 0 0)
(160.592 0 0)
(161.811 0 0)
(163.023 0 0)
(164.229 0 0)
(165.429 0 0)
(166.622 0 0)
(167.808 0 0)
(168.987 0 0)
(170.16 0 0)
(171.326 0 0)
(172.486 0 0)
(173.638 0 0)
(174.784 0 0)
(175.923 0 0)
(177.054 0 0)
(178.179 0 0)
(179.297 0 0)
(180.408 0 0)
(181.512 0 0)
(182.609 0 0)
(183.699 0 0)
(184.782 0 0)
(185.858 0 0)
(186.927 0 0)
(187.989 0 0)
(189.044 0 0)
(190.092 0 0)
(191.133 0 0)
(192.166 0 0)
(193.193 0 0)
(194.213 0 0)
(195.225 0 0)
(196.231 0 0)
(197.23 0 0)
(198.221 0 0)
(199.208 0 0)
(200.177 0 0)
(201.176 0 0)
(202.051 0 0)
(203.282 0 0)
(111.829 0 0)
(112.981 0 0)
(114.156 0 0)
(115.35 0 0)
(116.562 0 0)
(117.789 0 0)
(119.029 0 0)
(120.28 0 0)
(121.539 0 0)
(122.806 0 0)
(124.08 0 0)
(125.358 0 0)
(126.64 0 0)
(127.925 0 0)
(129.211 0 0)
(130.499 0 0)
(131.788 0 0)
(133.076 0 0)
(134.363 0 0)
(135.649 0 0)
(136.933 0 0)
(138.214 0 0)
(139.493 0 0)
(140.769 0 0)
(142.042 0 0)
(143.31 0 0)
(144.575 0 0)
(145.836 0 0)
(147.092 0 0)
(148.344 0 0)
(149.591 0 0)
(150.833 0 0)
(152.069 0 0)
(153.301 0 0)
(154.527 0 0)
(155.747 0 0)
(156.962 0 0)
(158.171 0 0)
(159.374 0 0)
(160.571 0 0)
(161.762 0 0)
(162.947 0 0)
(164.126 0 0)
(165.298 0 0)
(166.464 0 0)
(167.624 0 0)
(168.778 0 0)
(169.925 0 0)
(171.065 0 0)
(172.199 0 0)
(173.326 0 0)
(174.447 0 0)
(175.561 0 0)
(176.668 0 0)
(177.769 0 0)
(178.863 0 0)
(179.95 0 0)
(181.031 0 0)
(182.104 0 0)
(183.171 0 0)
(184.231 0 0)
(185.284 0 0)
(186.33 0 0)
(187.37 0 0)
(188.402 0 0)
(189.428 0 0)
(190.447 0 0)
(191.459 0 0)
(192.464 0 0)
(193.462 0 0)
(194.453 0 0)
(195.437 0 0)
(196.415 0 0)
(197.385 0 0)
(198.352 0 0)
(199.3 0 0)
(200.277 0 0)
(201.135 0 0)
(202.337 0 0)
(112.904 0 0)
(114.045 0 0)
(115.205 0 0)
(116.382 0 0)
(117.574 0 0)
(118.778 0 0)
(119.993 0 0)
(121.218 0 0)
(122.45 0 0)
(123.689 0 0)
(124.933 0 0)
(126.181 0 0)
(127.432 0 0)
(128.686 0 0)
(129.942 0 0)
(131.198 0 0)
(132.455 0 0)
(133.711 0 0)
(134.967 0 0)
(136.221 0 0)
(137.473 0 0)
(138.723 0 0)
(139.971 0 0)
(141.215 0 0)
(142.457 0 0)
(143.695 0 0)
(144.929 0 0)
(146.159 0 0)
(147.386 0 0)
(148.607 0 0)
(149.825 0 0)
(151.037 0 0)
(152.245 0 0)
(153.447 0 0)
(154.645 0 0)
(155.837 0 0)
(157.024 0 0)
(158.205 0 0)
(159.38 0 0)
(160.55 0 0)
(161.715 0 0)
(162.873 0 0)
(164.025 0 0)
(165.172 0 0)
(166.312 0 0)
(167.446 0 0)
(168.574 0 0)
(169.696 0 0)
(170.812 0 0)
(171.921 0 0)
(173.024 0 0)
(174.12 0 0)
(175.21 0 0)
(176.294 0 0)
(177.371 0 0)
(178.441 0 0)
(179.505 0 0)
(180.562 0 0)
(181.613 0 0)
(182.657 0 0)
(183.695 0 0)
(184.726 0 0)
(185.75 0 0)
(186.767 0 0)
(187.778 0 0)
(188.782 0 0)
(189.779 0 0)
(190.77 0 0)
(191.753 0 0)
(192.731 0 0)
(193.701 0 0)
(194.664 0 0)
(195.622 0 0)
(196.571 0 0)
(197.517 0 0)
(198.445 0 0)
(199.402 0 0)
(200.242 0 0)
(201.415 0 0)
(113.965 0 0)
(115.091 0 0)
(116.234 0 0)
(117.392 0 0)
(118.561 0 0)
(119.742 0 0)
(120.932 0 0)
(122.131 0 0)
(123.336 0 0)
(124.546 0 0)
(125.761 0 0)
(126.98 0 0)
(128.202 0 0)
(129.425 0 0)
(130.65 0 0)
(131.876 0 0)
(133.102 0 0)
(134.327 0 0)
(135.552 0 0)
(136.775 0 0)
(137.997 0 0)
(139.216 0 0)
(140.433 0 0)
(141.648 0 0)
(142.859 0 0)
(144.067 0 0)
(145.272 0 0)
(146.473 0 0)
(147.67 0 0)
(148.863 0 0)
(150.051 0 0)
(151.235 0 0)
(152.415 0 0)
(153.589 0 0)
(154.759 0 0)
(155.924 0 0)
(157.084 0 0)
(158.238 0 0)
(159.387 0 0)
(160.531 0 0)
(161.669 0 0)
(162.801 0 0)
(163.928 0 0)
(165.049 0 0)
(166.164 0 0)
(167.274 0 0)
(168.377 0 0)
(169.474 0 0)
(170.566 0 0)
(171.651 0 0)
(172.73 0 0)
(173.803 0 0)
(174.869 0 0)
(175.93 0 0)
(176.984 0 0)
(178.031 0 0)
(179.073 0 0)
(180.108 0 0)
(181.136 0 0)
(182.158 0 0)
(183.174 0 0)
(184.183 0 0)
(185.185 0 0)
(186.181 0 0)
(187.17 0 0)
(188.153 0 0)
(189.13 0 0)
(190.099 0 0)
(191.062 0 0)
(192.019 0 0)
(192.969 0 0)
(193.912 0 0)
(194.849 0 0)
(195.778 0 0)
(196.704 0 0)
(197.612 0 0)
(198.549 0 0)
(199.372 0 0)
(200.518 0 0)
(115.008 0 0)
(116.118 0 0)
(117.242 0 0)
(118.378 0 0)
(119.526 0 0)
(120.682 0 0)
(121.847 0 0)
(123.019 0 0)
(124.197 0 0)
(125.379 0 0)
(126.566 0 0)
(127.756 0 0)
(128.948 0 0)
(130.142 0 0)
(131.337 0 0)
(132.533 0 0)
(133.729 0 0)
(134.925 0 0)
(136.119 0 0)
(137.313 0 0)
(138.505 0 0)
(139.694 0 0)
(140.882 0 0)
(142.067 0 0)
(143.249 0 0)
(144.429 0 0)
(145.605 0 0)
(146.777 0 0)
(147.946 0 0)
(149.11 0 0)
(150.271 0 0)
(151.428 0 0)
(152.58 0 0)
(153.728 0 0)
(154.871 0 0)
(156.009 0 0)
(157.142 0 0)
(158.27 0 0)
(159.394 0 0)
(160.512 0 0)
(161.624 0 0)
(162.732 0 0)
(163.834 0 0)
(164.93 0 0)
(166.021 0 0)
(167.106 0 0)
(168.185 0 0)
(169.259 0 0)
(170.327 0 0)
(171.389 0 0)
(172.444 0 0)
(173.494 0 0)
(174.538 0 0)
(175.576 0 0)
(176.608 0 0)
(177.633 0 0)
(178.652 0 0)
(179.665 0 0)
(180.672 0 0)
(181.673 0 0)
(182.667 0 0)
(183.655 0 0)
(184.636 0 0)
(185.611 0 0)
(186.58 0 0)
(187.542 0 0)
(188.498 0 0)
(189.447 0 0)
(190.39 0 0)
(191.326 0 0)
(192.256 0 0)
(193.179 0 0)
(194.096 0 0)
(195.006 0 0)
(195.912 0 0)
(196.802 0 0)
(197.717 0 0)
(198.524 0 0)
(199.643 0 0)
(116.032 0 0)
(117.123 0 0)
(118.227 0 0)
(119.341 0 0)
(120.465 0 0)
(121.598 0 0)
(122.737 0 0)
(123.883 0 0)
(125.033 0 0)
(126.188 0 0)
(127.347 0 0)
(128.508 0 0)
(129.672 0 0)
(130.837 0 0)
(132.004 0 0)
(133.17 0 0)
(134.337 0 0)
(135.503 0 0)
(136.669 0 0)
(137.834 0 0)
(138.997 0 0)
(140.158 0 0)
(141.317 0 0)
(142.474 0 0)
(143.628 0 0)
(144.779 0 0)
(145.927 0 0)
(147.072 0 0)
(148.213 0 0)
(149.351 0 0)
(150.485 0 0)
(151.614 0 0)
(152.74 0 0)
(153.862 0 0)
(154.979 0 0)
(156.091 0 0)
(157.199 0 0)
(158.302 0 0)
(159.4 0 0)
(160.493 0 0)
(161.581 0 0)
(162.664 0 0)
(163.742 0 0)
(164.815 0 0)
(165.882 0 0)
(166.943 0 0)
(168 0 0)
(169.05 0 0)
(170.095 0 0)
(171.134 0 0)
(172.167 0 0)
(173.195 0 0)
(174.217 0 0)
(175.232 0 0)
(176.242 0 0)
(177.246 0 0)
(178.244 0 0)
(179.236 0 0)
(180.221 0 0)
(181.201 0 0)
(182.174 0 0)
(183.141 0 0)
(184.102 0 0)
(185.057 0 0)
(186.005 0 0)
(186.947 0 0)
(187.883 0 0)
(188.812 0 0)
(189.735 0 0)
(190.652 0 0)
(191.562 0 0)
(192.466 0 0)
(193.364 0 0)
(194.254 0 0)
(195.141 0 0)
(196.012 0 0)
(196.908 0 0)
(197.698 0 0)
(198.79 0 0)
(117.034 0 0)
(118.106 0 0)
(119.188 0 0)
(120.28 0 0)
(121.381 0 0)
(122.488 0 0)
(123.602 0 0)
(124.722 0 0)
(125.846 0 0)
(126.974 0 0)
(128.105 0 0)
(129.239 0 0)
(130.374 0 0)
(131.511 0 0)
(132.649 0 0)
(133.788 0 0)
(134.926 0 0)
(136.065 0 0)
(137.202 0 0)
(138.338 0 0)
(139.473 0 0)
(140.607 0 0)
(141.738 0 0)
(142.867 0 0)
(143.994 0 0)
(145.118 0 0)
(146.239 0 0)
(147.358 0 0)
(148.472 0 0)
(149.584 0 0)
(150.692 0 0)
(151.796 0 0)
(152.896 0 0)
(153.992 0 0)
(155.083 0 0)
(156.171 0 0)
(157.254 0 0)
(158.333 0 0)
(159.407 0 0)
(160.476 0 0)
(161.54 0 0)
(162.599 0 0)
(163.654 0 0)
(164.703 0 0)
(165.747 0 0)
(166.786 0 0)
(167.819 0 0)
(168.847 0 0)
(169.87 0 0)
(170.887 0 0)
(171.898 0 0)
(172.904 0 0)
(173.904 0 0)
(174.899 0 0)
(175.888 0 0)
(176.87 0 0)
(177.847 0 0)
(178.818 0 0)
(179.783 0 0)
(180.742 0 0)
(181.695 0 0)
(182.642 0 0)
(183.583 0 0)
(184.518 0 0)
(185.446 0 0)
(186.369 0 0)
(187.285 0 0)
(188.195 0 0)
(189.099 0 0)
(189.996 0 0)
(190.887 0 0)
(191.772 0 0)
(192.651 0 0)
(193.522 0 0)
(194.391 0 0)
(195.243 0 0)
(196.12 0 0)
(196.894 0 0)
(197.96 0 0)
(118.013 0 0)
(119.065 0 0)
(120.126 0 0)
(121.195 0 0)
(122.272 0 0)
(123.355 0 0)
(124.443 0 0)
(125.537 0 0)
(126.635 0 0)
(127.736 0 0)
(128.84 0 0)
(129.947 0 0)
(131.055 0 0)
(132.165 0 0)
(133.276 0 0)
(134.387 0 0)
(135.498 0 0)
(136.608 0 0)
(137.719 0 0)
(138.828 0 0)
(139.936 0 0)
(141.042 0 0)
(142.147 0 0)
(143.249 0 0)
(144.35 0 0)
(145.447 0 0)
(146.542 0 0)
(147.635 0 0)
(148.724 0 0)
(149.81 0 0)
(150.892 0 0)
(151.971 0 0)
(153.046 0 0)
(154.118 0 0)
(155.185 0 0)
(156.249 0 0)
(157.308 0 0)
(158.363 0 0)
(159.413 0 0)
(160.459 0 0)
(161.5 0 0)
(162.536 0 0)
(163.568 0 0)
(164.595 0 0)
(165.616 0 0)
(166.633 0 0)
(167.644 0 0)
(168.651 0 0)
(169.652 0 0)
(170.647 0 0)
(171.637 0 0)
(172.622 0 0)
(173.601 0 0)
(174.575 0 0)
(175.543 0 0)
(176.505 0 0)
(177.462 0 0)
(178.412 0 0)
(179.357 0 0)
(180.297 0 0)
(181.23 0 0)
(182.157 0 0)
(183.078 0 0)
(183.994 0 0)
(184.903 0 0)
(185.806 0 0)
(186.703 0 0)
(187.594 0 0)
(188.479 0 0)
(189.358 0 0)
(190.23 0 0)
(191.097 0 0)
(191.957 0 0)
(192.81 0 0)
(193.66 0 0)
(194.494 0 0)
(195.352 0 0)
(196.111 0 0)
(197.151 0 0)
(118.97 0 0)
(120 0 0)
(121.039 0 0)
(122.085 0 0)
(123.138 0 0)
(124.197 0 0)
(125.26 0 0)
(126.329 0 0)
(127.401 0 0)
(128.476 0 0)
(129.554 0 0)
(130.634 0 0)
(131.716 0 0)
(132.799 0 0)
(133.883 0 0)
(134.967 0 0)
(136.051 0 0)
(137.136 0 0)
(138.219 0 0)
(139.302 0 0)
(140.384 0 0)
(141.464 0 0)
(142.543 0 0)
(143.619 0 0)
(144.694 0 0)
(145.766 0 0)
(146.836 0 0)
(147.903 0 0)
(148.968 0 0)
(150.029 0 0)
(151.087 0 0)
(152.142 0 0)
(153.193 0 0)
(154.24 0 0)
(155.284 0 0)
(156.324 0 0)
(157.36 0 0)
(158.392 0 0)
(159.419 0 0)
(160.442 0 0)
(161.461 0 0)
(162.475 0 0)
(163.485 0 0)
(164.49 0 0)
(165.49 0 0)
(166.485 0 0)
(167.475 0 0)
(168.46 0 0)
(169.44 0 0)
(170.414 0 0)
(171.384 0 0)
(172.348 0 0)
(173.307 0 0)
(174.26 0 0)
(175.208 0 0)
(176.15 0 0)
(177.087 0 0)
(178.018 0 0)
(178.944 0 0)
(179.863 0 0)
(180.777 0 0)
(181.685 0 0)
(182.588 0 0)
(183.484 0 0)
(184.374 0 0)
(185.259 0 0)
(186.137 0 0)
(187.01 0 0)
(187.876 0 0)
(188.737 0 0)
(189.591 0 0)
(190.439 0 0)
(191.281 0 0)
(192.117 0 0)
(192.949 0 0)
(193.765 0 0)
(194.604 0 0)
(195.348 0 0)
(196.363 0 0)
(119.903 0 0)
(120.912 0 0)
(121.928 0 0)
(122.951 0 0)
(123.98 0 0)
(125.015 0 0)
(126.054 0 0)
(127.097 0 0)
(128.144 0 0)
(129.193 0 0)
(130.246 0 0)
(131.3 0 0)
(132.356 0 0)
(133.413 0 0)
(134.471 0 0)
(135.529 0 0)
(136.588 0 0)
(137.646 0 0)
(138.704 0 0)
(139.762 0 0)
(140.818 0 0)
(141.873 0 0)
(142.926 0 0)
(143.978 0 0)
(145.028 0 0)
(146.076 0 0)
(147.121 0 0)
(148.164 0 0)
(149.204 0 0)
(150.242 0 0)
(151.276 0 0)
(152.307 0 0)
(153.335 0 0)
(154.359 0 0)
(155.38 0 0)
(156.397 0 0)
(157.411 0 0)
(158.42 0 0)
(159.426 0 0)
(160.427 0 0)
(161.424 0 0)
(162.416 0 0)
(163.404 0 0)
(164.388 0 0)
(165.367 0 0)
(166.341 0 0)
(167.31 0 0)
(168.275 0 0)
(169.234 0 0)
(170.189 0 0)
(171.138 0 0)
(172.082 0 0)
(173.021 0 0)
(173.955 0 0)
(174.883 0 0)
(175.806 0 0)
(176.723 0 0)
(177.635 0 0)
(178.542 0 0)
(179.443 0 0)
(180.338 0 0)
(181.227 0 0)
(182.111 0 0)
(182.989 0 0)
(183.861 0 0)
(184.727 0 0)
(185.587 0 0)
(186.442 0 0)
(187.29 0 0)
(188.133 0 0)
(188.969 0 0)
(189.8 0 0)
(190.624 0 0)
(191.442 0 0)
(192.256 0 0)
(193.056 0 0)
(193.877 0 0)
(194.606 0 0)
(195.596 0 0)
(120.812 0 0)
(121.799 0 0)
(122.793 0 0)
(123.793 0 0)
(124.799 0 0)
(125.809 0 0)
(126.824 0 0)
(127.843 0 0)
(128.865 0 0)
(129.889 0 0)
(130.917 0 0)
(131.946 0 0)
(132.977 0 0)
(134.008 0 0)
(135.041 0 0)
(136.075 0 0)
(137.108 0 0)
(138.142 0 0)
(139.175 0 0)
(140.207 0 0)
(141.239 0 0)
(142.269 0 0)
(143.298 0 0)
(144.326 0 0)
(145.352 0 0)
(146.376 0 0)
(147.397 0 0)
(148.417 0 0)
(149.434 0 0)
(150.448 0 0)
(151.459 0 0)
(152.468 0 0)
(153.473 0 0)
(154.475 0 0)
(155.474 0 0)
(156.469 0 0)
(157.46 0 0)
(158.448 0 0)
(159.432 0 0)