/*--------------------------------*- C++ -*----------------------------------*\
| =========                 |                                                 |
| \\      /  F ield         | OpenFOAM: The Open Source CFD Toolbox           |
|  \\    /   O peration     | Version:  2312                                  |
|   \\  /    A nd           | Website:  www.openfoam.com                      |
|    \\/     M anipulation  |                                                 |
\*---------------------------------------------------------------------------*/
FoamFile
{
    version     2.0;
    format      ascii;
    arch        "LSB;label=32;scalar=64";
    class       surfaceScalarField;
    location    "0.477";
    object      phi;
}
// * * * * * * * * * * * * * * * * * * * * * * * * * * * * * * * * * * * * * //

dimensions      [0 3 -1 0 0 0 0];

oriented        oriented;

internalField   nonuniform List<scalar> 
62015
(
48.6935
0.255983
-48.1701
49.1939
0.254584
49.6726
0.252825
50.1312
0.250717
50.5714
0.248266
50.9944
0.245482
51.4015
0.24237
51.7941
0.23894
52.1733
0.235198
52.5401
0.231151
52.8955
0.226805
53.2406
0.222168
53.5763
0.217246
53.9033
0.212046
54.2227
0.206574
54.5351
0.200836
54.8412
0.194838
55.1419
0.188588
55.4377
0.18209
55.7294
0.175353
56.0175
0.168381
56.3026
0.161181
56.5853
0.15376
56.8662
0.146123
57.1457
0.138278
57.4244
0.130231
57.7026
0.121987
57.981
0.113554
58.2598
0.104939
58.5395
0.0961465
58.8205
0.0871847
59.1031
0.0780593
59.3877
0.0687783
59.6747
0.059347
59.9644
0.0497732
60.257
0.040063
60.5529
0.0302241
60.8522
0.0202623
61.1554
0.0101853
61.4626
0
61.774
-0.010287
62.0898
-0.0206675
62.4103
-0.0311363
62.7355
-0.0416843
63.0658
-0.0523059
63.4012
-0.0629928
63.7418
-0.0737387
64.0878
-0.0845354
64.4393
-0.095377
64.7964
-0.106255
65.1591
-0.117162
65.5275
-0.128092
65.9017
-0.139037
66.2818
-0.149989
66.6676
-0.160941
67.0593
-0.171887
67.4568
-0.182818
67.8601
-0.193727
68.2693
-0.204607
68.6841
-0.215451
69.1046
-0.226251
69.5307
-0.237
69.9623
-0.247691
70.3993
-0.258316
70.8416
-0.268868
71.289
-0.27934
71.7414
-0.289725
72.1986
-0.300015
72.6604
-0.310204
73.1267
-0.320283
73.5972
-0.330247
74.0717
-0.340088
74.5499
-0.349798
75.0316
-0.359372
75.5163
-0.368802
76.0048
-0.378078
76.4924
-0.38721
76.9939
-0.396125
-0.405048
77.4578
47.8888
0.511476
-47.4229
48.3352
0.508196
48.7629
0.50424
49.1732
0.499624
49.5674
0.494363
49.9468
0.488469
50.3124
0.481957
50.6655
0.474839
51.0069
0.467129
51.3377
0.458839
51.6587
0.44998
51.9707
0.440566
52.2748
0.430608
52.5715
0.420118
52.8616
0.409108
53.1459
0.39759
53.425
0.385576
53.6995
0.373077
53.9702
0.360105
54.2374
0.346671
54.5019
0.332789
54.7642
0.31847
55.0247
0.303725
55.284
0.288567
55.5424
0.273007
55.8006
0.25706
56.0589
0.240735
56.3177
0.224046
56.5774
0.207005
56.8384
0.189625
57.1011
0.171919
57.3657
0.153899
57.6327
0.135577
57.9022
0.116968
58.1747
0.0980839
58.4505
0.0789377
58.7296
0.0595429
59.0125
0.0399126
59.2994
0.0200607
59.5904
0
59.8858
-0.0202557
60.1858
-0.0406926
60.4905
-0.0612975
60.8002
-0.0820565
61.1149
-0.102955
61.4348
-0.12398
61.7601
-0.145118
62.0909
-0.166354
62.4272
-0.187674
62.7691
-0.209065
63.1168
-0.230512
63.4702
-0.252001
63.8294
-0.273518
64.1946
-0.295049
64.5656
-0.31658
64.9425
-0.338096
65.3253
-0.359584
65.714
-0.381029
66.1085
-0.402416
66.5088
-0.423733
66.9149
-0.444964
67.3267
-0.466096
67.7441
-0.487115
68.1669
-0.508006
68.5952
-0.528756
69.0288
-0.54935
69.4675
-0.569775
69.9112
-0.590017
70.3598
-0.610062
70.8129
-0.629897
71.2706
-0.649507
71.7325
-0.668879
72.1984
-0.688
72.6681
-0.706856
73.1411
-0.725435
73.6184
-0.743714
74.0951
-0.761721
74.5864
-0.7793
-0.796919
75.0408
47.0866
0.766201
-46.6734
47.4831
0.760612
47.8634
0.754068
48.2288
0.74659
48.5803
0.738195
48.9191
0.728903
49.2461
0.718732
49.5622
0.707698
49.8684
0.695818
50.1654
0.68311
50.4541
0.66959
50.7353
0.655275
51.0096
0.640182
51.2778
0.624326
51.5405
0.607724
51.7983
0.590393
52.0519
0.572349
52.3019
0.553608
52.5487
0.534188
52.793
0.514104
53.0351
0.493374
53.2757
0.472014
53.5152
0.450042
53.754
0.427475
53.9926
0.404329
54.2313
0.380623
54.4706
0.356374
54.7109
0.3316
54.9524
0.306318
55.1957
0.280547
55.4409
0.254305
55.6884
0.22761
55.9384
0.200481
56.1914
0.172936
56.4476
0.144994
56.7071
0.116674
56.9703
0.0879959
57.2374
0.0589774
57.5087
0.0296394
57.7842
0
58.0643
-0.0299206
58.349
-0.0601024
58.6386
-0.0905259
58.9332
-0.121171
59.233
-0.152019
59.5381
-0.183047
59.8486
-0.214238
60.1645
-0.245569
60.4861
-0.277022
60.8134
-0.308575
61.1465
-0.340208
61.4853
-0.371901
61.83
-0.403633
62.1807
-0.435384
62.5372
-0.467133
62.8997
-0.498859
63.2681
-0.530542
63.6424
-0.562162
64.0227
-0.593698
64.4088
-0.625129
64.8007
-0.656436
65.1983
-0.687597
65.6016
-0.718591
66.0105
-0.7494
66.425
-0.780003
66.8447
-0.810378
67.2698
-0.840508
67.7
-0.87037
68.1352
-0.899946
68.5751
-0.929216
69.0198
-0.958159
69.4688
-0.986757
69.9222
-1.01499
70.3796
-1.04284
70.8405
-1.07029
71.3061
-1.0973
71.7714
-1.12391
72.2517
-1.1499
-1.17598
72.6955
46.271
1.01964
-45.9054
46.6222
1.01138
46.9596
1.00191
47.2841
0.991273
47.5968
0.979474
47.8985
0.96654
48.1901
0.952491
48.4724
0.937348
48.7462
0.921132
49.0122
0.903864
49.2712
0.885562
49.5238
0.866248
49.7708
0.845941
50.0126
0.824662
50.2499
0.802432
50.4832
0.77927
50.7132
0.755197
50.9403
0.730234
51.165
0.704401
51.3878
0.67772
51.6092
0.650212
51.8296
0.621897
52.0494
0.592798
52.2691
0.562936
52.489
0.532334
52.7095
0.501012
52.931
0.468995
53.1539
0.436304
53.3784
0.402962
53.6048
0.368992
53.8336
0.334418
54.0649
0.299263
54.2991
0.263552
54.5363
0.227306
54.777
0.190552
55.0212
0.153312
55.2693
0.115613
55.5214
0.0774774
55.7778
0.0389316
56.0386
0
56.304
-0.039292
56.5742
-0.078919
56.8494
-0.118856
57.1296
-0.159076
57.4151
-0.199555
57.7059
-0.240265
58.0022
-0.281182
58.304
-0.322279
58.6114
-0.36353
58.9246
-0.404908
59.2436
-0.446388
59.5684
-0.487942
59.899
-0.529545
60.2356
-0.571169
60.5781
-0.612789
60.9266
-0.654378
61.2811
-0.69591
61.6414
-0.737357
62.0077
-0.778693
62.3799
-0.819893
62.7579
-0.860929
63.1417
-0.901775
63.5312
-0.942406
63.9264
-0.982794
64.3271
-1.02291
64.7333
-1.06274
65.1448
-1.10225
65.5616
-1.14141
65.9834
-1.1802
66.4102
-1.21859
66.8418
-1.25656
67.278
-1.29408
67.7186
-1.33113
68.1635
-1.36768
68.6122
-1.40372
69.0657
-1.43919
69.5192
-1.47416
69.9881
-1.5083
-1.5426
70.4208
45.4375
1.27125
-45.1148
45.7481
1.26001
46.0466
1.24735
46.3342
1.2333
46.6116
1.21787
46.8797
1.20109
47.1391
1.18299
47.3906
1.16358
47.6349
1.1429
47.8726
1.12095
48.1045
1.09778
48.331
1.07339
48.5528
1.04782
48.7704
1.02108
48.9843
0.9932
49.1951
0.964207
49.4033
0.934121
49.6093
0.902967
49.8135
0.87077
50.0165
0.837554
50.2187
0.803345
50.4203
0.768167
50.6219
0.732047
50.8238
0.69501
51.0264
0.657082
51.2299
0.61829
51.4349
0.578661
51.6414
0.538222
51.85
0.496999
52.0607
0.455022
52.2741
0.412317
52.4902
0.368913
52.7094
0.324839
52.9319
0.280124
53.1579
0.234795
53.3877
0.188884
53.6215
0.142419
53.8595
0.0954295
54.1018
0.0479464
54.3486
0
54.6002
-0.0483795
54.8566
-0.0971618
55.118
-0.146315
55.3846
-0.19581
55.6564
-0.245614
55.9336
-0.295695
56.2162
-0.346024
56.5045
-0.396567
56.7984
-0.447294
57.098
-0.498172
57.4034
-0.549169
57.7147
-0.600255
58.0318
-0.651396
58.3549
-0.702561
58.6839
-0.753717
59.0188
-0.804832
59.3597
-0.855876
59.7065
-0.906814
60.0593
-0.957616
60.4179
-1.00825
60.7824
-1.05868
61.1527
-1.10888
61.5288
-1.15882
61.9105
-1.20846
62.2978
-1.25777
62.6906
-1.30672
63.0888
-1.35529
63.4923
-1.40343
63.901
-1.45112
64.3147
-1.49833
64.7333
-1.54503
65.1566
-1.59118
65.5845
-1.63676
66.0169
-1.68173
66.4531
-1.72608
66.8945
-1.76974
67.336
-1.8128
67.7931
-1.85483
-1.89712
68.2146
44.5871
1.52055
-44.3028
44.8609
1.50609
45.1246
1.49001
45.3788
1.47233
45.6243
1.45309
45.8619
1.43231
46.0921
1.41001
46.3157
1.38621
46.5331
1.36095
46.7451
1.33425
46.9521
1.30613
47.1548
1.27661
47.3536
1.24574
47.549
1.21353
47.7416
1.18
47.9317
1.14519
48.1198
1.10912
48.3064
1.07182
48.4919
1.03331
48.6766
0.993635
48.8609
0.95281
49.0452
0.910868
49.2299
0.867837
49.4154
0.823748
49.6018
0.77863
49.7896
0.732514
49.9791
0.685431
50.1705
0.637411
50.3641
0.588488
50.5603
0.538691
50.7592
0.488054
50.9611
0.436609
51.1663
0.38439
51.3749
0.331429
51.5872
0.277761
51.8034
0.223418
52.0237
0.168436
52.2483
0.112849
52.4773
0.0566922
52.711
0
52.9494
-0.0571919
53.1927
-0.114848
53.4411
-0.172932
53.6946
-0.231409
53.9534
-0.290242
54.2177
-0.349394
54.4874
-0.40883
54.7627
-0.468511
55.0436
-0.528402
55.3303
-0.588466
55.6227
-0.648665
55.921
-0.708963
56.2251
-0.769321
56.5352
-0.829704
56.8511
-0.890073
57.173
-0.950391
57.5008
-1.01062
57.8346
-1.07073
58.1742
-1.13067
58.5197
-1.19041
58.8711
-1.24992
59.2283
-1.30915
59.5912
-1.36807
59.9598
-1.42664
60.334
-1.48483
60.7137
-1.5426
61.0989
-1.59992
61.4893
-1.65674
61.8851
-1.71303
62.2858
-1.76876
62.6916
-1.82388
63.1022
-1.87838
63.5174
-1.9322
63.9373
-1.98532
64.3611
-2.03771
64.7903
-2.08929
65.2196
-2.14018
65.6649
-2.18986
-2.23988
66.075
43.7226
1.76713
-43.4728
43.9634
1.74924
44.1956
1.72955
44.4197
1.70809
44.6364
1.68489
44.8463
1.65997
45.0501
1.63335
45.2482
1.60508
45.4413
1.57516
45.6298
1.54363
45.8143
1.51052
45.9952
1.47586
46.173
1.43966
46.3481
1.40197
46.5211
1.36281
46.6922
1.32221
46.8619
1.28019
47.0307
1.2368
47.1988
1.19206
47.3666
1.146
47.5346
1.09865
47.7029
1.05004
47.872
1.00022
48.0422
0.949203
48.2137
0.897033
48.3868
0.843741
48.5619
0.789362
48.7392
0.733931
48.919
0.677483
49.1015
0.620055
49.2869
0.561681
49.4755
0.5024
49.6676
0.442248
49.8632
0.381263
50.0626
0.319482
50.2661
0.256944
50.4737
0.193688
50.6857
0.129752
50.9021
0.0651767
51.1233
0
51.3493
-0.0657373
51.5802
-0.131995
51.8162
-0.198732
52.0574
-0.265909
52.3039
-0.333484
52.5557
-0.401417
52.8131
-0.469664
53.076
-0.538187
53.3446
-0.606942
53.6188
-0.675888
53.8989
-0.744982
54.1847
-0.814184
54.4763
-0.88345
54.7739
-0.952738
55.0773
-1.02201
55.3866
-1.09122
55.7018
-1.16032
56.0229
-1.22928
56.3499
-1.29805
56.6827
-1.36658
57.0214
-1.43485
57.3658
-1.5028
57.7159
-1.5704
58.0718
-1.6376
58.4332
-1.70436
58.8001
-1.77064
59.1725
-1.83641
59.5503
-1.9016
59.9332
-1.9662
60.3214
-2.03016
60.7145
-2.09343
61.1125
-2.15598
61.5152
-2.21778
61.9226
-2.27877
62.3341
-2.33893
62.7511
-2.39818
63.1684
-2.45664
63.6016
-2.51372
-2.57123
64.0004
42.8475
2.01067
-42.6288
43.0586
1.98918
43.2624
1.96573
43.4593
1.94035
43.6499
1.91306
43.8348
1.8839
44.0146
1.85289
44.1897
1.82005
44.3605
1.78542
44.5277
1.74903
44.6916
1.7109
44.8526
1.67107
45.0112
1.62956
45.1678
1.5864
45.3228
1.54163
45.4765
1.49527
45.6294
1.44737
45.7817
1.39795
45.9339
1.34704
46.0862
1.29468
46.239
1.2409
46.3926
1.18575
46.5472
1.12925
46.7032
1.07143
46.8609
1.01235
47.0205
0.952031
47.1822
0.890514
47.3464
0.827838
47.5133
0.764043
47.683
0.699167
47.8559
0.63325
48.032
0.566333
48.2118
0.498457
48.3952
0.429663
48.5825
0.359993
48.774
0.28949
48.9696
0.218196
49.1697
0.146153
49.3744
0.0734069
49.5838
0
49.798
-0.0740232
50.0172
-0.148618
50.2414
-0.22374
50.4709
-0.299344
50.7056
-0.375385
50.9457
-0.451816
51.1913
-0.528592
51.4425
-0.605667
51.6992
-0.682995
51.9616
-0.76053
52.2298
-0.838224
52.5037
-0.916032
52.7833
-0.993907
53.0689
-1.0718
53.3602
-1.14967
53.6574
-1.22746
53.9605
-1.30514
54.2694
-1.38264
54.5841
-1.45994
54.9047
-1.53697
55.231
-1.6137
55.5631
-1.69007
55.9009
-1.76604
56.2443
-1.84157
56.5933
-1.91661
56.9478
-1.99111
57.3077
-2.06502
57.673
-2.13831
58.0435
-2.21093
58.4192
-2.28284
58.7999
-2.35398
59.1855
-2.42431
59.5759
-2.4938
59.971
-2.5624
60.3703
-2.63007
60.7751
-2.69673
61.1804
-2.76252
61.6015
-2.82675
-2.8915
61.9891
41.9653
2.25087
-41.7745
42.1496
2.22565
42.3277
2.19832
42.5
2.16891
42.6671
2.13745
42.8293
2.10396
42.9873
2.06849
43.1414
2.03105
43.2921
1.99167
43.4398
1.95039
43.5849
1.90723
43.7278
1.86222
43.8689
1.81541
44.0085
1.76681
44.147
1.71647
44.2848
1.66441
44.4222
1.61067
44.5594
1.55528
44.6969
1.49829
44.8349
1.43973
44.9737
1.37963
45.1137
1.31803
45.255
1.25498
45.3979
1.1905
45.5428
1.12464
45.6897
1.05744
45.8391
0.988947
45.9911
0.919193
46.1459
0.848224
46.3037
0.776083
46.4648
0.702812
46.6294
0.628457
46.7976
0.553061
46.9696
0.476669
47.1455
0.399328
47.3257
0.321083
47.5101
0.24198
47.699
0.162067
47.8926
0.0813912
48.0908
0
48.2939
-0.0820583
48.5019
-0.164735
48.7151
-0.247981
48.9334
-0.331748
49.157
-0.415985
49.3859
-0.500643
49.6203
-0.585673
49.8602
-0.671023
50.1057
-0.756643
50.3568
-0.842484
50.6135
-0.928493
50.876
-1.01462
51.1442
-1.10081
51.4182
-1.18702
51.698
-1.2732
51.9836
-1.35929
52.2749
-1.44524
52.5721
-1.531
52.875
-1.61653
53.1837
-1.70176
53.4981
-1.78665
53.8183
-1.87116
54.144
-1.95522
54.4754
-2.03878
54.8123
-2.12181
55.1547
-2.20424
55.5025
-2.28603
55.8556
-2.36714
56.214
-2.4475
56.5775
-2.52707
56.946
-2.60581
57.3194
-2.68366
57.6977
-2.76059
58.0807
-2.83653
58.4679
-2.91146
58.8607
-2.98527
59.2541
-3.05814
59.6632
-3.12929
-3.20105
60.0396
41.079
2.48752
-40.9135
41.2392
2.45845
41.3941
2.42714
41.5442
2.39362
41.6898
2.35791
41.8316
2.32005
41.9697
2.28007
42.1048
2.23799
42.2371
2.19384
42.3671
2.14766
42.4951
2.09947
42.6214
2.04931
42.7465
1.99721
42.8706
1.94321
42.994
1.88734
43.1172
1.82963
43.2403
1.77013
43.3637
1.70886
43.4877
1.64587
43.6125
1.5812
43.7385
1.51488
43.8658
1.44696
43.9948
1.37747
44.1256
1.30646
44.2585
1.23397
44.3938
1.16004
44.5317
1.08472
44.6723
1.00805
44.8159
0.930084
44.9626
0.850857
45.1128
0.770419
45.2664
0.688818
45.4238
0.606102
45.5851
0.52232
45.7504
0.437519
45.92
0.35175
46.0939
0.265063
46.2722
0.177508
46.4552
0.0891364
46.6429
0
46.8355
-0.0898495
47.033
-0.18036
47.2356
-0.271478
47.4434
-0.363152
47.6564
-0.455327
47.8747
-0.54795
48.0984
-0.640967
48.3276
-0.734323
48.5623
-0.827965
48.8025
-0.921837
49.0484
-1.01589
49.3
-1.11005
49.5572
-1.20429
49.8201
-1.29853
50.0888
-1.39274
50.3631
-1.48684
50.6433
-1.58079
50.9291
-1.67452
51.2206
-1.76799
51.5179
-1.86115
51.8208
-1.95393
52.1294
-2.04628
52.4435
-2.13814
52.7632
-2.22947
53.0884
-2.32021
53.419
-2.4103
53.755
-2.49969
54.0962
-2.58833
54.4427
-2.67617
54.7943
-2.76315
55.1509
-2.84922
55.5125
-2.93433
55.8788
-3.01843
56.2499
-3.10147
56.6252
-3.18341
57.0061
-3.26413
57.3878
-3.34384
57.7849
-3.42167
-3.50019
58.1504
40.1915
2.72041
-40.0486
40.3299
2.68741
40.4638
2.65205
40.5937
2.61436
40.72
2.57436
40.8431
2.53208
40.9633
2.48756
41.0811
2.44082
41.1967
2.3919
41.3105
2.34082
41.4229
2.28762
41.5341
2.23233
41.6445
2.17498
41.7544
2.11562
41.8641
2.05428
41.9738
1.99099
42.0839
1.92579
42.1945
1.85872
42.3061
1.78983
42.4188
1.71914
42.5329
1.64671
42.6486
1.57258
42.7661
1.49679
42.8857
1.41937
43.0076
1.34039
43.1321
1.25989
43.2592
1.1779
43.3892
1.09448
43.5224
1.00968
43.6588
0.923542
43.7987
0.836121
43.9422
0.747464
44.0895
0.657624
44.2407
0.566651
44.396
0.474598
44.5556
0.381518
44.7195
0.287463
44.888
0.192489
45.061
0.0966497
45.2388
0
45.4214
-0.0974047
45.609
-0.195509
45.8016
-0.294256
45.9993
-0.393588
46.2022
-0.49345
46.4104
-0.593784
46.624
-0.694531
46.8429
-0.795635
47.0674
-0.897036
47.2973
-0.998676
47.5328
-1.1005
47.7739
-1.20244
48.0205
-1.30445
48.2729
-1.40646
48.5308
-1.50841
48.7945
-1.61026
49.0637
-1.71193
49.3387
-1.81337
49.6193
-1.91451
49.9055
-2.01531
50.1972
-2.1157
50.4946
-2.21563
50.7975
-2.31503
51.1059
-2.41385
51.4197
-2.51203
51.7389
-2.60951
52.0634
-2.70624
52.3931
-2.80216
52.728
-2.89721
53.068
-2.99134
53.413
-3.08449
53.7628
-3.1766
54.1175
-3.26763
54.4769
-3.35751
54.8406
-3.44622
55.2098
-3.53362
55.5799
-3.61993
55.9651
-3.70421
-3.78926
56.3198
39.305
2.94939
-39.1826
39.4237
2.9124
39.5386
2.87294
39.6503
2.83103
39.7591
2.7867
39.8653
2.73999
39.9692
2.69092
40.0712
2.63952
40.1716
2.58582
40.2708
2.52986
40.3689
2.47167
40.4663
2.41128
40.5633
2.34874
40.6602
2.28407
40.7573
2.21731
40.8547
2.1485
40.9528
2.07769
41.0517
2.00491
41.1519
1.93021
41.2534
1.85362
41.3565
1.77519
41.4614
1.69496
41.5684
1.61299
41.6777
1.52931
41.7894
1.44398
41.9037
1.35704
42.0209
1.26854
42.1411
1.17853
42.2645
1.08707
42.3913
0.994193
42.5216
0.899967
42.6556
0.80444
42.7934
0.707666
42.9352
0.6097
43.0812
0.510596
43.2314
0.410412
43.3859
0.309203
43.545
0.207025
43.7087
0.103939
43.8771
0
44.0503
-0.104731
44.2284
-0.210197
44.4115
-0.316335
44.5997
-0.423088
44.7931
-0.530394
44.9917
-0.638192
45.1955
-0.746422
45.4048
-0.855022
45.6194
-0.96393
45.8395
-1.07308
46.065
-1.18242
46.2961
-1.29188
46.5326
-1.4014
46.7748
-1.51091
47.0225
-1.62036
47.2758
-1.72968
47.5347
-1.83881
47.7991
-1.94769
48.0691
-2.05625
48.3447
-2.16443
48.6257
-2.27217
48.9123
-2.37941
49.2043
-2.48609
49.5017
-2.59214
49.8045
-2.6975
50.1126
-2.80212
50.4259
-2.90592
50.7444
-3.00886
51.0681
-3.11088
51.3968
-3.2119
51.7304
-3.31188
52.0689
-3.41076
52.4121
-3.50847
52.7601
-3.60496
53.1123
-3.7002
53.47
-3.79404
53.8287
-3.88672
54.2023
-3.97723
-4.06859
54.5463
38.4216
3.17433
-38.3177
38.5225
3.1333
38.6204
3.0897
38.7156
3.04355
38.8084
2.99488
38.8993
2.94372
38.9884
2.8901
39.0761
2.83405
39.1627
2.7756
39.2484
2.71478
39.3336
2.65164
39.4184
2.5862
39.5032
2.5185
39.5882
2.44858
39.6737
2.37648
39.7598
2.30224
39.8469
2.22589
39.9351
2.14749
40.0247
2.06707
40.116
1.98468
40.209
1.90036
40.304
1.81417
40.4012
1.72614
40.5009
1.63633
40.6031
1.54479
40.7081
1.45156
40.8161
1.3567
40.9271
1.26026
41.0415
1.1623
41.1592
1.06286
41.2806
0.962006
41.4057
0.859791
41.5347
0.75627
41.6676
0.651503
41.8047
0.545545
41.9461
0.438458
42.0919
0.330299
42.2421
0.221129
42.3969
0.111009
42.5565
0
42.7208
-0.111836
42.8899
-0.224437
43.0641
-0.337739
43.2433
-0.45168
43.4275
-0.566196
43.617
-0.681222
43.8116
-0.796694
44.0116
-0.912547
44.2168
-1.02872
44.4275
-1.14514
44.6435
-1.26174
44.865
-1.37847
45.0919
-1.49525
45.3243
-1.61202
45.5622
-1.72871
45.8055
-1.84525
46.0544
-1.96159
46.3087
-2.07765
46.5686
-2.19336
46.8338
-2.30868
47.1045
-2.42351
47.3806
-2.53781
47.6621
-2.65151
47.9489
-2.76454
48.2411
-2.87683
48.5384
-2.98833
48.8409
-3.09897
49.1486
-3.20869
49.4612
-3.31742
49.7789
-3.4251
50.1015
-3.53167
50.4288
-3.63707
50.7609
-3.74123
51.0977
-3.8441
51.4387
-3.94564
51.7852
-4.04569
52.1327
-4.14452
52.4948
-4.24105
-4.33848
52.8284
37.5432
3.39512
-37.456
37.628
3.35003
37.7104
3.30227
37.7907
3.25186
37.8691
3.19885
37.9461
3.14325
38.0218
3.08509
38.0965
3.0244
38.1705
2.96123
38.2441
2.8956
38.3174
2.82754
38.3907
2.7571
38.4644
2.68431
38.5385
2.6092
38.6133
2.53183
38.6892
2.45223
38.7661
2.37044
38.8445
2.28651
38.9244
2.20047
39.0062
2.11239
39.0899
2.0223
39.1758
1.93026
39.264
1.8363
39.3547
1.7405
39.4482
1.64288
39.5445
1.54351
39.6439
1.44244
39.7464
1.33973
39.8523
1.23543
39.9617
1.1296
40.0747
1.02229
40.1915
0.91356
40.3121
0.803476
40.4368
0.692093
40.5657
0.579474
40.6987
0.465679
40.8362
0.350772
40.9781
0.234813
41.1246
0.117868
41.2757
0
41.4316
-0.118726
41.5923
-0.238244
41.758
-0.358488
41.9286
-0.479393
42.1042
-0.600891
42.2849
-0.722916
42.4708
-0.845398
42.6619
-0.968272
42.8583
-1.09147
43.0599
-1.21492
43.2668
-1.33855
43.4791
-1.4623
43.6968
-1.5861
43.9198
-1.70988
44.1483
-1.83356
44.3821
-1.95709
44.6213
-2.08039
44.8659
-2.20339
45.116
-2.32602
45.3713
-2.44821
45.632
-2.5699
45.8981
-2.69102
46.1694
-2.81149
46.446
-2.93125
46.7277
-3.05024
47.0147
-3.16838
47.3067
-3.28561
47.6038
-3.40187
47.9058
-3.51708
48.2128
-3.63118
48.5246
-3.74411
48.8411
-3.8558
49.1623
-3.96619
49.4882
-4.07521
49.8183
-4.18282
50.1537
-4.28887
50.4903
-4.39363
50.841
-4.49596
-4.59925
51.1645
36.6713
3.61168
-36.5991
36.7416
3.56251
36.81
3.51059
36.8768
3.45593
36.9422
3.39858
37.0065
3.33855
37.0701
3.27587
37.133
3.21059
37.1955
3.14272
37.258
3.07232
37.3205
2.9994
37.3834
2.92401
37.4468
2.84619
37.511
2.76597
37.5762
2.68341
37.6426
2.59853
37.7103
2.51139
37.7796
2.42202
37.8506
2.33048
37.9236
2.23681
37.9988
2.14107
38.0762
2.04329
38.1561
1.94354
38.2386
1.84187
38.3239
1.73832
38.4122
1.63295
38.5036
1.52583
38.5982
1.41699
38.6963
1.30652
38.7978
1.19445
38.903
1.08085
39.012
0.96579
39.1249
0.84932
39.2418
0.731506
39.3629
0.612412
39.4882
0.492101
39.6178
0.370639
39.7519
0.24809
39.8905
0.124521
40.0337
0
40.1816
-0.125407
40.3343
-0.251631
40.4919
-0.378603
40.6543
-0.506255
40.8217
-0.634516
40.9942
-0.763316
41.1717
-0.892585
41.3544
-1.02225
41.5422
-1.15225
41.7352
-1.2825
41.9335
-1.41293
42.137
-1.54347
42.3458
-1.67406
42.5599
-1.80461
42.7792
-1.93506
43.0039
-2.06533
43.2339
-2.19535
43.4692
-2.32505
43.7098
-2.45435
43.9556
-2.58319
44.2067
-2.7115
44.463
-2.83919
44.7245
-2.96621
44.9911
-3.09248
45.2629
-3.21792
45.5398
-3.34247
45.8216
-3.46606
46.1084
-3.58863
46.4002
-3.71009
46.6967
-3.83039
46.9981
-3.94945
47.3041
-4.06721
47.6147
-4.1836
47.9299
-4.29855
48.2493
-4.41203
48.5739
-4.52386
48.8998
-4.63434
49.2395
-4.74227
-4.8512
49.553
35.8073
3.82395
-35.7487
35.8645
3.77071
35.9202
3.71463
35.9748
3.65573
36.0284
3.59405
36.0814
3.52962
36.1338
3.46246
36.186
3.39261
36.2382
3.3201
36.2905
3.24497
36.3433
3.16725
36.3966
3.08698
36.4507
3.00419
36.5059
2.91894
36.5622
2.83126
36.6198
2.7412
36.6791
2.64879
36.7401
2.55409
36.8029
2.45715
36.8679
2.35801
36.9351
2.25672
37.0048
2.15334
37.077
2.04792
37.1519
1.94051
37.2297
1.83116
37.3105
1.71994
37.3945
1.6069
37.4818
1.49211
37.5724
1.37561
37.6667
1.25747
37.7646
1.13775
37.8663
1.01652
37.9719
0.893841
38.0816
0.769774
38.1953
0.644387
38.3133
0.517745
38.4355
0.389918
38.5622
0.260972
38.6934
0.130976
38.8291
-2.64053e-07
38.9695
-0.131886
39.1146
-0.264611
39.2645
-0.398103
39.4192
-0.532291
39.5789
-0.667103
39.7434
-0.802465
39.913
-0.938304
40.0876
-1.07455
40.2673
-1.21112
40.4521
-1.34795
40.6421
-1.48495
40.8372
-1.62207
41.0375
-1.75921
41.243
-1.89631
41.4537
-2.03329
41.6696
-2.17008
41.8907
-2.3066
42.117
-2.44277
42.3484
-2.57852
42.5851
-2.71378
42.8269
-2.84847
43.0738
-2.98252
43.3258
-3.11585
43.5829
-3.24839
43.845
-3.38007
44.1121
-3.51081
44.3841
-3.64053
44.661
-3.76918
44.9427
-3.89668
45.2292
-4.02295
45.5204
-4.14792
45.8162
-4.27154
46.1164
-4.39372
46.4213
-4.51439
46.7302
-4.63353
47.0444
-4.75094
47.3598
-4.86693
47.6886
-4.98025
-5.09463
47.9924
34.9523
4.0319
-34.906
34.9977
3.97459
35.042
3.91436
35.0856
3.85125
35.1285
3.78528
35.1711
3.71647
35.2136
3.64487
35.256
3.5705
35.2988
3.49339
35.342
3.41359
35.3858
3.33113
35.4304
3.24604
35.476
3.15837
35.5229
3.06816
35.5711
2.97545
35.6208
2.88029
35.6723
2.78272
35.7256
2.68278
35.781
2.58054
35.8386
2.47604
35.8986
2.36933
35.961
2.26046
36.0261
2.14949
36.094
2.03648
36.1648
1.92148
36.2387
1.80454
36.3158
1.68574
36.3962
1.56512
36.4801
1.44275
36.5675
1.3187
36.6586
1.19303
36.7535
1.0658
36.8523
0.937076
36.9551
0.806929
37.062
0.675426
37.1731
0.542635
37.2884
0.408626
37.4081
0.27347
37.5323
0.137237
37.6609
0
37.7942
-0.138169
37.9321
-0.277196
38.0747
-0.417008
38.2221
-0.557529
38.3743
-0.698686
38.5314
-0.840401
38.6934
-0.982601
38.8604
-1.12521
39.0323
-1.26814
39.2093
-1.41134
39.3913
-1.5547
39.5783
-1.69817
39.7705
-1.84165
39.9678
-1.98508
40.1701
-2.12838
40.3776
-2.27146
40.5901
-2.41426
40.8078
-2.55668
41.0305
-2.69866
41.2583
-2.84012
41.4912
-2.98098
41.7291
-3.12116
41.972
-3.26058
42.2198
-3.39918
42.4726
-3.53687
42.7302
-3.67358
42.9927
-3.80923
43.26
-3.94375
43.532
-4.07706
43.8087
-4.20909
44.09
-4.33978
44.3758
-4.46903
44.6661
-4.5968
44.9608
-4.72299
45.2596
-4.84757
45.5635
-4.97036
45.8688
-5.09167
46.1869
-5.2102
-5.32981
46.4813
34.1075
4.23548
-34.0721
34.1422
4.17413
34.1762
4.10978
34.2098
4.04248
34.2431
3.97225
34.2763
3.89912
34.3097
3.82311
34.3434
3.74427
34.3775
3.66263
34.4124
3.57822
34.4481
3.49108
34.4848
3.40124
34.5227
3.30876
34.562
3.21368
34.6028
3.11603
34.6453
3.01586
34.6896
2.91322
34.736
2.80816
34.7845
2.70072
34.8353
2.59097
34.8885
2.47895
34.9443
2.36472
35.0029
2.24833
35.0642
2.12984
35.1286
2.00932
35.1961
1.88681
35.2668
1.76238
35.3408
1.63609
35.4183
1.50801
35.4994
1.3782
35.5842
1.24673
35.6727
1.11366
35.7651
0.979059
35.8615
0.843002
35.9619
0.705556
36.0665
0.566791
36.1754
0.426781
36.2885
0.285596
36.406
0.143311
36.528
0
36.6545
-0.144262
36.7856
-0.289399
36.9213
-0.435335
37.0617
-0.581993
37.2069
-0.729296
37.3569
-0.877165
37.5116
-1.02552
37.6713
-1.17429
37.8358
-1.32339
38.0053
-1.47273
38.1797
-1.62225
38.3591
-1.77186
38.5435
-1.92148
38.7328
-2.07103
38.9272
-2.22043
39.1266
-2.3696
39.3309
-2.51845
39.5403
-2.66692
39.7546
-2.81491
39.9739
-2.96236
40.1981
-3.10917
40.4273
-3.25527
40.6614
-3.40058
40.9003
-3.54502
41.144
-3.68851
41.3926
-3.83098
41.6459
-3.97234
41.9038
-4.11253
42.1664
-4.25145
42.4336
-4.38904
42.7053
-4.52523
42.9815
-4.65993
43.262
-4.79308
43.547
-4.92459
43.8359
-5.05443
44.1298
-5.1824
44.4251
-5.30883
44.733
-5.43239
-5.55704
45.0181
33.2737
4.4347
-33.2482
33.2988
4.36933
33.3235
4.3009
33.3481
4.22944
33.3727
4.15499
33.3974
4.07758
33.4226
3.99722
33.4483
3.91397
33.4747
3.82785
33.5019
3.73889
33.5303
3.64715
33.5598
3.55265
33.5906
3.45543
33.623
3.35555
33.6571
3.25305
33.693
3.14797
33.7308
3.04036
33.7707
2.93027
33.8129
2.81776
33.8574
2.70286
33.9045
2.58565
33.9542
2.46618
34.0067
2.34449
34.0621
2.22066
34.1205
2.09474
34.182
1.96679
34.2467
1.83688
34.3149
1.70507
34.3864
1.57142
34.4616
1.436
34.5404
1.29889
34.623
1.16014
34.7094
1.01983
34.7998
0.878024
34.8942
0.734803
34.9927
0.590236
35.0954
0.444397
35.2023
0.297361
35.3136
0.149203
35.4292
0
35.5493
-0.150171
35.674
-0.301231
35.8032
-0.453103
35.937
-0.605707
36.0754
-0.758964
36.2186
-0.912792
36.3665
-1.06711
36.5192
-1.22184
36.6767
-1.3769
36.839
-1.5322
37.0062
-1.68767
37.1782
-1.84322
37.3551
-1.99877
37.5369
-2.15423
37.7236
-2.30953
37.9152
-2.46458
38.1117
-2.6193
38.3131
-2.7736
38.5193
-2.9274
38.7304
-3.08063
38.9464
-3.23319
39.1671
-3.385
39.3927
-3.53599
39.623
-3.68607
39.858
-3.83517
40.0978
-3.98319
40.3421
-4.13007
40.5911
-4.27571
40.8446
-4.42005
41.1026
-4.56301
41.365
-4.7045
41.6318
-4.84445
41.9029
-4.98279
42.1783
-5.11943
42.4577
-5.25433
42.7419
-5.3873
43.0275
-5.51867
43.3253
-5.64707
-5.77657
43.6014
32.4516
4.62955
-32.4351
32.468
4.56019
32.4844
4.48771
32.5009
4.41215
32.5176
4.33353
32.5347
4.25188
32.5524
4.16724
32.5709
4.07963
32.5903
3.98909
32.6107
3.89567
32.6323
3.79939
32.6553
3.7003
32.6797
3.59843
32.7058
3.49385
32.7337
3.38658
32.7635
3.27669
32.7954
3.16421
32.8294
3.04919
32.8658
2.9317
32.9046
2.81178
32.946
2.6895
32.9901
2.5649
33.037
2.43804
33.0868
2.30899
33.1397
2.17781
33.1957
2.04456
33.255
1.9093
33.3176
1.7721
33.3836
1.63303
33.4533
1.49216
33.5265
1.34955
33.6035
1.20528
33.6844
1.05941
33.7691
0.912025
33.8578
0.763192
33.9506
0.612989
34.0475
0.461491
34.1486
0.308775
34.2539
0.154918
34.3636
0
34.4777
-0.155901
34.5962
-0.312705
34.7192
-0.47033
34.8467
-0.628695
34.9788
-0.787719
35.1155
-0.947318
35.2569
-1.10741
35.4029
-1.26791
35.5537
-1.42874
35.7091
-1.58981
35.8694
-1.75103
36.0344
-1.91233
36.2041
-2.07361
36.3787
-2.23479
36.558
-2.39579
36.7422
-2.55652
36.9311
-2.7169
37.1248
-2.87684
37.3233
-3.03626
37.5265
-3.19506
37.7345
-3.35318
37.9471
-3.51051
38.1645
-3.66698
38.3865
-3.82251
38.6131
-3.97701
38.8444
-4.13039
39.0801
-4.28259
39.3204
-4.43351
39.5651
-4.58307
39.8142
-4.73119
40.0676
-4.8778
40.3254
-5.02281
40.5873
-5.16616
40.8534
-5.30774
41.1234
-5.44753
41.3982
-5.58531
41.6745
-5.72144
41.9624
-5.8545
-5.98867
42.2298
31.6419
4.82004
-31.6334
31.6506
4.74674
31.6594
4.67026
31.6686
4.59064
31.6782
4.5079
31.6884
4.42207
31.6994
4.3332
31.7114
4.2413
31.7244
4.14642
31.7386
4.04859
31.7541
3.94785
31.7711
3.84425
31.7898
3.73783
31.8102
3.62862
31.8324
3.51669
31.8567
3.40207
31.8831
3.28482
31.9118
3.16499
31.9429
3.04263
31.9764
2.91779
32.0126
2.79055
32.0515
2.66094
32.0933
2.52903
32.1379
2.39489
32.1857
2.25858
32.2366
2.12016
32.2907
1.97969
32.3482
1.83725
32.4092
1.6929
32.4736
1.54671
32.5417
1.39876
32.6135
1.24911
32.6891
1.09785
32.7685
0.945032
32.8519
0.790749
32.9393
0.635072
33.0307
0.478079
33.1263
0.319849
33.2261
0.160463
33.3301
-2.63994e-07
33.4385
-0.161458
33.5512
-0.323829
33.6683
-0.487031
33.7898
-0.65098
33.9159
-0.81559
34.0465
-0.98078
34.1816
-1.14646
34.3213
-1.31255
34.4656
-1.47896
34.6146
-1.6456
34.7682
-1.8124
34.9264
-1.97925
35.0894
-2.14608
35.257
-2.31279
35.4293
-2.4793
35.6063
-2.64553
35.7879
-2.81138
35.9743
-2.97676
36.1653
-3.1416
36.3609
-3.3058
36.5612
-3.46927
36.7661
-3.63193
36.9755
-3.7937
37.1895
-3.95448
37.408
-4.1142
37.6311
-4.27276
37.8585
-4.43008
38.0903
-4.58608
38.3265
-4.74068
38.567
-4.89379
38.8118
-5.04534
39.0607
-5.19523
39.3137
-5.3434
39.5709
-5.48975
39.8319
-5.63424
40.0975
-5.77667
40.3646
-5.91738
40.643
-6.05494
-6.1936
40.9019
30.8452
5.00619
-30.8439
30.8469
4.92899
30.8489
4.84856
30.8515
4.76493
30.8547
4.67813
30.8588
4.58819
30.8637
4.49515
30.8698
4.39903
30.877
4.29987
30.8856
4.19772
30.8956
4.09261
30.9073
3.98458
30.9206
3.87367
30.9358
3.75994
30.953
3.64343
30.9722
3.52419
30.9936
3.40227
31.0174
3.27772
31.0436
3.1506
31.0723
3.02096
31.1037
2.88886
31.1378
2.75437
31.1748
2.61754
31.2148
2.47843
31.2578
2.33711
31.304
2.19365
31.3534
2.0481
31.4061
1.90055
31.4623
1.75106
31.5219
1.59971
31.5852
1.44656
31.6521
1.29168
31.7228
1.13516
31.7972
0.977076
31.8756
0.817496
31.9579
0.656502
32.0442
0.494174
32.1346
0.330594
32.2291
0.165842
32.3278
0
32.4307
-0.166848
32.5379
-0.334617
32.6495
-0.503224
32.7654
-0.672582
32.8856
-0.842606
33.0104
-1.01321
33.1396
-1.1843
33.2732
-1.3558
33.4114
-1.52762
33.5541
-1.69966
33.7014
-1.87184
33.8532
-2.04407
34.0096
-2.21626
34.1706
-2.38832
34.3361
-2.56016
34.5063
-2.73169
34.681
-2.90283
34.8602
-3.07348
35.044
-3.24355
35.2324
-3.41295
35.4253
-3.5816
35.6226
-3.74941
35.8245
-3.91629
36.0307
-4.08214
36.2414
-4.24689
36.4565
-4.41045
36.6759
-4.57272
36.8996
-4.73363
37.1276
-4.89309
37.3598
-5.05101
37.5961
-5.20731
37.8365
-5.36191
38.081
-5.51472
38.3294
-5.66567
38.5816
-5.81469
38.8384
-5.9616
39.0966
-6.10672
39.3657
-6.24862
-6.3916