/*--------------------------------*- C++ -*----------------------------------*\
| =========                 |                                                 |
| \\      /  F ield         | OpenFOAM: The Open Source CFD Toolbox           |
|  \\    /   O peration     | Version:  2312                                  |
|   \\  /    A nd           | Website:  www.openfoam.com                      |
|    \\/     M anipulation  |                                                 |
\*---------------------------------------------------------------------------*/
FoamFile
{
    version     2.0;
    format      ascii;
    arch        "LSB;label=32;scalar=64";
    class       surfaceScalarField;
    location    "0.856";
    object      phi;
}
// * * * * * * * * * * * * * * * * * * * * * * * * * * * * * * * * * * * * * //

dimensions      [0 3 -1 0 0 0 0];

oriented        oriented;

internalField   nonuniform List<scalar> 
62015
(
86.3806
0.168517
-86.2669
86.4846
0.165573
86.5791
0.16252
86.6646
0.15936
86.7412
0.156098
86.8094
0.152734
86.8694
0.149273
86.9215
0.145716
86.9659
0.142067
87.0029
0.138328
87.0326
0.134502
87.0553
0.130591
87.0712
0.1266
87.0803
0.12253
87.0829
0.118385
87.0791
0.114168
87.0689
0.109882
87.0526
0.10553
87.0301
0.101115
87.0016
0.0966411
86.9671
0.0921108
86.9265
0.0875272
86.8801
0.0828941
86.8276
0.0782149
86.7692
0.0734927
86.7048
0.0687315
86.6343
0.0639341
86.5577
0.0591049
86.4748
0.054247
86.3855
0.0493641
86.2898
0.0444596
86.1874
0.0395379
86.0781
0.0346028
85.9618
0.0296571
85.8382
0.0247062
85.7069
0.0197525
85.5678
0.0148012
85.4205
0.00985612
85.2645
0.00492064
85.0995
0
84.925
-0.00490199
84.7405
-0.00978143
84.5453
-0.0146329
84.3389
-0.0194525
84.1205
-0.0242358
83.8894
-0.0289769
83.6446
-0.0336724
83.3852
-0.0383158
83.1101
-0.0429027
82.8179
-0.0474277
82.5074
-0.0518845
82.1769
-0.0562672
81.8246
-0.0605695
81.4483
-0.0647851
81.0458
-0.0689058
80.6139
-0.0729247
80.1486
-0.0768322
79.6462
-0.0806185
79.1066
-0.0842731
78.5243
-0.0877883
77.8627
-0.091152
77.0756
-0.0943117
76.2797
-0.0971939
75.8403
-0.0999344
75.4939
-0.103044
72.5852
-0.106218
63.6293
-0.105558
50.5265
-0.0953433
39.8252
-0.0777773
34.4222
-0.0630237
32.5247
-0.0560727
32.0653
-0.0544519
32.0955
-0.0550583
32.2904
-0.0564338
32.5442
-0.0580709
32.8287
-0.0597931
33.1151
-0.0615746
33.4503
-0.0633034
-0.065257
33.6755
84.0624
0.333082
-83.9731
84.1433
0.327183
84.216
0.321076
84.2808
0.314767
84.338
0.308259
84.3878
0.301558
84.4304
0.294668
84.4662
0.287597
84.4953
0.280347
84.5179
0.272924
84.5342
0.265335
84.5443
0.257585
84.5485
0.249678
84.5469
0.241621
84.5396
0.23342
84.5266
0.225081
84.5082
0.216608
84.4844
0.208009
84.4552
0.199289
84.4208
0.190455
84.3811
0.181512
84.3362
0.172468
84.2861
0.163329
84.2308
0.1541
84.1703
0.14479
84.1046
0.135403
84.0335
0.125948
83.9571
0.116431
83.8753
0.106859
83.7878
0.0972389
83.6947
0.0875775
83.5958
0.0778826
83.4908
0.0681608
83.3797
0.0584206
83.2621
0.0486682
83.1379
0.0389118
83.0068
0.0291589
82.8684
0.0194172
82.7225
0.00969499
82.5687
0
82.4064
-0.0096596
82.2354
-0.0192755
82.055
-0.0288395
81.8648
-0.0383427
81.6641
-0.0477762
81.4522
-0.0571313
81.2283
-0.066398
80.9917
-0.0755679
80.7413
-0.0846302
80.4761
-0.0935752
80.195
-0.102392
79.8965
-0.11107
79.5791
-0.119596
79.2411
-0.12796
78.8805
-0.136146
78.495
-0.144143
78.0818
-0.151934
77.6368
-0.159501
77.157
-0.166826
76.6424
-0.173888
76.087
-0.180674
75.4529
-0.187157
74.6981
-0.193226
73.9525
-0.198738
73.5792
-0.204021
73.252
-0.210144
70.2571
-0.216276
61.2855
-0.214045
48.5012
-0.192058
38.3072
-0.155917
33.2635
-0.126468
31.52
-0.112925
31.108
-0.109852
31.1463
-0.11107
31.3338
-0.113761
31.5802
-0.116928
31.8393
-0.12031
32.1475
-0.123628
-0.127378
32.3584
81.7971
0.493722
-81.7299
81.8571
0.484869
81.9099
0.475716
81.9559
0.466271
81.9953
0.456542
82.0283
0.446534
82.0551
0.436255
82.076
0.425713
82.091
0.414916
82.1005
0.403869
82.1045
0.392583
82.1032
0.381063
82.0967
0.369319
82.0851
0.357358
82.0687
0.345189
82.0473
0.33282
82.0213
0.32026
81.9905
0.307517
81.9551
0.2946
81.9152
0.281518
81.8707
0.26828
81.8217
0.254895
81.7682
0.241373
81.7102
0.227722
81.6477
0.213953
81.5807
0.200074
81.509
0.186096
81.4326
0.172029
81.3516
0.157882
81.2656
0.143666
81.1748
0.12939
81.0788
0.115066
80.9776
0.100704
80.871
0.0863135
80.7588
0.071906
80.6408
0.0574926
80.5168
0.0430843
80.3864
0.0286914
80.2493
0.0143263
80.1053
0
79.954
-0.0142758
79.795
-0.0284893
79.6277
-0.0426287
79.4519
-0.0566809
79.2668
-0.070634
79.0719
-0.0844754
78.8666
-0.0981912
78.65
-0.111769
78.4215
-0.125193
78.18
-0.138451
77.9246
-0.151528
77.6542
-0.164407
77.3674
-0.177073
77.0627
-0.189509
76.7386
-0.201697
76.3931
-0.213617
76.0241
-0.225249
75.6288
-0.236572
75.2033
-0.24756
74.745
-0.258182
74.2543
-0.268412
73.7243
-0.278233
73.1164
-0.2876
72.3932
-0.296337
71.6963
-0.304242
71.3824
-0.311886
71.0604
-0.320922
67.9666
-0.329743
58.983
-0.324998
46.5299
-0.289839
36.8418
-0.234382
32.1461
-0.190358
30.5486
-0.170507
30.1813
-0.166092
30.2255
-0.167911
30.4105
-0.171824
30.6353
-0.176493
30.9146
-0.181223
-0.186601
31.1101
79.5773
0.650432
-79.5298
79.6187
0.638634
79.6539
0.626454
79.6831
0.613899
79.7067
0.600979
79.7247
0.587703
79.7375
0.57408
79.745
0.560119
79.7476
0.545831
79.7453
0.531223
79.7384
0.516308
79.7268
0.501094
79.7108
0.485592
79.6905
0.469812
79.6659
0.453764
79.6371
0.437461
79.6042
0.420911
79.5674
0.404128
79.5265
0.387121
79.4817
0.369902
79.433
0.352483
79.3804
0.334876
79.3239
0.317091
79.2636
0.299143
79.1994
0.281042
79.1312
0.2628
79.0591
0.244432
78.9829
0.225948
78.9026
0.207363
78.8182
0.188688
78.7294
0.169937
78.6363
0.151123
78.5386
0.13226
78.4362
0.113362
78.3289
0.0944411
78.2166
0.0755124
78.0989
0.0565893
77.9758
0.0376869
77.8469
0.0188188
77.7118
0
77.5704
-0.0187546
77.4223
-0.0374301
77.2669
-0.056011
77.104
-0.0744814
76.933
-0.0928266
76.7535
-0.111029
76.5648
-0.129073
76.3663
-0.146941
76.1574
-0.164616
75.9371
-0.18208
75.7047
-0.199315
75.4593
-0.216301
75.1996
-0.233019
74.9245
-0.249448
74.6325
-0.265565
74.3222
-0.281348
73.9917
-0.296771
73.6389
-0.31181
73.2612
-0.326434
72.855
-0.340611
72.4178
-0.354303
71.9504
-0.367475
71.4454
-0.380107
70.8635
-0.392138
70.1718
-0.40332
69.5211
-0.413403
69.26
-0.423237
68.9449
-0.435066
65.7885
-0.446328
56.8497
-0.438445
44.7342
-0.389379
35.4978
-0.314167
31.0958
-0.25533
29.6184
-0.22901
29.2852
-0.223148
29.3367
-0.225446
29.5053
-0.230568
29.7495
-0.23637
-0.243162
29.9275
77.401
0.80321
-77.3708
77.4259
0.788488
77.4455
0.773305
77.4601
0.757674
77.4697
0.741603
77.4746
0.725103
77.4749
0.708187
77.4707
0.690864
77.4623
0.673147
77.4498
0.655045
77.4332
0.636574
77.4127
0.617742
77.3883
0.598564
77.3603
0.579051
77.3286
0.559216
77.2933
0.539073
77.2546
0.518633
77.2124
0.497912
77.1668
0.476921
77.1178
0.455676
77.0655
0.434189
77.0099
0.412476
76.951
0.390549
76.8887
0.368424
76.8232
0.346116
76.7542
0.323638
76.6819
0.301008
76.6061
0.278238
76.5267
0.255346
76.4438
0.232347
76.3572
0.209255
76.2668
0.186088
76.1725
0.162861
76.0741
0.139592
75.9715
0.116295
75.8645
0.0929877
75.7529
0.0696879
75.6365
0.0464116
75.5151
0.0231763
75.3885
0
75.2562
-0.0230999
75.118
-0.0461056
74.9736
-0.0689986
74.8226
-0.09176
74.6646
-0.114372
74.499
-0.136814
74.3255
-0.159067
74.1435
-0.181112
73.9523
-0.202927
73.7512
-0.224491
73.5397
-0.245784
73.3167
-0.266782
73.0814
-0.287463
72.8327
-0.307802
72.5695
-0.327774
72.2905
-0.347353
71.9941
-0.366511
71.6787
-0.385219
71.3423
-0.403443
70.9823
-0.42115
70.5954
-0.4383
70.1794
-0.454847
69.7353
-0.470748
69.2553
-0.485984
68.7007
-0.500476
68.0414
-0.513907
67.4311
-0.525981
67.2109
-0.537822
66.921
-0.552262
63.8033
-0.565863
55.0321
-0.554992
43.2504
-0.492306
34.3481
-0.397048
30.139
-0.322401
28.7343
-0.288769
28.4234
-0.281
28.4654
-0.283668
28.6533
-0.289552
-0.297339
28.808
75.268
0.952065
-75.2529
75.2785
0.934448
75.2845
0.916298
75.2861
0.897629
75.2835
0.878453
75.2769
0.858781
75.2663
0.838626
75.252
0.818002
75.234
0.796921
75.2124
0.775397
75.1874
0.753443
75.1591
0.731073
75.1276
0.708302
75.0928
0.685144
75.055
0.661614
75.0142
0.637726
74.9704
0.613495
74.9236
0.588939
74.874
0.56407
74.8216
0.538907
74.7663
0.513464
74.7082
0.487759
74.6473
0.461807
74.5836
0.435626
74.5171
0.409232
74.4477
0.382642
74.3754
0.355875
74.3002
0.328948
74.222
0.301877
74.1407
0.274683
74.0563
0.247382
73.9686
0.219993
73.8776
0.192536
73.7831
0.165027
73.685
0.137488
73.583
0.109936
73.4772
0.0823913
73.3672
0.0548741
73.2529
0.0274034
73.1339
0
73.0102
-0.027316
72.8813
-0.054524
72.7471
-0.0816028
72.607
-0.108532
72.4609
-0.135288
72.3082
-0.161852
72.1486
-0.188198
71.9816
-0.214307
71.8066
-0.240153
71.6231
-0.265713
71.4304
-0.290964
71.2278
-0.315879
71.0145
-0.340434
70.7897
-0.3646
70.5523
-0.388351
70.3013
-0.411657
70.0354
-0.434488
69.7532
-0.456811
69.4531
-0.478592
69.1332
-0.499794
68.7912
-0.520377
68.4238
-0.540296
68.0291
-0.559496
67.6081
-0.577931
67.1537
-0.595578
66.6281
-0.612346
66.0021
-0.627858
65.4245
-0.641759
65.2309
-0.655397
64.9922
-0.6722
62.0424
-0.68823
53.5874
-0.675409
42.1283
-0.600519
33.4175
-0.485079
29.2822
-0.392805
27.9016
-0.350171
27.5841
-0.339801
27.6442
-0.342149
-0.349669
27.7574
73.179
1.09702
-73.1772
73.1769
1.07655
73.171
1.05547
73.1613
1.03381
73.148
1.01158
73.1313
0.988788
73.1113
0.965455
73.0881
0.941593
73.0617
0.917218
73.0324
0.892343
73.0001
0.866984
72.9651
0.841157
72.9273
0.814878
72.8868
0.788163
72.8437
0.761029
72.7981
0.733491
72.7501
0.705569
72.6995
0.677278
72.6466
0.648636
72.5912
0.619663
72.5335
0.590374
72.4735
0.560789
72.4111
0.530927
72.3463
0.500806
72.2792
0.470445
72.2097
0.439865
72.1377
0.409084
72.0633
0.378122
71.9864
0.347
71.9068
0.315737
71.8246
0.284353
71.7397
0.252872
71.6519
0.221311
71.5612
0.189693
71.4673
0.15804
71.3703
0.126372
71.2698
0.0947125
71.1659
0.0630821
71.0582
0.031504
70.9465
0
70.8307
-0.0314067
70.7105
-0.0626927
70.5856
-0.0938352
70.4558
-0.12481
70.3206
-0.155594
70.1798
-0.186162
70.033
-0.216489
69.8798
-0.246552
69.7196
-0.276323
69.5521
-0.305776
69.3766
-0.334886
69.1925
-0.363624
68.9992
-0.391962
68.7959
-0.419872
68.5818
-0.447322
68.356
-0.474283
68.1173
-0.500721
67.8647
-0.526601
67.5968
-0.551889
67.3122
-0.576544
67.009
-0.600526
66.685
-0.623791
66.3372
-0.646287
65.9638
-0.667953
65.566
-0.688737
65.1374
-0.708617
64.6427
-0.727495
64.0507
-0.744945
63.498
-0.760535
63.3154
-0.775735
63.1518
-0.794576
60.5002
-0.813258
52.5193
-0.800353
41.3806
-0.71588
32.7154
-0.580551
28.5331
-0.468025
27.1109
-0.413929
26.7959
-0.399301
-0.401795
26.8063
71.1346
1.23812
-71.1443
71.1215
1.21482
71.1052
1.19087
71.0857
1.16626
71.0631
1.14103
71.0377
1.11518
71.0095
1.08873
70.9785
1.0617
70.9449
1.0341
70.9089
1.00595
70.8704
0.977266
70.8295
0.948064
70.7864
0.918362
70.741
0.888178
70.6935
0.857532
70.6439
0.826441
70.5922
0.794923
70.5385
0.762999
70.4828
0.730688
70.4251
0.698009
70.3655
0.664983
70.3039
0.631629
70.2404
0.597969
70.175
0.564023
70.1075
0.529812
70.0382
0.495358
69.9668
0.460683
69.8933
0.425808
69.8178
0.390754
69.7401
0.355546
69.6601
0.320205
69.5779
0.284753
69.4933
0.249215
69.4062
0.213613
69.3165
0.177971
69.2241
0.142313
69.1289
0.106662
69.0306
0.0710435
68.9291
0.0354812
68.8243
0
68.7159
-0.0353751
68.6038
-0.070619
68.4876
-0.105706
68.3672
-0.14061
68.2422
-0.175306
68.1123
-0.209766
67.9773
-0.243964
67.8367
-0.277872
67.6901
-0.311462
67.5372
-0.344708
67.3774
-0.377579
67.2101
-0.410045
67.0349
-0.442078
66.8511
-0.473645
66.658
-0.504716
66.4548
-0.535257
66.2406
-0.565232
66.0145
-0.594608
65.7753
-0.623346
65.5218
-0.651406
65.2526
-0.678746
64.9662
-0.705322
64.6603
-0.731084
64.3322
-0.755977
63.9801
-0.779934
63.6052
-0.802898
63.2026
-0.824845
62.74
-0.845681
62.1833
-0.864951
61.6488
-0.882119
61.4608
-0.898642
61.3847
-0.919104
59.1445
-0.940666
51.8029
-0.930144
41.0091
-0.840036
32.2594
-0.685942
27.8919
-0.550198
26.3842
-0.480626
-0.460082
26.0754
69.1352
1.3754
-69.155
69.1126
1.34933
69.0873
1.32254
69.0592
1.29505
69.0287
1.26687
68.9957
1.23803
68.9603
1.20853
68.9227
1.1784
68.883
1.14764
68.8411
1.11629
68.7973
1.08436
68.7515
1.05187
68.7038
1.01883
68.6543
0.985263
68.603
0.951195
68.55
0.916644
68.4954
0.881628
68.439
0.846171
68.3811
0.810291
68.3216
0.774012
68.2605
0.737354
68.1978
0.70034
68.1335
0.662992
68.0677
0.625333
68.0003
0.587385
67.9313
0.549173
67.8606
0.510719
67.7883
0.472048
67.7143
0.433183
67.6385
0.394148
67.5608
0.354968
67.4813
0.315669
67.3998
0.276274
67.3163
0.236809
67.2306
0.1973
67.1426
0.157772
67.0522
0.118252
66.9593
0.078766
66.8637
0.0393395
66.7653
0
66.6639
-0.0392257
66.5593
-0.0783103
66.4512
-0.117226
66.3395
-0.155946
66.2239
-0.19444
66.1041
-0.232682
65.9799
-0.270642
65.8509
-0.308291
65.7168
-0.345599
65.5772
-0.382536
65.4317
-0.419071
65.2798
-0.455174
65.121
-0.490811
64.9549
-0.525952
64.7807
-0.560561
64.5979
-0.594605
64.4056
-0.628048
64.2032
-0.660853
63.9896
-0.692981
63.7639
-0.724391
63.5248
-0.755042
63.2711
-0.784887
63.0014
-0.813879
62.7136
-0.841965
62.4051
-0.869087
62.0741
-0.895172
61.7218
-0.920158
61.3449
-0.944018
60.9154
-0.966673
60.3956
-0.987662
59.8754
-1.00633
59.6656
-1.02395
59.6715
-1.04554
57.9244
-1.07002
51.391
-1.06463
41.0182
-0.974106
32.0723
-0.804059
27.3662
-0.642066
-0.548953
26.0257
67.1813
1.50891
-67.2098
67.1505
1.48011
67.1173
1.45055
67.0819
1.42023
67.0444
1.38917
67.0049
1.35739
66.9634
1.32491
66.9201
1.29174
66.875
1.25792
66.8282
1.22344
66.7798
1.18834
66.7298
1.15263
66.6783
1.11634
66.6254
1.07949
66.571
1.04209
66.5152
1.00417
66.4581
0.965755
66.3997
0.926861
66.34
0.887513
66.2791
0.847735
66.2169
0.80755
66.1534
0.766981
66.0888
0.726053
66.0228
0.68479
65.9557
0.643217
65.8872
0.601358
65.8175
0.559239
65.7464
0.516886
65.674
0.474324
65.6001
0.431579
65.5248
0.388678
65.4479
0.345647
65.3695
0.302513
65.2894
0.259303
65.2075
0.216045
65.1237
0.172766
65.038
0.129493
64.9502
0.086256
64.8601
0.0430819
64.7677
0
64.6728
-0.0429612
64.5751
-0.085773
64.4746
-0.128406
64.371
-0.170829
64.2641
-0.213014
64.1536
-0.25493
64.0394
-0.296547
63.9211
-0.337833
63.7984
-0.378757
63.6709
-0.419288
63.5385
-0.459393
63.4005
-0.499039
63.2567
-0.538193
63.1065
-0.576821
62.9495
-0.614888
62.7851
-0.652358
62.6126
-0.689194
62.4314
-0.72536
62.2407
-0.760814
62.0396
-0.795516
61.8273
-0.829424
61.6026
-0.862492
61.3642
-0.894671
61.111
-0.925912
60.8411
-0.95616
60.5521
-0.985352
60.2421
-1.01341
59.9119
-1.04027
59.5603
-1.06591
59.164
-1.09025
58.683
-1.11287
58.1768
-1.13299
57.9307
-1.15155
57.9939
-1.1737
56.7753
-1.20079
51.2156
-1.20302
41.4136
-1.11823
32.0803
-0.939576
-0.731897
28.1895
65.2729
1.63871
-65.309
65.2349
1.60724
65.195
1.57496
65.1533
1.54187
65.1098
1.50799
65.0647
1.47334
65.0181
1.43794
64.9699
1.40182
64.9203
1.36499
64.8694
1.32747
64.8171
1.28928
64.7636
1.25044
64.7089
1.21099
64.6531
1.17093
64.5961
1.13029
64.5381
1.08909
64.4791
1.04737
64.419
1.00514
64.358
0.962419
64.296
0.919243
64.2331
0.875632
64.1692
0.831613
64.1043
0.787209
64.0386
0.742449
63.9718
0.697358
63.9041
0.651962
63.8354
0.606288
63.7657
0.560364
63.695
0.514217
63.6231
0.467874
63.5501
0.421365
63.4759
0.374716
63.4004
0.327957
63.3236
0.281116
63.2454
0.234223
63.1657
0.187306
63.0843
0.140395
63.0013
0.0935212
62.9165
0.0467125
62.8297
0
62.7408
-0.0465858
62.6497
-0.0930141
62.5562
-0.139254
62.4601
-0.185274
62.3612
-0.231043
62.2593
-0.276528
62.1542
-0.321699
62.0457
-0.366521
61.9335
-0.410963
61.8172
-0.454991
61.6966
-0.498572
61.5714
-0.54167
61.4412
-0.584252
61.3055
-0.626283
61.164
-0.667726
61.0161
-0.708544
60.8614
-0.7487
60.6993
-0.788155
60.529
-0.82687
60.35
-0.864802
60.1614
-0.901909
59.9623
-0.938146
59.7518
-0.973466
59.5287
-1.00782
59.2918
-1.04115
59.0396
-1.0734
58.7698
-1.10452
58.4804
-1.13442
58.1719
-1.16302
57.8446
-1.19029
57.481
-1.2162
57.0407
-1.24036
56.5521
-1.26193
56.2601
-1.28134
56.3404
-1.30349
55.6186
-1.33268
51.2503
-1.34233
41.7191
-1.28074
-1.04735
35.402
63.41
1.76486
-63.4526
63.3659
1.73078
63.3202
1.69583
63.2731
1.66003
63.2246
1.62339
63.1747
1.58595
63.1236
1.54771
63.0714
1.50869
63.018
1.46893
62.9635
1.42844
62.9081
1.38724
62.8517
1.34536
62.7943
1.30283
62.7362
1.25965
62.6772
1.21586
62.6174
1.17148
62.5568
1.12654
62.4955
1.08106
62.4335
1.03507
62.3708
0.988597
62.3074
0.941661
62.2434
0.894291
62.1786
0.846516
62.1132
0.798362
62.0471
0.749857
61.9803
0.70103
61.9128
0.651909
61.8445
0.602522
61.7755
0.552899
61.7056
0.503068
61.6349
0.45306
61.5633
0.402904
61.4907
0.352631
61.4171
0.302269
61.3424
0.251852
61.2665
0.201408
61.1894
0.15097
61.1109
0.100568
61.031
0.0502339
60.9494
0
60.8662
-0.050102
60.7812
-0.10004
60.6942
-0.149781
60.605
-0.199292
60.5136
-0.248542
60.4196
-0.297494
60.323
-0.346118
60.2235
-0.394379
60.1208
-0.442242
60.0148
-0.489672
59.9051
-0.536636
59.7915
-0.583098
59.6736
-0.629021
59.5511
-0.67437
59.4236
-0.719107
59.2907
-0.763195
59.152
-0.806595
59.007
-0.849269
58.8551
-0.891175
58.6957
-0.932272
58.5283
-0.972518
58.352
-1.01187
58.166
-1.05027
57.9695
-1.08769
57.7614
-1.12406
57.5406
-1.15933
57.3057
-1.19345
57.0547
-1.22635
56.7856
-1.25795
56.4983
-1.28817
56.1942
-1.31696
55.8617
-1.34431
55.4636
-1.36992
54.998
-1.39297
54.6678
-1.41306
54.6655
-1.43591
54.6218
-1.4606
50.3355
-1.50154
-1.37848
45.9458
61.5924
1.88743
-61.6405
61.5431
1.85079
61.4925
1.81324
61.4408
1.77479
61.388
1.73546
61.3341
1.69528
61.2793
1.65427
61.2236
1.61244
61.1671
1.56982
61.1097
1.52644
61.0516
1.48232
60.9929
1.43747
60.9334
1.39193
60.8734
1.34573
60.8128
1.29887
60.7516
1.2514
60.6899
1.20334
60.6277
1.15471
60.5651
1.10554
60.502
1.05586
60.4384
1.00569
60.3744
0.955073
60.31
0.904025
60.2451
0.85258
60.1798
0.800764
60.114
0.748609
60.0477
0.696145
59.981
0.6434
59.9137
0.590406
59.8459
0.537194
59.7774
0.483794
59.7083
0.430238
59.6386
0.376557
59.5681
0.322783
59.4968
0.268948
59.4246
0.215085
59.3514
0.161225
59.2772
0.107403
59.2019
0.0536498
59.1253
0
59.0474
-0.0535133
58.968
-0.106857
58.887
-0.159996
58.8043
-0.212897
58.7198
-0.265525
58.6331
-0.317847
58.5443
-0.369826
58.4531
-0.421428
58.3592
-0.472618
58.2625
-0.523359
58.1628
-0.573615
58.0597
-0.623351
57.9531
-0.67253
57.8425
-0.721113
57.7278
-0.769063
57.6084
-0.816343
57.4842
-0.862912
57.3545
-0.908731
57.2191
-0.953759
57.0773
-0.997955
56.9287
-1.04128
56.7727
-1.08368
56.6085
-1.12511
56.4354
-1.16554
56.2526
-1.2049
56.0592
-1.24314
55.854
-1.28022
55.636
-1.31606
55.4035
-1.35061
55.1542
-1.38379
54.8877
-1.41551
54.6056
-1.44571
54.303
-1.47437
53.9417
-1.50144
53.5325
-1.52541
53.0663
-1.54864
53.3414
-1.56317
52.5795
-1.61207
-1.59438
51.4013
59.8199
2.00649
-59.8726
59.7661
1.96735
59.7114
1.92726
59.6559
1.88622
59.5994
1.84427
59.5422
1.80142
59.4843
1.7577
59.4258
1.71313
59.3666
1.66774
59.3069
1.62154
59.2467
1.57457
59.1861
1.52684
59.125
1.47838
59.0635
1.42923
59.0016
1.3794
58.9395
1.32892
58.877
1.27782
58.8142
1.22613
58.7512
1.17388
58.688
1.12109
58.6245
1.06779
58.5608
1.01401
58.4968
0.959792
58.4326
0.905152
58.3682
0.850126
58.3036
0.794744
58.2387
0.739037
58.1735
0.683037
58.108
0.626775
58.0422
0.570284
57.976
0.513595
57.9094
0.456743
57.8423
0.399758
57.7748
0.342675
57.7067
0.285528
57.638
0.228349
57.5686
0.171172
57.4985
0.114032
57.4275
0.0569633
57.3556
0
57.2826
-0.056823
57.2085
-0.113471
57.1332
-0.169908
57.0565
-0.226099
56.9783
-0.282009
56.8984
-0.337602
56.8167
-0.392841
56.7331
-0.447691
56.6473
-0.502115
56.5592
-0.556076
56.4685
-0.609536
56.3751
-0.66246
56.2787
-0.714808
56.179
-0.766543
56.0758
-0.817626
55.9687
-0.868019
55.8575
-0.917681
55.7417
-0.966573
55.6211
-1.01465
55.4951
-1.06188
55.3633
-1.10821
55.2253
-1.1536
55.0804
-1.19801
54.928
-1.24138
54.7676
-1.28368
54.5982
-1.32484
54.4191
-1.36482
54.2293
-1.40356
54.0277
-1.441
53.813
-1.47708
53.5832
-1.51172
53.3366
-1.54484
53.0777
-1.5763
52.7923
-1.60639
52.5022
-1.63395
52.0402
-1.66176
51.7794
-1.67933
51.5609
-1.70971
-1.72553
51.374
58.092
2.1221
-58.1487
58.0345
2.08053
57.9764
2.03795
57.9176
1.9944
57.8582
1.94989
57.7983
1.90444
57.7378
1.85809
57.677
1.81085
57.6157
1.76275
57.5541
1.71381
57.4923
1.66406
57.4301
1.61353
57.3678
1.56224
57.3052
1.51022
57.2425
1.4575
57.1796
1.4041
57.1167
1.35006
57.0536
1.2954
56.9905
1.24015
56.9273
1.18434
56.8641
1.128
56.8008
1.07117
56.7375
1.01386
56.6742
0.956128
56.6108
0.897988
56.5474
0.839477
56.4839
0.780626
56.4203
0.721469
56.3566
0.662039
56.2928
0.602369
56.2288
0.542492
56.1647
0.482444
56.1003
0.422257
56.0356
0.361966
55.9706
0.301606
55.9053
0.241212
55.8395
0.18082
55.7731
0.120462
55.7062
0.0601774
55.6387
0
55.5703
-0.0600339
55.5012
-0.119888
55.4311
-0.179526
55.3599
-0.238911
55.2876
-0.298008
55.214
-0.356777
55.1389
-0.415184
55.0623
-0.47319
54.9839
-0.530757
54.9036
-0.587849
54.8213
-0.644426
54.7366
-0.700452
54.6495
-0.755887
54.5597
-0.810692
54.4669
-0.864828
54.371
-0.918256
54.2715
-0.970936
54.1683
-1.02283
54.0609
-1.07389
53.9491
-1.12408
53.8324
-1.17335
53.7104
-1.22167
53.5827
-1.26898
53.4487
-1.31525
53.308
-1.36042
53.1598
-1.40445
53.0035
-1.44728
52.8383
-1.48887
52.6633
-1.52914
52.4777
-1.56806
52.2804
-1.60554
52.0685
-1.64155
51.8447
-1.67589
51.5974
-1.70881
51.3578
-1.73934
51.0568
-1.76973
50.7153
-1.79513
50.3649
-1.82091
-1.83979
50.2007
56.4083
2.23435
-56.4682
56.3478
2.1904
56.2868
2.1454
56.2253
2.09939
56.1635
2.05239
56.1013
2.00441
56.0389
1.9555
55.9762
1.90566
55.9133
1.85493
55.8503
1.80333
55.7871
1.75089
55.7239
1.69763
55.6606
1.64359
55.5973
1.58878
55.534
1.53325
55.4708
1.47702
55.4076
1.42011
55.3445
1.36257
55.2815
1.30441
55.2186
1.24567
55.1558
1.18639
55.0932
1.12658
55.0306
1.0663
54.9682
1.00555
54.906
0.944395
54.8438
0.882849
54.7818
0.820951
54.7199
0.758733
54.658
0.696231
54.5962
0.63348
54.5344
0.570513
54.4726
0.507366
54.4108
0.444074
54.3489
0.380673
54.2869
0.317199
54.2247
0.253688
54.1623
0.190176
54.0995
0.126699
54.0365
0.0632951
53.973
0
53.909
-0.0631489
53.8445
-0.126114
53.7792
-0.188858
53.7132
-0.251345
53.6463
-0.313534
53.5785
-0.375389
53.5095
-0.436872
53.4393
-0.497944
53.3677
-0.558568
53.2947
-0.618704
53.2199
-0.678313
53.1433
-0.737356
53.0647
-0.795795
52.9838
-0.85359
52.9006
-0.910701
52.8146
-0.967088
52.7258
-1.02271
52.6339
-1.07753
52.5385
-1.1315
52.4393
-1.18458
52.3361
-1.23673
52.2285
-1.28791
52.1161
-1.33807
51.9985
-1.38717
51.8752
-1.43515
51.7456
-1.48199
51.6094
-1.52761
51.4657
-1.57198
51.314
-1.61504
51.1534
-1.65674
50.9833
-1.69701
50.8018
-1.73581
50.6102
-1.77299
50.4009
-1.80869
50.1823
-1.84235
49.95
-1.87474
49.7001
-1.90465
49.3593
-1.93403
-1.95462
49.1805
54.7682
2.34331
-54.8308
54.7052
2.29703
54.6419
2.24968
54.5783
2.20128
54.5145
2.15185
54.4506
2.10141
54.3866
2.05
54.3225
1.99764
54.2584
1.94435
54.1942
1.89016
54.1302
1.8351
54.0662
1.7792
54.0023
1.72248
53.9385
1.66497
53.875
1.60671
53.8116
1.54773
53.7484
1.48805
53.6855
1.4277
53.6228
1.36672
53.5603
1.30514
53.4981
1.243
53.4362
1.18032
53.3746
1.11713
53.3133
1.05348
53.2522
0.98939
53.1914
0.924902
53.1309
0.860049
53.0706
0.794864
53.0106
0.729385
52.9507
0.663646
52.8911
0.597683
52.8316
0.531533
52.7723
0.465231
52.713
0.398815
52.6538
0.332322
52.5947
0.265788
52.5355
0.199251
52.4762
0.132749
52.4167
0.0663194
52.3571
0
52.2972
-0.066171
52.2369
-0.132155
52.1762
-0.197914
52.1149
-0.263409
52.0531
-0.328602
51.9906
-0.393453
51.9272
-0.457925
51.863
-0.521976
51.7976
-0.585569
51.7311
-0.648664
51.6633
-0.711222
51.5941
-0.773201
51.5232
-0.834564
51.4505
-0.895269
51.3758
-0.955277
51.299
-1.01455
51.2198
-1.07304
51.138
-1.13071
51.0534
-1.18752
50.9657
-1.24342
50.8746
-1.29838
50.7798
-1.35236
50.6811
-1.4053
50.578
-1.45716
50.4701
-1.5079
50.3571
-1.55748
50.2385
-1.60584
50.1138
-1.65294
49.9824
-1.69872
49.8436
-1.74314
49.697
-1.78613
49.5413
-1.82766
49.3765
-1.86761
49.2005
-1.90602
49.0126
-1.94265
48.8082
-1.97768
48.6102
-2.0103
48.337
-2.04316
-2.06735
48.1929
53.1711
2.44904
-53.2359
53.1061
2.40051
53.041
2.35087
52.9758
2.30014
52.9105
2.24835
52.8452
2.19552
52.78
2.14168
52.7149
2.08686
52.6498
2.03108
52.585
1.97438
52.5203
1.91678
52.4558
1.8583
52.3916
1.79898
52.3277
1.73886
52.2641
1.67795
52.2008
1.61629
52.1378
1.55392
52.0752
1.49086
52.013
1.42714
51.9511
1.36281
51.8897
1.29789
51.8287
1.23241
51.768
1.16642
51.7078
1.09994
51.648
1.03302
51.5886
0.965676
51.5296
0.897958
51.471
0.829897
51.4128
0.761531
51.3549
0.692896
51.2974
0.624029
51.2401
0.554967
51.1832
0.485747
51.1265
0.416408
51.07
0.346987
51.0137
0.277522
50.9576
0.208053
50.9015
0.138617
50.8455
0.0692529
50.7894
0
50.7333
-0.0691027
50.677
-0.138016
50.6205
-0.2067
50.5637
-0.275117
50.5066
-0.343225
50.449
-0.410986
50.3908
-0.478359
50.332
-0.545306
50.2724
-0.611784
50.2119
-0.677756
50.1505
-0.743179
50.0879
-0.808015
50.024
-0.872222
49.9588
-0.93576
49.892
-0.998587
49.8234
-1.06066
49.7529
-1.12195
49.6803
-1.1824
49.6054
-1.24198
49.5279
-1.30064
49.4477
-1.35834
49.3644
-1.41504
49.2779
-1.4707
49.1877
-1.52527
49.0936
-1.5787
48.9952
-1.63096
48.8922
-1.682
48.7841
-1.73176
48.6705
-1.78021
48.5509
-1.82729
48.4247
-1.87295
48.2912
-1.91713
48.1499
-1.95978
47.9998
-2.00086
47.8416
-2.04022
47.6667
-2.07807
47.4968
-2.11342
47.2698
-2.14895
-2.17657
47.1575
51.6164
2.55164
-51.6829
51.5499
2.50091
51.4834
2.44903
51.4169
2.39604
51.3505
2.34195
51.2843
2.2868
51.2182
2.23061
51.1523
2.1734
51.0867
2.11521
51.0214
2.05606
50.9564
1.99598
50.8917
1.93501
50.8274
1.87318
50.7635
1.8105
50.7001
1.74703
50.637
1.68278
50.5745
1.61779
50.5124
1.55209
50.4508
1.48573
50.3897
1.41872
50.3291
1.35111
50.269
1.28293
50.2095
1.21421
50.1504
1.14499
50.092
1.07531
50.034
1.00521
49.9765
0.934714
49.9196
0.863865
49.8632
0.7927
49.8072
0.721258
49.7517
0.649575
49.6967
0.57769
49.642
0.505642
49.5878
0.433468
49.5339
0.361209
49.4804
0.288903
49.4271
0.21659
49.3741
0.144308
49.3212
0.0720983
49.2686
0
49.216
-0.0719468
49.1634
-0.143702
49.1109
-0.215225
49.0582
-0.286477
49.0054
-0.357416
48.9523
-0.428001
48.8989
-0.498194
48.8451
-0.567951
48.7908
-0.637234
48.7359
-0.706001
48.6803
-0.774211
48.6238
-0.841823
48.5664
-0.908797
48.5079
-0.975091
48.4481
-1.04066
48.3871
-1.10547
48.3244
-1.16948
48.2601
-1.23264
48.194
-1.29492
48.1258
-1.35626
48.0553
-1.41664
47.9823
-1.476
47.9067
-1.53431
47.828
-1.59152
47.7462
-1.64758
47.6608
-1.70246
47.5716
-1.75611
47.4782
-1.80848
47.3802
-1.85953
47.2773
-1.90921
47.1689
-1.95747
47.0546
-2.00426
46.9341
-2.04952
46.8058
-2.09322
46.6716
-2.13522
46.5242
-2.17573
46.3805
-2.21385
46.1875
-2.25199
-2.28269
46.0969
50.1034
2.65117
-50.1712
50.0357
2.59831
49.9682
2.54426
49.9008
2.48907
49.8336
2.43275
49.7667
2.37533
49.7001
2.31685
49.6339
2.25732
49.568
2.19679
49.5024
2.13527
49.4373
2.07279
49.3727
2.0094
49.3085
1.94512
49.2449
1.87997
49.1817
1.814
49.1191
1.74724
49.0571
1.67972
48.9957
1.61147
48.9348
1.54252
48.8745
1.47293
48.8149
1.40271
48.7559
1.3319
48.6975
1.26054
48.6397
1.18867
48.5826
1.11632
48.5261
1.04354
48.4702
0.970351
48.4149
0.896799
48.3603
0.822922
48.3062
0.748758
48.2527
0.674346
48.1998
0.599725
48.1474
0.524934
48.0955
0.450013
48.0441
0.375002
47.9931
0.299941
47.9426
0.224869
47.8925
0.149828
47.8427
0.0748585
47.7931
0
47.7439
-0.0747061
47.6948
-0.149219
47.6459
-0.223497
47.5971
-0.2975
47.5483
-0.371187
47.4994
-0.444515
47.4504
-0.517445
47.4012
-0.589933
47.3518
-0.66194
47.3019
-0.733423
47.2516
-0.804342
47.2007
-0.874654
47.1492
-0.944319
47.0968
-1.01329
47.0435
-1.08154
46.9892
-1.14901
46.9338
-1.21567
46.877
-1.28147
46.8187
-1.34637
46.7588
-1.41034
46.6971
-1.47332
46.6334
-1.53528
46.5674
-1.59617
46.4991
-1.65595
46.4282
-1.71458
46.3543
-1.77202
46.2773
-1.82822
46.1969
-1.88314
46.1127
-1.93672
46.0244
-1.98894
45.9318
-2.03973
45.8342
-2.08906
45.7315
-2.13686
45.6225
-2.18312
45.5087
-2.22769
45.384
-2.27077
45.2634
-2.31155
45.1001
-2.35225
-2.38591
45.0276
48.6313
2.74772
-48.7001
48.5629
2.69277
48.4946
2.63662
48.4267
2.57929
48.359
2.5208
48.2918
2.46119
48.2249
2.40048
48.1585
2.33871
48.0925
2.27589
48.027
2.21207
47.962
2.14727
47.8976
2.08153
47.8338
2.01487
47.7705
1.94733
47.7079
1.87894
47.6459
1.80974
47.5845
1.73976
47.5238
1.66903
47.4638
1.59759
47.4045
1.52548
47.3459
1.45273
47.288
1.37938
47.2308
1.30546
47.1743
1.23102
47.1186
1.15609
47.0635
1.0807
47.0092
1.0049
46.9556
0.928732
46.9027
0.852226
46.8505
0.775423
46.7989
0.698366
46.748
0.621092
46.6978
0.543643
46.6482
0.466058
46.5991
0.388379
46.5507
0.310645
46.5027
0.2329
46.4553
0.155183
46.4083
0.0775359
46.3618
0
46.3157
-0.0773829
46.2699
-0.154571
46.2244
-0.231523
46.1791
-0.308196
46.134
-0.38455
46.089
-0.460541
46.0441
-0.536129
45.9992
-0.61127
45.9541
-0.685923
45.9089
-0.760046
45.8635
-0.833597
45.8177
-0.906534
45.7715
-0.978815
45.7247
-1.0504
45.6773
-1.12124
45.6292
-1.1913
45.5802
-1.26054
45.5301
-1.32891
45.479
-1.39637
45.4266
-1.46289
45.3727
-1.52841
45.3173
-1.5929
45.2601
-1.65631
45.201
-1.7186
45.1398
-1.77974
45.0762
-1.83967
45.01
-1.89836
44.9411
-1.95575
44.8691
-2.01182
44.7937
-2.06651
44.7148
-2.11977
44.6318
-2.17157
44.5447
-2.22185
44.4524
-2.27059
44.3562
-2.31766
44.251
-2.36325
44.1499
-2.40658
44.0119
-2.44976
-2.48625
43.9549
47.1995
2.84135
-47.2688
47.1305
2.78439
47.0618
2.72619
46.9936
2.66678
46.9257
2.60619
46.8584
2.54445
46.7915
2.48158
46.7251
2.41762
46.6593
2.3526
46.594
2.28654
46.5294
2.21948
46.4653
2.15146
46.402
2.0825
46.3393
2.01263
46.2773
1.9419
46.216
1.87033
46.1554
1.79796
46.0956
1.72484
46.0365
1.65098
45.9782
1.57643
45.9207
1.50123
45.864
1.42541
45.8081
1.34901
45.7529
1.27207
45.6986
1.19463
45.645
1.11673
45.5923
1.0384
45.5403
0.959694
45.4891
0.880639
45.4387
0.801279
45.389
0.721657
45.3401
0.641811
45.2919
0.561784
45.2445
0.481617
45.1977
0.401351
45.1516
0.321028
45.1061
0.240689
45.0613
0.160376
45.017
0.0801328
44.9733
0
44.93
-0.0799797
44.8873
-0.159764
44.8449
-0.23931
44.803
-0.318575
44.7613
-0.397517
44.7199
-0.476094
44.6787