/*--------------------------------*- C++ -*----------------------------------*\
| =========                 |                                                 |
| \\      /  F ield         | OpenFOAM: The Open Source CFD Toolbox           |
|  \\    /   O peration     | Version:  2312                                  |
|   \\  /    A nd           | Website:  www.openfoam.com                      |
|    \\/     M anipulation  |                                                 |
\*---------------------------------------------------------------------------*/
FoamFile
{
    version     2.0;
    format      ascii;
    arch        "LSB;label=32;scalar=64";
    class       volScalarField;
    location    "1.25";
    object      wave;
}
// * * * * * * * * * * * * * * * * * * * * * * * * * * * * * * * * * * * * * //

dimensions      [0 0 0 0 0 0 0];

internalField   nonuniform List<scalar> 
100
(
0.970989
0.996574
0.997123
0.972622
0.923687
0.851547
0.758013
0.645437
0.516646
0.374876
0.223688
0.0668803
-0.0916074
-0.247794
-0.397755
-0.537724
-0.664184
-0.773958
-0.864288
-0.932906
-0.978087
-0.998697
-0.994216
-0.964759
-0.911065
-0.834484
-0.736938
-0.620878
-0.489221
-0.345273
-0.192651
-0.0351898
0.123156
0.278407
0.426665
0.564203
0.687568
0.793659
0.879812
0.943862
0.9842
0.999813
0.990308
0.955925
0.897527
0.81658
0.71512
0.595694
0.461303
0.315322
0.161421
0.00346387
-0.15458
-0.308741
-0.455145
-0.590115
-0.71026
-0.812562
-0.89445
-0.953868
-0.989323
-0.999923
-0.985403
-0.946128
-0.883084
-0.797855
-0.692582
-0.56991
-0.43292
-0.285054
-0.130028
0.0282656
0.185849
0.338763
0.483167
0.615432
0.732237
0.830646
0.908188
0.962913
0.993449
0.999026
0.979506
0.935378
0.867752
0.778326
0.669347
0.543552
0.404102
0.254499
0.0985038
-0.0599665
-0.21693
-0.368444
-0.510702
-0.64013
-0.753477
-0.847894
-0.92101
-0.970989
)
;

boundaryField
{
    movingWall
    {
        type            calculated;
        value           uniform 0;
    }
    fixedWalls
    {
        type            calculated;
        value           uniform 0;
    }
    frontAndBack
    {
        type            empty;
    }
}


// ************************************************************************* //
