/*--------------------------------*- C++ -*----------------------------------*\
| =========                 |                                                 |
| \\      /  F ield         | OpenFOAM: The Open Source CFD Toolbox           |
|  \\    /   O peration     | Version:  2206                                  |
|   \\  /    A nd           | Website:  www.openfoam.com                      |
|    \\/     M anipulation  |                                                 |
\*---------------------------------------------------------------------------*/
FoamFile
{
    version     2.0;
    format      ascii;
    arch        "LSB;label=32;scalar=64";
    class       volScalarField;
    location    "1.05";
    object      wave;
}
// * * * * * * * * * * * * * * * * * * * * * * * * * * * * * * * * * * * * * //

dimensions      [0 0 0 0 0 0 0];

internalField   nonuniform List<scalar> 
100
(
0.904127
0.960279
0.992306
0.999404
0.981394
0.93873
0.872483
0.784318
0.676448
0.551585
0.412864
0.263772
0.108053
-0.050381
-0.207549
-0.359503
-0.502425
-0.632725
-0.74713
-0.842765
-0.917228
-0.968649
-0.995734
-0.997805
-0.974809
-0.927323
-0.856541
-0.76424
-0.65274
-0.524842
-0.383759
-0.233035
-0.0764561
0.0820432
0.238481
0.388928
0.529605
0.656976
0.767843
0.85942
0.929406
0.976043
0.99816
0.995202
0.967241
0.914981
0.839735
0.743393
0.628375
0.497571
0.354267
0.202063
0.0447826
-0.113623
-0.269174
-0.417962
-0.556251
-0.680565
-0.787782
-0.875208
-0.940647
-0.982455
-0.999582
-0.991596
-0.9587
-0.901719
-0.822084
-0.721797
-0.603377
-0.469799
-0.324419
-0.170888
-0.013064
0.145088
0.299595
0.446576
0.582337
0.703469
0.806929
0.890116
0.950942
0.987878
0.999996
0.986992
0.949193
0.887548
0.803606
0.699475
0.577772
0.441554
0.294243
0.139541
-0.0186677
-0.176407
-0.329715
-0.474739
-0.607837
-0.725665
-0.825262
-0.904127
)
;

boundaryField
{
    movingWall
    {
        type            calculated;
        value           uniform 0;
    }
    fixedWalls
    {
        type            calculated;
        value           uniform 0;
    }
    frontAndBack
    {
        type            empty;
    }
}


// ************************************************************************* //
