/*--------------------------------*- C++ -*----------------------------------*\
| =========                 |                                                 |
| \\      /  F ield         | OpenFOAM: The Open Source CFD Toolbox           |
|  \\    /   O peration     | Version:  2312                                  |
|   \\  /    A nd           | Website:  www.openfoam.com                      |
|    \\/     M anipulation  |                                                 |
\*---------------------------------------------------------------------------*/
FoamFile
{
    version     2.0;
    format      ascii;
    arch        "LSB;label=32;scalar=64";
    class       volVectorField;
    location    "0.544";
    object      U;
}
// * * * * * * * * * * * * * * * * * * * * * * * * * * * * * * * * * * * * * //

dimensions      [0 1 -1 0 0 0 0];

internalField   nonuniform List<vector> 
31205
(
(211.541 0 0)
(208.701 0 0)
(205.772 0 0)
(202.747 0 0)
(199.619 0 0)
(196.381 0 0)
(193.025 0 0)
(189.541 0 0)
(185.917 0 0)
(182.143 0 0)
(178.203 0 0)
(174.082 0 0)
(169.762 0 0)
(165.222 0 0)
(160.441 0 0)
(155.4 0 0)
(150.083 0 0)
(144.496 0 0)
(138.683 0 0)
(132.758 0 0)
(126.916 0 0)
(121.405 0 0)
(116.473 0 0)
(112.298 0 0)
(108.957 0 0)
(106.431 0 0)
(104.634 0 0)
(103.456 0 0)
(102.784 0 0)
(102.515 0 0)
(102.565 0 0)
(102.866 0 0)
(103.366 0 0)
(104.023 0 0)
(104.806 0 0)
(105.69 0 0)
(106.655 0 0)
(107.686 0 0)
(108.771 0 0)
(109.901 0 0)
(111.068 0 0)
(112.264 0 0)
(113.486 0 0)
(114.729 0 0)
(115.988 0 0)
(117.262 0 0)
(118.548 0 0)
(119.842 0 0)
(121.145 0 0)
(122.453 0 0)
(123.766 0 0)
(125.083 0 0)
(126.402 0 0)
(127.723 0 0)
(129.045 0 0)
(130.367 0 0)
(131.689 0 0)
(133.01 0 0)
(134.33 0 0)
(135.647 0 0)
(136.963 0 0)
(138.277 0 0)
(139.588 0 0)
(140.895 0 0)
(142.2 0 0)
(143.502 0 0)
(144.8 0 0)
(146.094 0 0)
(147.385 0 0)
(148.672 0 0)
(149.955 0 0)
(151.233 0 0)
(152.508 0 0)
(153.777 0 0)
(155.048 0 0)
(156.295 0 0)
(157.598 0 0)
(158.711 0 0)
(160.388 0 0)
(208.973 0 0)
(206.132 0 0)
(203.2 0 0)
(200.172 0 0)
(197.041 0 0)
(193.799 0 0)
(190.437 0 0)
(186.945 0 0)
(183.314 0 0)
(179.529 0 0)
(175.577 0 0)
(171.442 0 0)
(167.106 0 0)
(162.548 0 0)
(157.751 0 0)
(152.695 0 0)
(147.374 0 0)
(141.808 0 0)
(136.063 0 0)
(130.277 0 0)
(124.658 0 0)
(119.45 0 0)
(114.868 0 0)
(111.05 0 0)
(108.035 0 0)
(105.783 0 0)
(104.202 0 0)
(103.186 0 0)
(102.628 0 0)
(102.436 0 0)
(102.536 0 0)
(102.865 0 0)
(103.377 0 0)
(104.035 0 0)
(104.809 0 0)
(105.677 0 0)
(106.622 0 0)
(107.63 0 0)
(108.689 0 0)
(109.79 0 0)
(110.926 0 0)
(112.091 0 0)
(113.281 0 0)
(114.49 0 0)
(115.717 0 0)
(116.957 0 0)
(118.208 0 0)
(119.469 0 0)
(120.737 0 0)
(122.012 0 0)
(123.291 0 0)
(124.573 0 0)
(125.859 0 0)
(127.146 0 0)
(128.434 0 0)
(129.723 0 0)
(131.011 0 0)
(132.299 0 0)
(133.585 0 0)
(134.87 0 0)
(136.154 0 0)
(137.435 0 0)
(138.713 0 0)
(139.989 0 0)
(141.262 0 0)
(142.532 0 0)
(143.798 0 0)
(145.061 0 0)
(146.321 0 0)
(147.576 0 0)
(148.828 0 0)
(150.076 0 0)
(151.321 0 0)
(152.559 0 0)
(153.8 0 0)
(155.017 0 0)
(156.288 0 0)
(157.377 0 0)
(159.005 0 0)
(206.271 0 0)
(203.425 0 0)
(200.489 0 0)
(197.455 0 0)
(194.317 0 0)
(191.067 0 0)
(187.696 0 0)
(184.194 0 0)
(180.549 0 0)
(176.75 0 0)
(172.781 0 0)
(168.626 0 0)
(164.269 0 0)
(159.689 0 0)
(154.87 0 0)
(149.8 0 0)
(144.482 0 0)
(138.953 0 0)
(133.307 0 0)
(127.702 0 0)
(122.355 0 0)
(117.49 0 0)
(113.286 0 0)
(109.838 0 0)
(107.153 0 0)
(105.172 0 0)
(103.803 0 0)
(102.943 0 0)
(102.497 0 0)
(102.381 0 0)
(102.529 0 0)
(102.886 0 0)
(103.41 0 0)
(104.069 0 0)
(104.835 0 0)
(105.689 0 0)
(106.615 0 0)
(107.6 0 0)
(108.633 0 0)
(109.707 0 0)
(110.814 0 0)
(111.949 0 0)
(113.107 0 0)
(114.284 0 0)
(115.478 0 0)
(116.685 0 0)
(117.904 0 0)
(119.131 0 0)
(120.366 0 0)
(121.607 0 0)
(122.853 0 0)
(124.103 0 0)
(125.355 0 0)
(126.609 0 0)
(127.864 0 0)
(129.12 0 0)
(130.376 0 0)
(131.632 0 0)
(132.886 0 0)
(134.139 0 0)
(135.39 0 0)
(136.64 0 0)
(137.887 0 0)
(139.131 0 0)
(140.373 0 0)
(141.612 0 0)
(142.848 0 0)
(144.08 0 0)
(145.309 0 0)
(146.535 0 0)
(147.756 0 0)
(148.974 0 0)
(150.189 0 0)
(151.398 0 0)
(152.608 0 0)
(153.797 0 0)
(155.037 0 0)
(156.103 0 0)
(157.683 0 0)
(203.506 0 0)
(200.654 0 0)
(197.711 0 0)
(194.669 0 0)
(191.521 0 0)
(188.26 0 0)
(184.876 0 0)
(181.36 0 0)
(177.698 0 0)
(173.88 0 0)
(169.889 0 0)
(165.711 0 0)
(161.327 0 0)
(156.721 0 0)
(151.88 0 0)
(146.798 0 0)
(141.494 0 0)
(136.026 0 0)
(130.512 0 0)
(125.13 0 0)
(120.091 0 0)
(115.595 0 0)
(111.779 0 0)
(108.698 0 0)
(106.332 0 0)
(104.61 0 0)
(103.442 0 0)
(102.73 0 0)
(102.389 0 0)
(102.346 0 0)
(102.54 0 0)
(102.924 0 0)
(103.461 0 0)
(104.121 0 0)
(104.88 0 0)
(105.721 0 0)
(106.629 0 0)
(107.593 0 0)
(108.602 0 0)
(109.649 0 0)
(110.728 0 0)
(111.834 0 0)
(112.962 0 0)
(114.109 0 0)
(115.271 0 0)
(116.447 0 0)
(117.633 0 0)
(118.828 0 0)
(120.031 0 0)
(121.24 0 0)
(122.454 0 0)
(123.671 0 0)
(124.891 0 0)
(126.113 0 0)
(127.337 0 0)
(128.561 0 0)
(129.785 0 0)
(131.009 0 0)
(132.232 0 0)
(133.454 0 0)
(134.674 0 0)
(135.892 0 0)
(137.109 0 0)
(138.323 0 0)
(139.534 0 0)
(140.743 0 0)
(141.948 0 0)
(143.151 0 0)
(144.35 0 0)
(145.546 0 0)
(146.738 0 0)
(147.927 0 0)
(149.112 0 0)
(150.292 0 0)
(151.474 0 0)
(152.634 0 0)
(153.843 0 0)
(154.886 0 0)
(156.423 0 0)
(200.716 0 0)
(197.857 0 0)
(194.904 0 0)
(191.853 0 0)
(188.694 0 0)
(185.419 0 0)
(182.02 0 0)
(178.486 0 0)
(174.806 0 0)
(170.965 0 0)
(166.95 0 0)
(162.745 0 0)
(158.333 0 0)
(153.702 0 0)
(148.841 0 0)
(143.757 0 0)
(138.486 0 0)
(133.108 0 0)
(127.765 0 0)
(122.643 0 0)
(117.942 0 0)
(113.826 0 0)
(110.392 0 0)
(107.661 0 0)
(105.593 0 0)
(104.111 0 0)
(103.125 0 0)
(102.549 0 0)
(102.304 0 0)
(102.327 0 0)
(102.563 0 0)
(102.972 0 0)
(103.52 0 0)
(104.181 0 0)
(104.934 0 0)
(105.763 0 0)
(106.654 0 0)
(107.597 0 0)
(108.582 0 0)
(109.604 0 0)
(110.657 0 0)
(111.734 0 0)
(112.834 0 0)
(113.951 0 0)
(115.083 0 0)
(116.228 0 0)
(117.383 0 0)
(118.548 0 0)
(119.719 0 0)
(120.897 0 0)
(122.079 0 0)
(123.265 0 0)
(124.454 0 0)
(125.645 0 0)
(126.837 0 0)
(128.031 0 0)
(129.224 0 0)
(130.417 0 0)
(131.61 0 0)
(132.801 0 0)
(133.991 0 0)
(135.179 0 0)
(136.366 0 0)
(137.55 0 0)
(138.732 0 0)
(139.911 0 0)
(141.087 0 0)
(142.26 0 0)
(143.43 0 0)
(144.597 0 0)
(145.761 0 0)
(146.921 0 0)
(148.077 0 0)
(149.229 0 0)
(150.382 0 0)
(151.514 0 0)
(152.694 0 0)
(153.714 0 0)
(155.209 0 0)
(197.917 0 0)
(195.049 0 0)
(192.087 0 0)
(189.024 0 0)
(185.852 0 0)
(182.564 0 0)
(179.148 0 0)
(175.595 0 0)
(171.893 0 0)
(168.028 0 0)
(163.987 0 0)
(159.754 0 0)
(155.315 0 0)
(150.661 0 0)
(145.788 0 0)
(140.718 0 0)
(135.505 0 0)
(130.253 0 0)
(125.121 0 0)
(120.292 0 0)
(115.945 0 0)
(112.209 0 0)
(109.142 0 0)
(106.737 0 0)
(104.942 0 0)
(103.675 0 0)
(102.854 0 0)
(102.399 0 0)
(102.241 0 0)
(102.322 0 0)
(102.596 0 0)
(103.027 0 0)
(103.584 0 0)
(104.245 0 0)
(104.992 0 0)
(105.808 0 0)
(106.682 0 0)
(107.605 0 0)
(108.569 0 0)
(109.566 0 0)
(110.593 0 0)
(111.643 0 0)
(112.714 0 0)
(113.803 0 0)
(114.906 0 0)
(116.021 0 0)
(117.147 0 0)
(118.281 0 0)
(119.422 0 0)
(120.57 0 0)
(121.722 0 0)
(122.877 0 0)
(124.036 0 0)
(125.197 0 0)
(126.359 0 0)
(127.522 0 0)
(128.685 0 0)
(129.849 0 0)
(131.011 0 0)
(132.173 0 0)
(133.334 0 0)
(134.493 0 0)
(135.65 0 0)
(136.805 0 0)
(137.958 0 0)
(139.108 0 0)
(140.255 0 0)
(141.4 0 0)
(142.542 0 0)
(143.68 0 0)
(144.815 0 0)
(145.947 0 0)
(147.076 0 0)
(148.2 0 0)
(149.325 0 0)
(150.43 0 0)
(151.581 0 0)
(152.577 0 0)
(154.033 0 0)
(195.116 0 0)
(192.239 0 0)
(189.267 0 0)
(186.191 0 0)
(183.006 0 0)
(179.701 0 0)
(176.267 0 0)
(172.694 0 0)
(168.969 0 0)
(165.079 0 0)
(161.011 0 0)
(156.751 0 0)
(152.288 0 0)
(147.616 0 0)
(142.744 0 0)
(137.708 0 0)
(132.584 0 0)
(127.497 0 0)
(122.611 0 0)
(118.101 0 0)
(114.117 0 0)
(110.751 0 0)
(108.03 0 0)
(105.926 0 0)
(104.376 0 0)
(103.302 0 0)
(102.628 0 0)
(102.279 0 0)
(102.197 0 0)
(102.33 0 0)
(102.637 0 0)
(103.086 0 0)
(103.651 0 0)
(104.311 0 0)
(105.05 0 0)
(105.854 0 0)
(106.712 0 0)
(107.615 0 0)
(108.557 0 0)
(109.531 0 0)
(110.533 0 0)
(111.557 0 0)
(112.601 0 0)
(113.662 0 0)
(114.737 0 0)
(115.823 0 0)
(116.92 0 0)
(118.025 0 0)
(119.137 0 0)
(120.255 0 0)
(121.377 0 0)
(122.504 0 0)
(123.633 0 0)
(124.764 0 0)
(125.897 0 0)
(127.031 0 0)
(128.165 0 0)
(129.299 0 0)
(130.433 0 0)
(131.566 0 0)
(132.698 0 0)
(133.828 0 0)
(134.957 0 0)
(136.083 0 0)
(137.208 0 0)
(138.33 0 0)
(139.449 0 0)
(140.566 0 0)
(141.68 0 0)
(142.791 0 0)
(143.898 0 0)
(145.003 0 0)
(146.104 0 0)
(147.2 0 0)
(148.298 0 0)
(149.377 0 0)
(150.5 0 0)
(151.472 0 0)
(152.891 0 0)
(192.315 0 0)
(189.428 0 0)
(186.444 0 0)
(183.356 0 0)
(180.155 0 0)
(176.833 0 0)
(173.38 0 0)
(169.786 0 0)
(166.037 0 0)
(162.122 0 0)
(158.028 0 0)
(153.742 0 0)
(149.259 0 0)
(144.579 0 0)
(139.725 0 0)
(134.75 0 0)
(129.751 0 0)
(124.865 0 0)
(120.257 0 0)
(116.083 0 0)
(112.462 0 0)
(109.45 0 0)
(107.05 0 0)
(105.218 0 0)
(103.888 0 0)
(102.986 0 0)
(102.44 0 0)
(102.187 0 0)
(102.171 0 0)
(102.349 0 0)
(102.684 0 0)
(103.149 0 0)
(103.72 0 0)
(104.378 0 0)
(105.108 0 0)
(105.9 0 0)
(106.742 0 0)
(107.626 0 0)
(108.547 0 0)
(109.498 0 0)
(110.475 0 0)
(111.474 0 0)
(112.492 0 0)
(113.526 0 0)
(114.573 0 0)
(115.632 0 0)
(116.701 0 0)
(117.778 0 0)
(118.861 0 0)
(119.951 0 0)
(121.045 0 0)
(122.142 0 0)
(123.243 0 0)
(124.346 0 0)
(125.45 0 0)
(126.555 0 0)
(127.661 0 0)
(128.767 0 0)
(129.873 0 0)
(130.977 0 0)
(132.081 0 0)
(133.183 0 0)
(134.284 0 0)
(135.383 0 0)
(136.48 0 0)
(137.575 0 0)
(138.667 0 0)
(139.756 0 0)
(140.843 0 0)
(141.927 0 0)
(143.007 0 0)
(144.085 0 0)
(145.16 0 0)
(146.229 0 0)
(147.301 0 0)
(148.353 0 0)
(149.448 0 0)
(150.398 0 0)
(151.78 0 0)
(189.514 0 0)
(186.616 0 0)
(183.62 0 0)
(180.517 0 0)
(177.301 0 0)
(173.961 0 0)
(170.488 0 0)
(166.871 0 0)
(163.099 0 0)
(159.158 0 0)
(155.039 0 0)
(150.732 0 0)
(146.236 0 0)
(141.562 0 0)
(136.748 0 0)
(131.864 0 0)
(127.025 0 0)
(122.376 0 0)
(118.071 0 0)
(114.242 0 0)
(110.974 0 0)
(108.297 0 0)
(106.191 0 0)
(104.605 0 0)
(103.472 0 0)
(102.721 0 0)
(102.289 0 0)
(102.118 0 0)
(102.16 0 0)
(102.377 0 0)
(102.737 0 0)
(103.215 0 0)
(103.789 0 0)
(104.444 0 0)
(105.167 0 0)
(105.945 0 0)
(106.771 0 0)
(107.637 0 0)
(108.537 0 0)
(109.466 0 0)
(110.42 0 0)
(111.394 0 0)
(112.387 0 0)
(113.395 0 0)
(114.415 0 0)
(115.447 0 0)
(116.489 0 0)
(117.538 0 0)
(118.594 0 0)
(119.656 0 0)
(120.722 0 0)
(121.792 0 0)
(122.865 0 0)
(123.94 0 0)
(125.016 0 0)
(126.094 0 0)
(127.172 0 0)
(128.251 0 0)
(129.329 0 0)
(130.406 0 0)
(131.483 0 0)
(132.558 0 0)
(133.632 0 0)
(134.704 0 0)
(135.774 0 0)
(136.841 0 0)
(137.907 0 0)
(138.97 0 0)
(140.03 0 0)
(141.087 0 0)
(142.142 0 0)
(143.193 0 0)
(144.242 0 0)
(145.286 0 0)
(146.331 0 0)
(147.358 0 0)
(148.426 0 0)
(149.354 0 0)
(150.7 0 0)
(186.712 0 0)
(183.803 0 0)
(180.793 0 0)
(177.676 0 0)
(174.443 0 0)
(171.084 0 0)
(167.59 0 0)
(163.951 0 0)
(160.154 0 0)
(156.189 0 0)
(152.048 0 0)
(147.725 0 0)
(143.227 0 0)
(138.577 0 0)
(133.828 0 0)
(129.07 0 0)
(124.428 0 0)
(120.045 0 0)
(116.059 0 0)
(112.575 0 0)
(109.647 0 0)
(107.281 0 0)
(105.443 0 0)
(104.077 0 0)
(103.118 0 0)
(102.502 0 0)
(102.169 0 0)
(102.071 0 0)
(102.164 0 0)
(102.415 0 0)
(102.795 0 0)
(103.283 0 0)
(103.86 0 0)
(104.511 0 0)
(105.225 0 0)
(105.99 0 0)
(106.801 0 0)
(107.649 0 0)
(108.528 0 0)
(109.436 0 0)
(110.366 0 0)
(111.317 0 0)
(112.285 0 0)
(113.267 0 0)
(114.263 0 0)
(115.269 0 0)
(116.284 0 0)
(117.306 0 0)
(118.336 0 0)
(119.37 0 0)
(120.41 0 0)
(121.453 0 0)
(122.499 0 0)
(123.547 0 0)
(124.596 0 0)
(125.647 0 0)
(126.698 0 0)
(127.75 0 0)
(128.801 0 0)
(129.852 0 0)
(130.902 0 0)
(131.951 0 0)
(132.998 0 0)
(134.044 0 0)
(135.088 0 0)
(136.13 0 0)
(137.169 0 0)
(138.206 0 0)
(139.24 0 0)
(140.272 0 0)
(141.301 0 0)
(142.327 0 0)
(143.35 0 0)
(144.368 0 0)
(145.388 0 0)
(146.39 0 0)
(147.432 0 0)
(148.338 0 0)
(149.648 0 0)
(183.908 0 0)
(180.987 0 0)
(177.964 0 0)
(174.831 0 0)
(171.58 0 0)
(168.202 0 0)
(164.686 0 0)
(161.024 0 0)
(157.204 0 0)
(153.217 0 0)
(149.057 0 0)
(144.727 0 0)
(140.241 0 0)
(135.638 0 0)
(130.985 0 0)
(126.388 0 0)
(121.974 0 0)
(117.881 0 0)
(114.223 0 0)
(111.077 0 0)
(108.471 0 0)
(106.391 0 0)
(104.795 0 0)
(103.625 0 0)
(102.821 0 0)
(102.322 0 0)
(102.077 0 0)
(102.042 0 0)
(102.18 0 0)
(102.46 0 0)
(102.858 0 0)
(103.354 0 0)
(103.932 0 0)
(104.578 0 0)
(105.282 0 0)
(106.035 0 0)
(106.83 0 0)
(107.66 0 0)
(108.52 0 0)
(109.406 0 0)
(110.315 0 0)
(111.242 0 0)
(112.186 0 0)
(113.144 0 0)
(114.115 0 0)
(115.095 0 0)
(116.085 0 0)
(117.082 0 0)
(118.085 0 0)
(119.094 0 0)
(120.107 0 0)
(121.124 0 0)
(122.144 0 0)
(123.165 0 0)
(124.189 0 0)
(125.214 0 0)
(126.239 0 0)
(127.264 0 0)
(128.29 0 0)
(129.315 0 0)
(130.339 0 0)
(131.362 0 0)
(132.384 0 0)
(133.404 0 0)
(134.422 0 0)
(135.438 0 0)
(136.452 0 0)
(137.464 0 0)
(138.473 0 0)
(139.48 0 0)
(140.484 0 0)
(141.485 0 0)
(142.483 0 0)
(143.476 0 0)
(144.471 0 0)
(145.449 0 0)
(146.466 0 0)
(147.351 0 0)
(148.626 0 0)
(181.103 0 0)
(178.168 0 0)
(175.13 0 0)
(171.981 0 0)
(168.711 0 0)
(165.313 0 0)
(161.776 0 0)
(158.091 0 0)
(154.249 0 0)
(150.244 0 0)
(146.073 0 0)
(141.747 0 0)
(137.293 0 0)
(132.762 0 0)
(128.238 0 0)
(123.835 0 0)
(119.679 0 0)
(115.891 0 0)
(112.561 0 0)
(109.74 0 0)
(107.433 0 0)
(105.614 0 0)
(104.235 0 0)
(103.241 0 0)
(102.572 0 0)
(102.177 0 0)
(102.009 0 0)
(102.03 0 0)
(102.206 0 0)
(102.511 0 0)
(102.924 0 0)
(103.426 0 0)
(104.003 0 0)
(104.644 0 0)
(105.339 0 0)
(106.079 0 0)
(106.859 0 0)
(107.671 0 0)
(108.512 0 0)
(109.378 0 0)
(110.265 0 0)
(111.17 0 0)
(112.091 0 0)
(113.025 0 0)
(113.971 0 0)
(114.928 0 0)
(115.892 0 0)
(116.864 0 0)
(117.843 0 0)
(118.826 0 0)
(119.814 0 0)
(120.805 0 0)
(121.799 0 0)
(122.796 0 0)
(123.794 0 0)
(124.793 0 0)
(125.793 0 0)
(126.794 0 0)
(127.794 0 0)
(128.794 0 0)
(129.793 0 0)
(130.791 0 0)
(131.787 0 0)
(132.782 0 0)
(133.776 0 0)
(134.767 0 0)
(135.757 0 0)
(136.744 0 0)
(137.729 0 0)
(138.711 0 0)
(139.69 0 0)
(140.667 0 0)
(141.64 0 0)
(142.61 0 0)
(143.581 0 0)
(144.535 0 0)
(145.526 0 0)
(146.39 0 0)
(147.633 0 0)
(178.295 0 0)
(175.346 0 0)
(172.293 0 0)
(169.126 0 0)
(165.838 0 0)
(162.419 0 0)
(158.861 0 0)
(155.154 0 0)
(151.293 0 0)
(147.274 0 0)
(143.103 0 0)
(138.797 0 0)
(134.397 0 0)
(129.968 0 0)
(125.607 0 0)
(121.428 0 0)
(117.551 0 0)
(114.075 0 0)
(111.067 0 0)
(108.553 0 0)
(106.522 0 0)
(104.94 0 0)
(103.755 0 0)
(102.915 0 0)
(102.367 0 0)
(102.063 0 0)
(101.963 0 0)
(102.032 0 0)
(102.241 0 0)
(102.568 0 0)
(102.993 0 0)
(103.499 0 0)
(104.076 0 0)
(104.711 0 0)
(105.396 0 0)
(106.123 0 0)
(106.887 0 0)
(107.683 0 0)
(108.505 0 0)
(109.351 0 0)
(110.217 0 0)
(111.1 0 0)
(111.999 0 0)
(112.91 0 0)
(113.833 0 0)
(114.765 0 0)
(115.706 0 0)
(116.654 0 0)
(117.608 0 0)
(118.567 0 0)
(119.53 0 0)
(120.497 0 0)
(121.466 0 0)
(122.438 0 0)
(123.411 0 0)
(124.386 0 0)
(125.361 0 0)
(126.337 0 0)
(127.313 0 0)
(128.288 0 0)
(129.262 0 0)
(130.236 0 0)
(131.208 0 0)
(132.179 0 0)
(133.149 0 0)
(134.116 0 0)
(135.081 0 0)
(136.045 0 0)
(137.005 0 0)
(137.964 0 0)
(138.919 0 0)
(139.872 0 0)
(140.822 0 0)
(141.768 0 0)
(142.715 0 0)
(143.646 0 0)
(144.613 0 0)
(145.457 0 0)
(146.666 0 0)
(175.484 0 0)
(172.521 0 0)
(169.451 0 0)
(166.266 0 0)
(162.959 0 0)
(159.519 0 0)
(155.941 0 0)
(152.215 0 0)
(148.34 0 0)
(144.316 0 0)
(140.156 0 0)
(135.89 0 0)
(131.57 0 0)
(127.275 0 0)
(123.108 0 0)
(119.18 0 0)
(115.595 0 0)
(112.432 0 0)
(109.733 0 0)
(107.506 0 0)
(105.727 0 0)
(104.357 0 0)
(103.345 0 0)
(102.642 0 0)
(102.2 0 0)
(101.976 0 0)
(101.935 0 0)
(102.046 0 0)
(102.285 0 0)
(102.629 0 0)
(103.064 0 0)
(103.574 0 0)
(104.148 0 0)
(104.777 0 0)
(105.452 0 0)
(106.167 0 0)
(106.916 0 0)
(107.695 0 0)
(108.499 0 0)
(109.325 0 0)
(110.171 0 0)
(111.033 0 0)
(111.91 0 0)
(112.799 0 0)
(113.699 0 0)
(114.608 0 0)
(115.526 0 0)
(116.45 0 0)
(117.38 0 0)
(118.315 0 0)
(119.255 0 0)
(120.198 0 0)
(121.143 0 0)
(122.091 0 0)
(123.04 0 0)
(123.991 0 0)
(124.943 0 0)
(125.894 0 0)
(126.846 0 0)
(127.798 0 0)
(128.748 0 0)
(129.698 0 0)
(130.647 0 0)
(131.594 0 0)
(132.54 0 0)
(133.484 0 0)
(134.426 0 0)
(135.366 0 0)
(136.303 0 0)
(137.238 0 0)
(138.171 0 0)
(139.1 0 0)
(140.027 0 0)
(140.95 0 0)
(141.874 0 0)
(142.783 0 0)
(143.726 0 0)
(144.55 0 0)
(145.727 0 0)
(172.669 0 0)
(169.691 0 0)
(166.605 0 0)
(163.402 0 0)
(160.075 0 0)
(156.616 0 0)
(153.018 0 0)
(149.278 0 0)
(145.395 0 0)
(141.376 0 0)
(137.245 0 0)
(133.042 0 0)
(128.832 0 0)
(124.703 0 0)
(120.757 0 0)
(117.098 0 0)
(113.812 0 0)
(110.955 0 0)
(108.55 0 0)
(106.587 0 0)
(105.036 0 0)
(103.856 0 0)
(102.998 0 0)
(102.415 0 0)
(102.066 0 0)
(101.912 0 0)
(101.923 0 0)
(102.071 0 0)
(102.335 0 0)
(102.695 0 0)
(103.137 0 0)
(103.649 0 0)
(104.22 0 0)
(104.842 0 0)
(105.507 0 0)
(106.209 0 0)
(106.944 0 0)
(107.706 0 0)
(108.493 0 0)
(109.3 0 0)
(110.126 0 0)
(110.968 0 0)
(111.824 0 0)
(112.691 0 0)
(113.569 0 0)
(114.456 0 0)
(115.351 0 0)
(116.253 0 0)
(117.16 0 0)
(118.072 0 0)
(118.988 0 0)
(119.908 0 0)
(120.83 0 0)
(121.755 0 0)
(122.681 0 0)
(123.608 0 0)
(124.537 0 0)
(125.465 0 0)
(126.394 0 0)
(127.322 0 0)
(128.25 0 0)
(129.177 0 0)
(130.102 0 0)
(131.027 0 0)
(131.949 0 0)
(132.871 0 0)
(133.79 0 0)
(134.707 0 0)
(135.621 0 0)
(136.534 0 0)
(137.444 0 0)
(138.351 0 0)
(139.255 0 0)
(140.156 0 0)
(141.057 0 0)
(141.944 0 0)
(142.863 0 0)
(143.669 0 0)
(144.814 0 0)
(169.852 0 0)
(166.858 0 0)
(163.754 0 0)
(160.533 0 0)
(157.187 0 0)
(153.71 0 0)
(150.097 0 0)
(146.347 0 0)
(142.465 0 0)
(138.467 0 0)
(134.385 0 0)
(130.272 0 0)
(126.201 0 0)
(122.267 0 0)
(118.566 0 0)
(115.189 0 0)
(112.2 0 0)
(109.637 0 0)
(107.505 0 0)
(105.783 0 0)
(104.438 0 0)
(103.427 0 0)
(102.704 0 0)
(102.228 0 0)
(101.961 0 0)
(101.869 0 0)
(101.925 0 0)
(102.105 0 0)
(102.39 0 0)
(102.764 0 0)
(103.212 0 0)
(103.725 0 0)
(104.292 0 0)
(104.907 0 0)
(105.562 0 0)
(106.251 0 0)
(106.972 0 0)
(107.718 0 0)
(108.487 0 0)
(109.277 0 0)
(110.083 0 0)
(110.905 0 0)
(111.74 0 0)
(112.587 0 0)
(113.444 0 0)
(114.309 0 0)
(115.182 0 0)
(116.062 0 0)
(116.947 0 0)
(117.837 0 0)
(118.73 0 0)
(119.627 0 0)
(120.527 0 0)
(121.429 0 0)
(122.333 0 0)
(123.238 0 0)
(124.143 0 0)
(125.049 0 0)
(125.955 0 0)
(126.861 0 0)
(127.766 0 0)
(128.671 0 0)
(129.574 0 0)
(130.476 0 0)
(131.376 0 0)
(132.275 0 0)
(133.172 0 0)
(134.067 0 0)
(134.96 0 0)
(135.85 0 0)
(136.738 0 0)
(137.623 0 0)
(138.506 0 0)
(139.384 0 0)
(140.264 0 0)
(141.129 0 0)
(142.026 0 0)
(142.812 0 0)
(143.927 0 0)
(167.03 0 0)
(164.02 0 0)
(160.899 0 0)
(157.66 0 0)
(154.296 0 0)
(150.804 0 0)
(147.181 0 0)
(143.429 0 0)
(139.561 0 0)
(135.601 0 0)
(131.592 0 0)
(127.597 0 0)
(123.696 0 0)
(119.982 0 0)
(116.543 0 0)
(113.451 0 0)
(110.753 0 0)
(108.468 0 0)
(106.587 0 0)
(105.085 0 0)
(103.924 0 0)
(103.062 0 0)
(102.46 0 0)
(102.077 0 0)
(101.882 0 0)
(101.844 0 0)
(101.94 0 0)
(102.148 0 0)
(102.451 0 0)
(102.835 0 0)
(103.288 0 0)
(103.801 0 0)
(104.364 0 0)
(104.971 0 0)
(105.615 0 0)
(106.293 0 0)
(106.999 0 0)
(107.73 0 0)
(108.482 0 0)
(109.254 0 0)
(110.042 0 0)
(110.845 0 0)
(111.66 0 0)
(112.486 0 0)
(113.323 0 0)
(114.167 0 0)
(115.019 0 0)
(115.877 0 0)
(116.74 0 0)
(117.608 0 0)
(118.48 0 0)
(119.356 0 0)
(120.234 0 0)
(121.114 0 0)
(121.995 0 0)
(122.878 0 0)
(123.762 0 0)
(124.646 0 0)
(125.53 0 0)
(126.414 0 0)
(127.297 0 0)
(128.18 0 0)
(129.061 0 0)
(129.942 0 0)
(130.821 0 0)
(131.698 0 0)
(132.573 0 0)
(133.446 0 0)
(134.317 0 0)
(135.186 0 0)
(136.053 0 0)
(136.916 0 0)
(137.778 0 0)
(138.635 0 0)
(139.493 0 0)
(140.337 0 0)
(141.212 0 0)
(141.98 0 0)
(143.065 0 0)
(164.204 0 0)
(161.178 0 0)
(158.04 0 0)
(154.784 0 0)
(151.406 0 0)
(147.903 0 0)
(144.276 0 0)
(140.533 0 0)
(136.695 0 0)
(132.795 0 0)
(128.885 0 0)
(125.037 0 0)
(121.333 0 0)
(117.858 0 0)
(114.69 0 0)
(111.881 0 0)
(109.462 0 0)
(107.436 0 0)
(105.785 0 0)
(104.48 0 0)
(103.482 0 0)
(102.754 0 0)
(102.257 0 0)
(101.957 0 0)
(101.825 0 0)
(101.835 0 0)
(101.965 0 0)
(102.197 0 0)
(102.516 0 0)
(102.909 0 0)
(103.365 0 0)
(103.876 0 0)
(104.435 0 0)
(105.034 0 0)
(105.668 0 0)
(106.334 0 0)
(107.026 0 0)
(107.742 0 0)
(108.478 0 0)
(109.232 0 0)
(110.002 0 0)
(110.786 0 0)
(111.582 0 0)
(112.389 0 0)
(113.205 0 0)
(114.029 0 0)
(114.861 0 0)
(115.698 0 0)
(116.54 0 0)
(117.388 0 0)
(118.238 0 0)
(119.093 0 0)
(119.949 0 0)
(120.808 0 0)
(121.668 0 0)
(122.53 0 0)
(123.392 0 0)
(124.255 0 0)
(125.118 0 0)
(125.981 0 0)
(126.843 0 0)
(127.704 0 0)
(128.564 0 0)
(129.424 0 0)
(130.281 0 0)
(131.137 0 0)
(131.992 0 0)
(132.844 0 0)
(133.694 0 0)
(134.542 0 0)
(135.387 0 0)
(136.23 0 0)
(137.071 0 0)
(137.908 0 0)
(138.745 0 0)
(139.569 0 0)
(140.421 0 0)
(141.172 0 0)
(142.228 0 0)
(161.375 0 0)
(158.333 0 0)
(155.179 0 0)
(151.909 0 0)
(148.52 0 0)
(145.011 0 0)
(141.39 0 0)
(137.671 0 0)
(133.881 0 0)
(130.065 0 0)
(126.282 0 0)
(122.608 0 0)
(119.123 0 0)
(115.902 0 0)
(113.006 0 0)
(110.473 0 0)
(108.317 0 0)
(106.529 0 0)
(105.087 0 0)
(103.958 0 0)
(103.106 0 0)
(102.495 0 0)
(102.092 0 0)
(101.864 0 0)
(101.788 0 0)
(101.839 0 0)
(101.999 0 0)
(102.252 0 0)
(102.584 0 0)
(102.984 0 0)
(103.443 0 0)
(103.952 0 0)
(104.505 0 0)
(105.096 0 0)
(105.721 0 0)
(106.374 0 0)
(107.053 0 0)
(107.753 0 0)
(108.474 0 0)
(109.211 0 0)
(109.964 0 0)
(110.73 0 0)
(111.507 0 0)
(112.295 0 0)
(113.092 0 0)
(113.896 0 0)
(114.707 0 0)
(115.525 0 0)
(116.347 0 0)
(117.174 0 0)
(118.004 0 0)
(118.838 0 0)
(119.674 0 0)
(120.512 0 0)
(121.352 0 0)
(122.192 0 0)
(123.034 0 0)
(123.876 0 0)
(124.718 0 0)
(125.56 0 0)
(126.402 0 0)
(127.243 0 0)
(128.082 0 0)
(128.921 0 0)
(129.758 0 0)
(130.594 0 0)
(131.427 0 0)
(132.259 0 0)
(133.089 0 0)
(133.917 0 0)
(134.742 0 0)
(135.564 0 0)
(136.385 0 0)
(137.201 0 0)
(138.018 0 0)
(138.822 0 0)
(139.654 0 0)
(140.386 0 0)
(141.414 0 0)
(158.544 0 0)
(155.486 0 0)
(152.319 0 0)
(149.037 0 0)
(145.642 0 0)
(142.137 0 0)
(138.533 0 0)
(134.854 0 0)
(131.136 0 0)
(127.429 0 0)
(123.801 0 0)
(120.325 0 0)
(117.075 0 0)
(114.115 0 0)
(111.489 0 0)
(109.219 0 0)
(107.307 0 0)
(105.737 0 0)
(104.482 0 0)
(103.511 0 0)
(102.788 0 0)
(102.281 0 0)
(101.959 0 0)
(101.795 0 0)
(101.767 0 0)
(101.855 0 0)
(102.041 0 0)
(102.311 0 0)
(102.655 0 0)
(103.061 0 0)
(103.52 0 0)
(104.027 0 0)
(104.575 0 0)
(105.158 0 0)
(105.772 0 0)
(106.413 0 0)
(107.079 0 0)
(107.765 0 0)
(108.47 0 0)
(109.191 0 0)
(109.927 0 0)
(110.675 0 0)
(111.434 0 0)
(112.204 0 0)
(112.982 0 0)
(113.767 0 0)
(114.559 0 0)
(115.357 0 0)
(116.16 0 0)
(116.967 0 0)
(117.777 0 0)
(118.591 0 0)
(119.407 0 0)
(120.225 0 0)
(121.045 0 0)
(121.865 0 0)
(122.687 0 0)
(123.509 0 0)
(124.331 0 0)
(125.153 0 0)
(125.974 0 0)
(126.795 0 0)
(127.615 0 0)
(128.433 0 0)
(129.251 0 0)
(130.066 0 0)
(130.88 0 0)
(131.692 0 0)
(132.502 0 0)
(133.31 0 0)
(134.115 0 0)
(134.918 0 0)
(135.718 0 0)
(136.515 0 0)
(137.312 0 0)
(138.097 0 0)
(138.908 0 0)
(139.624 0 0)
(140.624 0 0)
(155.71 0 0)
(152.64 0 0)
(149.461 0 0)
(146.174 0 0)
(142.78 0 0)
(139.289 0 0)
(135.719 0 0)
(132.1 0 0)
(128.477 0 0)
(124.907 0 0)
(121.457 0 0)
(118.198 0 0)
(115.195 0 0)
(112.495 0 0)
(110.129 0 0)
(108.107 0 0)
(106.42 0 0)
(105.047 0 0)
(103.961 0 0)
(103.129 0 0)
(102.52 0 0)
(102.104 0 0)
(101.854 0 0)
(101.747 0 0)
(101.761 0 0)
(101.881 0 0)
(102.089 0 0)
(102.375 0 0)
(102.728 0 0)
(103.138 0 0)
(103.598 0 0)
(104.102 0 0)
(104.644 0 0)
(105.218 0 0)
(105.823 0 0)
(106.452 0 0)
(107.105 0 0)
(107.777 0 0)
(108.467 0 0)
(109.172 0 0)
(109.891 0 0)
(110.622 0 0)
(111.364 0 0)
(112.116 0 0)
(112.875 0 0)
(113.642 0 0)
(114.416 0 0)
(115.194 0 0)
(115.978 0 0)
(116.766 0 0)
(117.557 0 0)
(118.352 0 0)
(119.148 0 0)
(119.947 0 0)
(120.747 0 0)
(121.549 0 0)
(122.351 0 0)
(123.153 0 0)
(123.956 0 0)
(124.758 0 0)
(125.56 0 0)
(126.361 0 0)
(127.162 0 0)
(127.961 0 0)
(128.758 0 0)
(129.555 0 0)
(130.349 0 0)
(131.142 0 0)
(131.932 0 0)
(132.721 0 0)
(133.507 0 0)
(134.29 0 0)
(135.072 0 0)
(135.849 0 0)
(136.627 0 0)
(137.393 0 0)
(138.184 0 0)
(138.883 0 0)
(139.857 0 0)
(152.877 0 0)
(149.796 0 0)
(146.611 0 0)
(143.324 0 0)
(139.941 0 0)
(136.478 0 0)
(132.96 0 0)
(129.425 0 0)
(125.922 0 0)
(122.513 0 0)
(119.263 0 0)
(116.235 0 0)
(113.481 0 0)
(111.037 0 0)
(108.919 0 0)
(107.126 0 0)
(105.644 0 0)
(104.449 0 0)
(103.512 0 0)
(102.804 0 0)
(102.296 0 0)
(101.961 0 0)
(101.775 0 0)
(101.717 0 0)
(101.769 0 0)
(101.915 0 0)
(102.144 0 0)
(102.443 0 0)
(102.803 0 0)
(103.216 0 0)
(103.676 0 0)
(104.176 0 0)
(104.711 0 0)
(105.278 0 0)
(105.872 0 0)
(106.49 0 0)
(107.13 0 0)
(107.788 0 0)
(108.464 0 0)
(109.153 0 0)
(109.857 0 0)
(110.571 0 0)
(111.296 0 0)
(112.03 0 0)
(112.772 0 0)
(113.521 0 0)
(114.277 0 0)
(115.037 0 0)
(115.803 0 0)
(116.572 0 0)
(117.344 0 0)
(118.12 0 0)
(118.898 0 0)
(119.678 0 0)
(120.459 0 0)
(121.241 0 0)
(122.025 0 0)
(122.808 0 0)
(123.592 0 0)
(124.375 0 0)
(125.158 0 0)
(125.941 0 0)
(126.722 0 0)
(127.502 0 0)
(128.281 0 0)
(129.058 0 0)
(129.834 0 0)
(130.608 0 0)
(131.38 0 0)
(132.149 0 0)
(132.917 0 0)
(133.681 0 0)
(134.444 0 0)
(135.203 0 0)
(135.962 0 0)
(136.709 0 0)
(137.481 0 0)
(138.164 0 0)
(139.111 0 0)
(150.047 0 0)
(146.96 0 0)
(143.775 0 0)
(140.496 0 0)
(137.138 0 0)
(133.72 0 0)
(130.275 0 0)
(126.846 0 0)
(123.488 0 0)
(120.261 0 0)
(117.227 0 0)
(114.437 0 0)
(111.932 0 0)
(109.734 0 0)
(107.848 0 0)
(106.266 0 0)
(104.969 0 0)
(103.933 0 0)
(103.129 0 0)
(102.531 0 0)
(102.112 0 0)
(101.847 0 0)
(101.717 0 0)
(101.702 0 0)
(101.787 0 0)
(101.958 0 0)
(102.203 0 0)
(102.513 0 0)
(102.879 0 0)
(103.295 0 0)
(103.753 0 0)
(104.249 0 0)
(104.778 0 0)
(105.337 0 0)
(105.921 0 0)
(106.528 0 0)
(107.155 0 0)
(107.8 0 0)
(108.461 0 0)
(109.136 0 0)
(109.823 0 0)
(110.522 0 0)
(111.231 0 0)
(111.948 0 0)
(112.673 0 0)
(113.405 0 0)
(114.142 0 0)
(114.885 0 0)
(115.632 0 0)
(116.384 0 0)
(117.138 0 0)
(117.896 0 0)
(118.655 0 0)
(119.417 0 0)
(120.18 0 0)
(120.944 0 0)
(121.709 0 0)
(122.474 0 0)
(123.239 0 0)
(124.004 0 0)
(124.769 0 0)
(125.533 0 0)
(126.296 0 0)
(127.058 0 0)
(127.818 0 0)
(128.577 0 0)
(129.334 0 0)
(130.09 0 0)
(130.843 0 0)
(131.595 0 0)
(132.344 0 0)
(133.09 0 0)
(133.834 0 0)
(134.575 0 0)
(135.316 0 0)
(136.045 0 0)
(136.798 0 0)
(137.465 0 0)
(138.387 0 0)
(147.225 0 0)
(144.136 0 0)
(140.959 0 0)
(137.701 0 0)
(134.382 0 0)
(131.028 0 0)
(127.678 0 0)
(124.38 0 0)
(121.189 0 0)
(118.163 0 0)
(115.354 0 0)
(112.804 0 0)
(110.541 0 0)
(108.575 0 0)
(106.903 0 0)
(105.513 0 0)
(104.384 0 0)
(103.489 0 0)
(102.804 0 0)
(102.302 0 0)
(101.961 0 0)
(101.759 0 0)
(101.678 0 0)
(101.701 0 0)
(101.815 0 0)
(102.006 0 0)
(102.266 0 0)
(102.586 0 0)
(102.957 0 0)
(103.373 0 0)
(103.83 0 0)
(104.322 0 0)
(104.844 0 0)
(105.394 0 0)
(105.969 0 0)
(106.564 0 0)
(107.179 0 0)
(107.811 0 0)
(108.458 0 0)
(109.119 0 0)
(109.791 0 0)
(110.474 0 0)
(111.167 0 0)
(111.868 0 0)
(112.576 0 0)
(113.291 0 0)
(114.012 0 0)
(114.738 0 0)
(115.468 0 0)
(116.202 0 0)
(116.939 0 0)
(117.678 0 0)
(118.42 0 0)
(119.164 0 0)
(119.909 0 0)
(120.656 0 0)
(121.403 0 0)
(122.15 0 0)
(122.897 0 0)
(123.645 0 0)
(124.391 0 0)
(125.137 0 0)
(125.882 0 0)
(126.626 0 0)
(127.369 0 0)
(128.11 0 0)
(128.85 0 0)
(129.588 0 0)
(130.323 0 0)
(131.057 0 0)
(131.788 0 0)
(132.517 0 0)
(133.243 0 0)
(133.966 0 0)
(134.689 0 0)
(135.401 0 0)
(136.135 0 0)
(136.787 0 0)
(137.684 0 0)
(144.414 0 0)
(141.333 0 0)
(138.173 0 0)
(134.951 0 0)
(131.689 0 0)
(128.421 0 0)
(125.189 0 0)
(122.043 0 0)
(119.038 0 0)
(116.225 0 0)
(113.646 0 0)
(111.332 0 0)
(109.299 0 0)
(107.549 0 0)
(106.075 0 0)
(104.859 0 0)
(103.878 0 0)
(103.109 0 0)
(102.529 0 0)
(102.113 0 0)
(101.841 0 0)
(101.694 0 0)
(101.656 0 0)
(101.712 0 0)
(101.851 0 0)
(102.061 0 0)
(102.333 0 0)
(102.66 0 0)
(103.035 0 0)
(103.452 0 0)
(103.906 0 0)
(104.393 0 0)
(104.909 0 0)
(105.451 0 0)
(106.015 0 0)
(106.6 0 0)
(107.203 0 0)
(107.822 0 0)
(108.456 0 0)
(109.103 0 0)
(109.76 0 0)
(110.428 0 0)
(111.106 0 0)
(111.791 0 0)
(112.483 0 0)
(113.182 0 0)
(113.886 0 0)
(114.595 0 0)
(115.308 0 0)
(116.025 0 0)
(116.745 0 0)
(117.468 0 0)
(118.193 0 0)
(118.919 0 0)
(119.647 0 0)
(120.376 0 0)
(121.106 0 0)
(121.836 0 0)
(122.566 0 0)
(123.296 0 0)
(124.025 0 0)
(124.754 0 0)
(125.482 0 0)
(126.208 0 0)
(126.934 0 0)
(127.658 0 0)
(128.38 0 0)
(129.1 0 0)
(129.819 0 0)
(130.535 0 0)
(131.249 0 0)
(131.96 0 0)
(132.669 0 0)
(133.375 0 0)
(134.081 0 0)
(134.776 0 0)
(135.492 0 0)
(136.129 0 0)
(137.001 0 0)
(141.623 0 0)
(138.558 0 0)
(135.43 0 0)
(132.259 0 0)
(129.074 0 0)
(125.913 0 0)
(122.822 0 0)
(119.849 0 0)
(117.043 0 0)
(114.449 0 0)
(112.099 0 0)
(110.012 0 0)
(108.196 0 0)
(106.647 0 0)
(105.351 0 0)
(104.291 0 0)
(103.443 0 0)
(102.786 0 0)
(102.298 0 0)
(101.957 0 0)
(101.746 0 0)
(101.648 0 0)
(101.648 0 0)
(101.733 0 0)
(101.894 0 0)
(102.12 0 0)
(102.403 0 0)
(102.736 0 0)
(103.114 0 0)
(103.53 0 0)
(103.982 0 0)
(104.464 0 0)
(104.973 0 0)
(105.506 0 0)
(106.061 0 0)
(106.635 0 0)
(107.227 0 0)
(107.834 0 0)
(108.454 0 0)
(109.087 0 0)
(109.731 0 0)
(110.384 0 0)
(111.046 0 0)
(111.716 0 0)
(112.393 0 0)
(113.076 0 0)
(113.764 0 0)
(114.457 0 0)
(115.154 0 0)
(115.855 0 0)
(116.558 0 0)
(117.264 0 0)
(117.972 0 0)
(118.682 0 0)
(119.394 0 0)
(120.106 0 0)
(120.819 0 0)
(121.532 0 0)
(122.245 0 0)
(122.958 0 0)
(123.671 0 0)
(124.382 0 0)
(125.093 0 0)
(125.803 0 0)
(126.512 0 0)
(127.219 0 0)
(127.924 0 0)
(128.628 0 0)
(129.329 0 0)
(130.028 0 0)
(130.726 0 0)
(131.42 0 0)
(132.113 0 0)
(132.802 0 0)
(133.49 0 0)
(134.169 0 0)
(134.867 0 0)
(135.49 0 0)
(136.339 0 0)
(138.859 0 0)
(135.823 0 0)
(132.742 0 0)
(129.642 0 0)
(126.555 0 0)
(123.523 0 0)
(120.591 0 0)
(117.805 0 0)
(115.208 0 0)
(112.835 0 0)
(110.707 0 0)
(108.836 0 0)
(107.222 0 0)
(105.855 0 0)
(104.721 0 0)
(103.8 0 0)
(103.071 0 0)
(102.513 0 0)
(102.106 0 0)
(101.832 0 0)
(101.675 0 0)
(101.619 0 0)
(101.652 0 0)
(101.764 0 0)
(101.943 0 0)
(102.182 0 0)
(102.474 0 0)
(102.813 0 0)
(103.192 0 0)
(103.608 0 0)
(104.056 0 0)
(104.533 0 0)
(105.035 0 0)
(105.561 0 0)
(106.106 0 0)
(106.67 0 0)
(107.25 0 0)
(107.845 0 0)
(108.452 0 0)
(109.072 0 0)