/*--------------------------------*- C++ -*----------------------------------*\
| =========                 |                                                 |
| \\      /  F ield         | OpenFOAM: The Open Source CFD Toolbox           |
|  \\    /   O peration     | Version:  2312                                  |
|   \\  /    A nd           | Website:  www.openfoam.com                      |
|    \\/     M anipulation  |                                                 |
\*---------------------------------------------------------------------------*/
FoamFile
{
    version     2.0;
    format      ascii;
    arch        "LSB;label=32;scalar=64";
    class       volVectorField;
    location    "0.889";
    object      U;
}
// * * * * * * * * * * * * * * * * * * * * * * * * * * * * * * * * * * * * * //

dimensions      [0 1 -1 0 0 0 0];

internalField   nonuniform List<vector> 
31205
(
(158.012 0 0)
(161.191 0 0)
(164.296 0 0)
(167.329 0 0)
(170.293 0 0)
(173.191 0 0)
(176.025 0 0)
(178.798 0 0)
(181.512 0 0)
(184.17 0 0)
(186.774 0 0)
(189.325 0 0)
(191.826 0 0)
(194.278 0 0)
(196.684 0 0)
(199.044 0 0)
(201.36 0 0)
(203.634 0 0)
(205.867 0 0)
(208.06 0 0)
(210.214 0 0)
(212.331 0 0)
(214.411 0 0)
(216.456 0 0)
(218.466 0 0)
(220.442 0 0)
(222.385 0 0)
(224.296 0 0)
(226.176 0 0)
(228.025 0 0)
(229.844 0 0)
(231.634 0 0)
(233.394 0 0)
(235.127 0 0)
(236.832 0 0)
(238.509 0 0)
(240.16 0 0)
(241.785 0 0)
(243.383 0 0)
(244.956 0 0)
(246.504 0 0)
(248.028 0 0)
(249.527 0 0)
(251.002 0 0)
(252.453 0 0)
(253.88 0 0)
(255.285 0 0)
(256.666 0 0)
(258.025 0 0)
(259.361 0 0)
(260.675 0 0)
(261.967 0 0)
(263.237 0 0)
(264.485 0 0)
(265.711 0 0)
(266.916 0 0)
(268.1 0 0)
(269.262 0 0)
(270.403 0 0)
(271.523 0 0)
(272.623 0 0)
(273.701 0 0)
(274.759 0 0)
(275.796 0 0)
(276.812 0 0)
(277.807 0 0)
(278.782 0 0)
(279.735 0 0)
(280.669 0 0)
(281.581 0 0)
(282.473 0 0)
(283.343 0 0)
(284.194 0 0)
(285.022 0 0)
(285.832 0 0)
(286.611 0 0)
(287.4 0 0)
(288.07 0 0)
(289.026 0 0)
(160.901 0 0)
(163.931 0 0)
(166.892 0 0)
(169.789 0 0)
(172.622 0 0)
(175.395 0 0)
(178.109 0 0)
(180.768 0 0)
(183.372 0 0)
(185.925 0 0)
(188.428 0 0)
(190.882 0 0)
(193.29 0 0)
(195.652 0 0)
(197.972 0 0)
(200.249 0 0)
(202.485 0 0)
(204.682 0 0)
(206.84 0 0)
(208.961 0 0)
(211.046 0 0)
(213.096 0 0)
(215.111 0 0)
(217.093 0 0)
(219.043 0 0)
(220.961 0 0)
(222.847 0 0)
(224.703 0 0)
(226.53 0 0)
(228.328 0 0)
(230.097 0 0)
(231.838 0 0)
(233.552 0 0)
(235.239 0 0)
(236.9 0 0)
(238.535 0 0)
(240.145 0 0)
(241.729 0 0)
(243.289 0 0)
(244.825 0 0)
(246.337 0 0)
(247.825 0 0)
(249.29 0 0)
(250.732 0 0)
(252.152 0 0)
(253.549 0 0)
(254.923 0 0)
(256.276 0 0)
(257.607 0 0)
(258.917 0 0)
(260.205 0 0)
(261.473 0 0)
(262.719 0 0)
(263.944 0 0)
(265.149 0 0)
(266.333 0 0)
(267.497 0 0)
(268.641 0 0)
(269.764 0 0)
(270.868 0 0)
(271.951 0 0)
(273.014 0 0)
(274.058 0 0)
(275.082 0 0)
(276.086 0 0)
(277.07 0 0)
(278.035 0 0)
(278.979 0 0)
(279.905 0 0)
(280.81 0 0)
(281.696 0 0)
(282.561 0 0)
(283.408 0 0)
(284.233 0 0)
(285.042 0 0)
(285.821 0 0)
(286.61 0 0)
(287.283 0 0)
(288.237 0 0)
(163.785 0 0)
(166.67 0 0)
(169.493 0 0)
(172.256 0 0)
(174.962 0 0)
(177.613 0 0)
(180.211 0 0)
(182.758 0 0)
(185.255 0 0)
(187.705 0 0)
(190.108 0 0)
(192.468 0 0)
(194.784 0 0)
(197.059 0 0)
(199.293 0 0)
(201.488 0 0)
(203.646 0 0)
(205.767 0 0)
(207.852 0 0)
(209.902 0 0)
(211.919 0 0)
(213.902 0 0)
(215.854 0 0)
(217.774 0 0)
(219.663 0 0)
(221.523 0 0)
(223.353 0 0)
(225.155 0 0)
(226.929 0 0)
(228.676 0 0)
(230.395 0 0)
(232.089 0 0)
(233.756 0 0)
(235.398 0 0)
(237.016 0 0)
(238.608 0 0)
(240.177 0 0)
(241.722 0 0)
(243.243 0 0)
(244.741 0 0)
(246.217 0 0)
(247.67 0 0)
(249.101 0 0)
(250.51 0 0)
(251.898 0 0)
(253.264 0 0)
(254.609 0 0)
(255.933 0 0)
(257.237 0 0)
(258.52 0 0)
(259.782 0 0)
(261.025 0 0)
(262.247 0 0)
(263.449 0 0)
(264.632 0 0)
(265.795 0 0)
(266.939 0 0)
(268.063 0 0)
(269.169 0 0)
(270.254 0 0)
(271.321 0 0)
(272.369 0 0)
(273.398 0 0)
(274.408 0 0)
(275.399 0 0)
(276.371 0 0)
(277.325 0 0)
(278.259 0 0)
(279.175 0 0)
(280.072 0 0)
(280.951 0 0)
(281.81 0 0)
(282.652 0 0)
(283.473 0 0)
(284.278 0 0)
(285.055 0 0)
(285.843 0 0)
(286.517 0 0)
(287.468 0 0)
(166.588 0 0)
(169.336 0 0)
(172.027 0 0)
(174.665 0 0)
(177.251 0 0)
(179.786 0 0)
(182.273 0 0)
(184.713 0 0)
(187.108 0 0)
(189.46 0 0)
(191.769 0 0)
(194.037 0 0)
(196.265 0 0)
(198.455 0 0)
(200.608 0 0)
(202.725 0 0)
(204.807 0 0)
(206.854 0 0)
(208.868 0 0)
(210.85 0 0)
(212.8 0 0)
(214.719 0 0)
(216.609 0 0)
(218.469 0 0)
(220.3 0 0)
(222.103 0 0)
(223.879 0 0)
(225.628 0 0)
(227.351 0 0)
(229.047 0 0)
(230.719 0 0)
(232.365 0 0)
(233.987 0 0)
(235.585 0 0)
(237.16 0 0)
(238.711 0 0)
(240.239 0 0)
(241.745 0 0)
(243.228 0 0)
(244.69 0 0)
(246.13 0 0)
(247.549 0 0)
(248.946 0 0)
(250.323 0 0)
(251.679 0 0)
(253.015 0 0)
(254.33 0 0)
(255.626 0 0)
(256.902 0 0)
(258.158 0 0)
(259.395 0 0)
(260.613 0 0)
(261.811 0 0)
(262.99 0 0)
(264.151 0 0)
(265.293 0 0)
(266.416 0 0)
(267.521 0 0)
(268.607 0 0)
(269.676 0 0)
(270.725 0 0)
(271.757 0 0)
(272.771 0 0)
(273.766 0 0)
(274.744 0 0)
(275.703 0 0)
(276.645 0 0)
(277.569 0 0)
(278.475 0 0)
(279.363 0 0)
(280.233 0 0)
(281.085 0 0)
(281.92 0 0)
(282.735 0 0)
(283.536 0 0)
(284.31 0 0)
(285.095 0 0)
(285.769 0 0)
(286.716 0 0)
(169.276 0 0)
(171.896 0 0)
(174.465 0 0)
(176.984 0 0)
(179.457 0 0)
(181.883 0 0)
(184.266 0 0)
(186.605 0 0)
(188.904 0 0)
(191.162 0 0)
(193.381 0 0)
(195.563 0 0)
(197.708 0 0)
(199.817 0 0)
(201.892 0 0)
(203.934 0 0)
(205.943 0 0)
(207.92 0 0)
(209.866 0 0)
(211.782 0 0)
(213.669 0 0)
(215.526 0 0)
(217.356 0 0)
(219.158 0 0)
(220.933 0 0)
(222.682 0 0)
(224.405 0 0)
(226.103 0 0)
(227.776 0 0)
(229.424 0 0)
(231.049 0 0)
(232.65 0 0)
(234.228 0 0)
(235.783 0 0)
(237.316 0 0)
(238.826 0 0)
(240.315 0 0)
(241.783 0 0)
(243.229 0 0)
(244.655 0 0)
(246.06 0 0)
(247.445 0 0)
(248.81 0 0)
(250.155 0 0)
(251.48 0 0)
(252.786 0 0)
(254.072 0 0)
(255.34 0 0)
(256.589 0 0)
(257.819 0 0)
(259.03 0 0)
(260.223 0 0)
(261.398 0 0)
(262.554 0 0)
(263.693 0 0)
(264.814 0 0)
(265.916 0 0)
(267.002 0 0)
(268.069 0 0)
(269.119 0 0)
(270.152 0 0)
(271.167 0 0)
(272.165 0 0)
(273.146 0 0)
(274.11 0 0)
(275.056 0 0)
(275.986 0 0)
(276.898 0 0)
(277.793 0 0)
(278.671 0 0)
(279.533 0 0)
(280.377 0 0)
(281.204 0 0)
(282.013 0 0)
(282.809 0 0)
(283.578 0 0)
(284.359 0 0)
(285.03 0 0)
(285.974 0 0)
(171.84 0 0)
(174.34 0 0)
(176.794 0 0)
(179.204 0 0)
(181.57 0 0)
(183.894 0 0)
(186.178 0 0)
(188.423 0 0)
(190.63 0 0)
(192.8 0 0)
(194.934 0 0)
(197.034 0 0)
(199.1 0 0)
(201.133 0 0)
(203.134 0 0)
(205.104 0 0)
(207.043 0 0)
(208.953 0 0)
(210.835 0 0)
(212.688 0 0)
(214.513 0 0)
(216.312 0 0)
(218.084 0 0)
(219.831 0 0)
(221.552 0 0)
(223.248 0 0)
(224.921 0 0)
(226.569 0 0)
(228.194 0 0)
(229.796 0 0)
(231.375 0 0)
(232.932 0 0)
(234.467 0 0)
(235.981 0 0)
(237.473 0 0)
(238.945 0 0)
(240.396 0 0)
(241.827 0 0)
(243.237 0 0)
(244.628 0 0)
(245.999 0 0)
(247.351 0 0)
(248.684 0 0)
(249.998 0 0)
(251.293 0 0)
(252.569 0 0)
(253.827 0 0)
(255.067 0 0)
(256.289 0 0)
(257.493 0 0)
(258.68 0 0)
(259.849 0 0)
(261 0 0)
(262.134 0 0)
(263.251 0 0)
(264.35 0 0)
(265.433 0 0)
(266.499 0 0)
(267.548 0 0)
(268.58 0 0)
(269.595 0 0)
(270.594 0 0)
(271.576 0 0)
(272.542 0 0)
(273.492 0 0)
(274.425 0 0)
(275.341 0 0)
(276.242 0 0)
(277.126 0 0)
(277.994 0 0)
(278.846 0 0)
(279.681 0 0)
(280.5 0 0)
(281.303 0 0)
(282.092 0 0)
(282.855 0 0)
(283.632 0 0)
(284.3 0 0)
(285.239 0 0)
(174.282 0 0)
(176.671 0 0)
(179.017 0 0)
(181.323 0 0)
(183.59 0 0)
(185.818 0 0)
(188.009 0 0)
(190.165 0 0)
(192.285 0 0)
(194.372 0 0)
(196.426 0 0)
(198.448 0 0)
(200.438 0 0)
(202.398 0 0)
(204.329 0 0)
(206.231 0 0)
(208.105 0 0)
(209.951 0 0)
(211.77 0 0)
(213.563 0 0)
(215.33 0 0)
(217.072 0 0)
(218.789 0 0)
(220.483 0 0)
(222.152 0 0)
(223.798 0 0)
(225.421 0 0)
(227.022 0 0)
(228.601 0 0)
(230.158 0 0)
(231.694 0 0)
(233.208 0 0)
(234.702 0 0)
(236.176 0 0)
(237.629 0 0)
(239.063 0 0)
(240.477 0 0)
(241.872 0 0)
(243.247 0 0)
(244.604 0 0)
(245.942 0 0)
(247.262 0 0)
(248.564 0 0)
(249.847 0 0)
(251.113 0 0)
(252.361 0 0)
(253.591 0 0)
(254.804 0 0)
(256 0 0)
(257.179 0 0)
(258.341 0 0)
(259.486 0 0)
(260.614 0 0)
(261.726 0 0)
(262.821 0 0)
(263.9 0 0)
(264.963 0 0)
(266.009 0 0)
(267.039 0 0)
(268.054 0 0)
(269.052 0 0)
(270.034 0 0)
(271.001 0 0)
(271.952 0 0)
(272.887 0 0)
(273.806 0 0)
(274.71 0 0)
(275.598 0 0)
(276.471 0 0)
(277.328 0 0)
(278.17 0 0)
(278.996 0 0)
(279.807 0 0)
(280.601 0 0)
(281.383 0 0)
(282.141 0 0)
(282.912 0 0)
(283.576 0 0)
(284.509 0 0)
(176.608 0 0)
(178.892 0 0)
(181.138 0 0)
(183.347 0 0)
(185.519 0 0)
(187.657 0 0)
(189.761 0 0)
(191.832 0 0)
(193.871 0 0)
(195.879 0 0)
(197.857 0 0)
(199.805 0 0)
(201.724 0 0)
(203.615 0 0)
(205.479 0 0)
(207.316 0 0)
(209.126 0 0)
(210.911 0 0)
(212.671 0 0)
(214.407 0 0)
(216.118 0 0)
(217.806 0 0)
(219.47 0 0)
(221.112 0 0)
(222.732 0 0)
(224.33 0 0)
(225.906 0 0)
(227.461 0 0)
(228.995 0 0)
(230.509 0 0)
(232.003 0 0)
(233.476 0 0)
(234.931 0 0)
(236.365 0 0)
(237.781 0 0)
(239.178 0 0)
(240.556 0 0)
(241.916 0 0)
(243.258 0 0)
(244.582 0 0)
(245.888 0 0)
(247.177 0 0)
(248.448 0 0)
(249.702 0 0)
(250.939 0 0)
(252.159 0 0)
(253.362 0 0)
(254.549 0 0)
(255.72 0 0)
(256.873 0 0)
(258.011 0 0)
(259.133 0 0)
(260.239 0 0)
(261.328 0 0)
(262.403 0 0)
(263.461 0 0)
(264.504 0 0)
(265.531 0 0)
(266.543 0 0)
(267.539 0 0)
(268.521 0 0)
(269.487 0 0)
(270.437 0 0)
(271.373 0 0)
(272.294 0 0)
(273.2 0 0)
(274.09 0 0)
(274.966 0 0)
(275.827 0 0)
(276.673 0 0)
(277.505 0 0)
(278.321 0 0)
(279.123 0 0)
(279.909 0 0)
(280.684 0 0)
(281.434 0 0)
(282.199 0 0)
(282.859 0 0)
(283.785 0 0)
(178.826 0 0)
(181.011 0 0)
(183.162 0 0)
(185.279 0 0)
(187.364 0 0)
(189.416 0 0)
(191.438 0 0)
(193.429 0 0)
(195.391 0 0)
(197.324 0 0)
(199.229 0 0)
(201.107 0 0)
(202.959 0 0)
(204.784 0 0)
(206.584 0 0)
(208.359 0 0)
(210.109 0 0)
(211.836 0 0)
(213.539 0 0)
(215.22 0 0)
(216.878 0 0)
(218.513 0 0)
(220.128 0 0)
(221.72 0 0)
(223.292 0 0)
(224.843 0 0)
(226.374 0 0)
(227.886 0 0)
(229.377 0 0)
(230.849 0 0)
(232.302 0 0)
(233.736 0 0)
(235.152 0 0)
(236.549 0 0)
(237.928 0 0)
(239.29 0 0)
(240.633 0 0)
(241.96 0 0)
(243.269 0 0)
(244.561 0 0)
(245.836 0 0)
(247.094 0 0)
(248.336 0 0)
(249.561 0 0)
(250.77 0 0)
(251.963 0 0)
(253.14 0 0)
(254.301 0 0)
(255.446 0 0)
(256.576 0 0)
(257.69 0 0)
(258.789 0 0)
(259.873 0 0)
(260.941 0 0)
(261.994 0 0)
(263.032 0 0)
(264.056 0 0)
(265.064 0 0)
(266.058 0 0)
(267.037 0 0)
(268.001 0 0)
(268.951 0 0)
(269.886 0 0)
(270.806 0 0)
(271.713 0 0)
(272.605 0 0)
(273.482 0 0)
(274.345 0 0)
(275.195 0 0)
(276.029 0 0)
(276.85 0 0)
(277.657 0 0)
(278.449 0 0)
(279.227 0 0)
(279.993 0 0)
(280.737 0 0)
(281.494 0 0)
(282.149 0 0)
(283.067 0 0)
(180.94 0 0)
(183.034 0 0)
(185.096 0 0)
(187.127 0 0)
(189.128 0 0)
(191.1 0 0)
(193.043 0 0)
(194.959 0 0)
(196.848 0 0)
(198.71 0 0)
(200.547 0 0)
(202.358 0 0)
(204.145 0 0)
(205.908 0 0)
(207.647 0 0)
(209.362 0 0)
(211.056 0 0)
(212.727 0 0)
(214.376 0 0)
(216.003 0 0)
(217.61 0 0)
(219.196 0 0)
(220.762 0 0)
(222.307 0 0)
(223.833 0 0)
(225.34 0 0)
(226.827 0 0)
(228.296 0 0)
(229.746 0 0)
(231.178 0 0)
(232.592 0 0)
(233.988 0 0)
(235.366 0 0)
(236.727 0 0)
(238.071 0 0)
(239.398 0 0)
(240.708 0 0)
(242.002 0 0)
(243.279 0 0)
(244.54 0 0)
(245.785 0 0)
(247.014 0 0)
(248.227 0 0)
(249.424 0 0)
(250.606 0 0)
(251.772 0 0)
(252.924 0 0)
(254.06 0 0)
(255.181 0 0)
(256.287 0 0)
(257.378 0 0)
(258.454 0 0)
(259.516 0 0)
(260.563 0 0)
(261.596 0 0)
(262.614 0 0)
(263.618 0 0)
(264.608 0 0)
(265.584 0 0)
(266.545 0 0)
(267.493 0 0)
(268.426 0 0)
(269.346 0 0)
(270.251 0 0)
(271.143 0 0)
(272.021 0 0)
(272.886 0 0)
(273.736 0 0)
(274.573 0 0)
(275.397 0 0)
(276.206 0 0)
(277.003 0 0)
(277.786 0 0)
(278.554 0 0)
(279.312 0 0)
(280.048 0 0)
(280.798 0 0)
(281.447 0 0)
(282.356 0 0)
(182.959 0 0)
(184.966 0 0)
(186.944 0 0)
(188.894 0 0)
(190.816 0 0)
(192.712 0 0)
(194.582 0 0)
(196.426 0 0)
(198.245 0 0)
(200.041 0 0)
(201.812 0 0)
(203.56 0 0)
(205.285 0 0)
(206.988 0 0)
(208.669 0 0)
(210.328 0 0)
(211.967 0 0)
(213.584 0 0)
(215.181 0 0)
(216.759 0 0)
(218.316 0 0)
(219.854 0 0)
(221.373 0 0)
(222.874 0 0)
(224.355 0 0)
(225.819 0 0)
(227.265 0 0)
(228.692 0 0)
(230.103 0 0)
(231.496 0 0)
(232.872 0 0)
(234.231 0 0)
(235.574 0 0)
(236.9 0 0)
(238.209 0 0)
(239.503 0 0)
(240.781 0 0)
(242.043 0 0)
(243.289 0 0)
(244.52 0 0)
(245.735 0 0)
(246.935 0 0)
(248.121 0 0)
(249.291 0 0)
(250.446 0 0)
(251.587 0 0)
(252.713 0 0)
(253.825 0 0)
(254.922 0 0)
(256.005 0 0)
(257.073 0 0)
(258.128 0 0)
(259.168 0 0)
(260.195 0 0)
(261.207 0 0)
(262.206 0 0)
(263.191 0 0)
(264.163 0 0)
(265.121 0 0)
(266.065 0 0)
(266.996 0 0)
(267.913 0 0)
(268.817 0 0)
(269.708 0 0)
(270.585 0 0)
(271.449 0 0)
(272.3 0 0)
(273.138 0 0)
(273.963 0 0)
(274.775 0 0)
(275.574 0 0)
(276.36 0 0)
(277.133 0 0)
(277.892 0 0)
(278.641 0 0)
(279.368 0 0)
(280.111 0 0)
(280.754 0 0)
(281.653 0 0)
(184.888 0 0)
(186.813 0 0)
(188.712 0 0)
(190.585 0 0)
(192.433 0 0)
(194.257 0 0)
(196.057 0 0)
(197.833 0 0)
(199.587 0 0)
(201.318 0 0)
(203.027 0 0)
(204.715 0 0)
(206.381 0 0)
(208.027 0 0)
(209.653 0 0)
(211.258 0 0)
(212.844 0 0)
(214.411 0 0)
(215.958 0 0)
(217.487 0 0)
(218.997 0 0)
(220.49 0 0)
(221.964 0 0)
(223.421 0 0)
(224.86 0 0)
(226.282 0 0)
(227.687 0 0)
(229.076 0 0)
(230.448 0 0)
(231.804 0 0)
(233.143 0 0)
(234.467 0 0)
(235.775 0 0)
(237.067 0 0)
(238.343 0 0)
(239.605 0 0)
(240.851 0 0)
(242.082 0 0)
(243.299 0 0)
(244.5 0 0)
(245.687 0 0)
(246.86 0 0)
(248.018 0 0)
(249.162 0 0)
(250.291 0 0)
(251.407 0 0)
(252.509 0 0)
(253.596 0 0)
(254.67 0 0)
(255.73 0 0)
(256.777 0 0)
(257.81 0 0)
(258.83 0 0)
(259.836 0 0)
(260.829 0 0)
(261.808 0 0)
(262.775 0 0)
(263.728 0 0)
(264.668 0 0)
(265.596 0 0)
(266.51 0 0)
(267.411 0 0)
(268.3 0 0)
(269.176 0 0)
(270.039 0 0)
(270.889 0 0)
(271.727 0 0)
(272.552 0 0)
(273.365 0 0)
(274.165 0 0)
(274.952 0 0)
(275.727 0 0)
(276.49 0 0)
(277.24 0 0)
(277.98 0 0)
(278.699 0 0)
(279.433 0 0)
(280.069 0 0)
(280.959 0 0)
(186.732 0 0)
(188.58 0 0)
(190.404 0 0)
(192.205 0 0)
(193.982 0 0)
(195.738 0 0)
(197.471 0 0)
(199.183 0 0)
(200.874 0 0)
(202.545 0 0)
(204.195 0 0)
(205.825 0 0)
(207.436 0 0)
(209.027 0 0)
(210.6 0 0)
(212.154 0 0)
(213.689 0 0)
(215.207 0 0)
(216.707 0 0)
(218.189 0 0)
(219.655 0 0)
(221.103 0 0)
(222.534 0 0)
(223.949 0 0)
(225.348 0 0)
(226.73 0 0)
(228.096 0 0)
(229.447 0 0)
(230.782 0 0)
(232.101 0 0)
(233.406 0 0)
(234.695 0 0)
(235.969 0 0)
(237.229 0 0)
(238.473 0 0)
(239.704 0 0)
(240.919 0 0)
(242.121 0 0)
(243.308 0 0)
(244.482 0 0)
(245.641 0 0)
(246.786 0 0)
(247.918 0 0)
(249.036 0 0)
(250.141 0 0)
(251.232 0 0)
(252.31 0 0)
(253.374 0 0)
(254.425 0 0)
(255.463 0 0)
(256.488 0 0)
(257.5 0 0)
(258.5 0 0)
(259.486 0 0)
(260.459 0 0)
(261.42 0 0)
(262.368 0 0)
(263.304 0 0)
(264.227 0 0)
(265.137 0 0)
(266.035 0 0)
(266.921 0 0)
(267.794 0 0)
(268.655 0 0)
(269.504 0 0)
(270.341 0 0)
(271.165 0 0)
(271.978 0 0)
(272.778 0 0)
(273.566 0 0)
(274.342 0 0)
(275.107 0 0)
(275.859 0 0)
(276.599 0 0)
(277.33 0 0)
(278.04 0 0)
(278.765 0 0)
(279.395 0 0)
(280.273 0 0)
(188.496 0 0)
(190.272 0 0)
(192.025 0 0)
(193.757 0 0)
(195.468 0 0)
(197.158 0 0)
(198.829 0 0)
(200.48 0 0)
(202.111 0 0)
(203.724 0 0)
(205.318 0 0)
(206.893 0 0)
(208.45 0 0)
(209.99 0 0)
(211.512 0 0)
(213.016 0 0)
(214.504 0 0)
(215.975 0 0)
(217.429 0 0)
(218.867 0 0)
(220.289 0 0)
(221.695 0 0)
(223.085 0 0)
(224.46 0 0)
(225.819 0 0)
(227.163 0 0)
(228.492 0 0)
(229.806 0 0)
(231.105 0 0)
(232.39 0 0)
(233.66 0 0)
(234.916 0 0)
(236.158 0 0)
(237.386 0 0)
(238.599 0 0)
(239.799 0 0)
(240.986 0 0)
(242.158 0 0)
(243.318 0 0)
(244.463 0 0)
(245.596 0 0)
(246.715 0 0)
(247.821 0 0)
(248.914 0 0)
(249.995 0 0)
(251.062 0 0)
(252.116 0 0)
(253.158 0 0)
(254.187 0 0)
(255.204 0 0)
(256.208 0 0)
(257.199 0 0)
(258.178 0 0)
(259.145 0 0)
(260.099 0 0)
(261.042 0 0)
(261.972 0 0)
(262.89 0 0)
(263.796 0 0)
(264.69 0 0)
(265.572 0 0)
(266.442 0 0)
(267.3 0 0)
(268.146 0 0)
(268.981 0 0)
(269.804 0 0)
(270.615 0 0)
(271.415 0 0)
(272.202 0 0)
(272.979 0 0)
(273.744 0 0)
(274.497 0 0)
(275.239 0 0)
(275.969 0 0)
(276.69 0 0)
(277.391 0 0)
(278.107 0 0)
(278.73 0 0)
(279.597 0 0)
(190.185 0 0)
(191.891 0 0)
(193.577 0 0)
(195.244 0 0)
(196.892 0 0)
(198.521 0 0)
(200.132 0 0)
(201.725 0 0)
(203.3 0 0)
(204.857 0 0)
(206.397 0 0)
(207.92 0 0)
(209.427 0 0)
(210.916 0 0)
(212.39 0 0)
(213.848 0 0)
(215.289 0 0)
(216.715 0 0)
(218.126 0 0)
(219.521 0 0)
(220.901 0 0)
(222.266 0 0)
(223.617 0 0)
(224.953 0 0)
(226.274 0 0)
(227.581 0 0)
(228.874 0 0)
(230.153 0 0)
(231.418 0 0)
(232.669 0 0)
(233.906 0 0)
(235.13 0 0)
(236.341 0 0)
(237.538 0 0)
(238.722 0 0)
(239.893 0 0)
(241.05 0 0)
(242.195 0 0)
(243.327 0 0)
(244.446 0 0)
(245.552 0 0)
(246.646 0 0)
(247.727 0 0)
(248.796 0 0)
(249.853 0 0)
(250.897 0 0)
(251.928 0 0)
(252.948 0 0)
(253.956 0 0)
(254.951 0 0)
(255.934 0 0)
(256.906 0 0)
(257.865 0 0)
(258.813 0 0)
(259.749 0 0)
(260.673 0 0)
(261.585 0 0)
(262.486 0 0)
(263.375 0 0)
(264.253 0 0)
(265.119 0 0)
(265.974 0 0)
(266.817 0 0)
(267.649 0 0)
(268.469 0 0)
(269.278 0 0)
(270.076 0 0)
(270.863 0 0)
(271.639 0 0)
(272.403 0 0)
(273.157 0 0)
(273.899 0 0)
(274.63 0 0)
(275.35 0 0)
(276.061 0 0)
(276.753 0 0)
(277.46 0 0)
(278.075 0 0)
(278.931 0 0)
(191.802 0 0)
(193.443 0 0)
(195.066 0 0)
(196.671 0 0)
(198.259 0 0)
(199.83 0 0)
(201.384 0 0)
(202.921 0 0)
(204.442 0 0)
(205.947 0 0)
(207.436 0 0)
(208.909 0 0)
(210.367 0 0)
(211.809 0 0)
(213.236 0 0)
(214.649 0 0)
(216.046 0 0)
(217.429 0 0)
(218.798 0 0)
(220.152 0 0)
(221.492 0 0)
(222.818 0 0)
(224.131 0 0)
(225.429 0 0)
(226.714 0 0)
(227.986 0 0)
(229.244 0 0)
(230.489 0 0)
(231.72 0 0)
(232.939 0 0)
(234.145 0 0)
(235.338 0 0)
(236.518 0 0)
(237.685 0 0)
(238.84 0 0)
(239.983 0 0)
(241.113 0 0)
(242.231 0 0)
(243.336 0 0)
(244.429 0 0)
(245.51 0 0)
(246.579 0 0)
(247.636 0 0)
(248.682 0 0)
(249.715 0 0)
(250.736 0 0)
(251.746 0 0)
(252.744 0 0)
(253.73 0 0)
(254.705 0 0)
(255.668 0 0)
(256.62 0 0)
(257.561 0 0)
(258.489 0 0)
(259.407 0 0)
(260.313 0 0)
(261.208 0 0)
(262.092 0 0)
(262.965 0 0)
(263.827 0 0)
(264.677 0 0)
(265.516 0 0)
(266.345 0 0)
(267.162 0 0)
(267.969 0 0)
(268.765 0 0)
(269.549 0 0)
(270.323 0 0)
(271.087 0 0)
(271.839 0 0)
(272.581 0 0)
(273.312 0 0)
(274.033 0 0)
(274.742 0 0)
(275.443 0 0)
(276.126 0 0)
(276.824 0 0)
(277.432 0 0)
(278.275 0 0)
(193.351 0 0)
(194.93 0 0)
(196.493 0 0)
(198.04 0 0)
(199.571 0 0)
(201.086 0 0)
(202.586 0 0)
(204.071 0 0)
(205.54 0 0)
(206.995 0 0)
(208.435 0 0)
(209.86 0 0)
(211.272 0 0)
(212.669 0 0)
(214.052 0 0)
(215.421 0 0)
(216.776 0 0)
(218.118 0 0)
(219.446 0 0)
(220.761 0 0)
(222.063 0 0)
(223.351 0 0)
(224.627 0 0)
(225.89 0 0)
(227.14 0 0)
(228.377 0 0)
(229.602 0 0)
(230.814 0 0)
(232.013 0 0)
(233.201 0 0)
(234.376 0 0)
(235.539 0 0)
(236.69 0 0)
(237.829 0 0)
(238.955 0 0)
(240.07 0 0)
(241.174 0 0)
(242.265 0 0)
(243.345 0 0)
(244.413 0 0)
(245.469 0 0)
(246.514 0 0)
(247.548 0 0)
(248.57 0 0)
(249.581 0 0)
(250.58 0 0)
(251.569 0 0)
(252.546 0 0)
(253.511 0 0)
(254.466 0 0)
(255.41 0 0)
(256.342 0 0)
(257.264 0 0)
(258.175 0 0)
(259.074 0 0)
(259.963 0 0)
(260.841 0 0)
(261.708 0 0)
(262.565 0 0)
(263.411 0 0)
(264.246 0 0)
(265.07 0 0)
(265.884 0 0)
(266.687 0 0)
(267.48 0 0)
(268.262 0 0)
(269.034 0 0)
(269.795 0 0)
(270.546 0 0)
(271.287 0 0)
(272.017 0 0)
(272.737 0 0)
(273.447 0 0)
(274.146 0 0)
(274.837 0 0)
(275.51 0 0)
(276.198 0 0)
(276.798 0 0)
(277.629 0 0)
(194.836 0 0)
(196.357 0 0)
(197.863 0 0)
(199.354 0 0)
(200.831 0 0)
(202.293 0 0)
(203.742 0 0)
(205.176 0 0)
(206.597 0 0)
(208.004 0 0)
(209.397 0 0)
(210.777 0 0)
(212.143 0 0)
(213.497 0 0)
(214.838 0 0)
(216.165 0 0)
(217.48 0 0)
(218.782 0 0)
(220.072 0 0)
(221.349 0 0)
(222.614 0 0)
(223.866 0 0)
(225.107 0 0)
(226.335 0 0)
(227.551 0 0)
(228.755 0 0)
(229.948 0 0)
(231.128 0 0)
(232.297 0 0)
(233.454 0 0)
(234.6 0 0)
(235.734 0 0)
(236.856 0 0)
(237.967 0 0)
(239.067 0 0)
(240.156 0 0)
(241.233 0 0)
(242.299 0 0)
(243.354 0 0)
(244.397 0 0)
(245.43 0 0)
(246.452 0 0)
(247.462 0 0)
(248.462 0 0)
(249.451 0 0)
(250.429 0 0)
(251.396 0 0)
(252.353 0 0)
(253.299 0 0)
(254.234 0 0)
(255.158 0 0)
(256.072 0 0)
(256.975 0 0)
(257.868 0 0)
(258.75 0 0)
(259.622 0 0)
(260.483 0 0)
(261.334 0 0)
(262.175 0 0)
(263.005 0 0)
(263.825 0 0)
(264.634 0 0)
(265.434 0 0)
(266.223 0 0)
(267.002 0 0)
(267.771 0 0)
(268.53 0 0)
(269.278 0 0)
(270.017 0 0)
(270.746 0 0)
(271.465 0 0)
(272.173 0 0)
(272.872 0 0)
(273.561 0 0)
(274.242 0 0)
(274.905 0 0)
(275.584 0 0)
(276.176 0 0)
(276.994 0 0)
(196.261 0 0)
(197.726 0 0)
(199.178 0 0)
(200.616 0 0)
(202.041 0 0)
(203.454 0 0)
(204.853 0 0)
(206.239 0 0)
(207.613 0 0)
(208.974 0 0)
(210.323 0 0)
(211.659 0 0)
(212.983 0 0)
(214.295 0 0)
(215.595 0 0)
(216.883 0 0)
(218.159 0 0)
(219.423 0 0)
(220.676 0 0)
(221.917 0 0)
(223.146 0 0)
(224.364 0 0)
(225.57 0 0)
(226.765 0 0)
(227.949 0 0)
(229.121 0 0)
(230.283 0 0)
(231.433 0 0)
(232.572 0 0)
(233.7 0 0)
(234.816 0 0)
(235.922 0 0)
(237.018 0 0)
(238.102 0 0)
(239.175 0 0)
(240.238 0 0)
(241.29 0 0)
(242.331 0 0)
(243.362 0 0)
(244.382 0 0)
(245.392 0 0)
(246.391 0 0)
(247.379 0 0)
(248.357 0 0)
(249.325 0 0)
(250.282 0 0)
(251.229 0 0)
(252.165 0 0)
(253.092 0 0)
(254.008 0 0)
(254.913 0 0)
(255.809 0 0)
(256.694 0 0)
(257.569 0 0)
(258.434 0 0)
(259.289 0 0)
(260.134 0 0)
(260.969 0 0)
(261.794 0 0)
(262.609 0 0)
(263.414 0 0)
(264.209 0 0)
(264.994 0 0)
(265.77 0 0)
(266.535 0 0)
(267.291 0 0)
(268.037 0 0)
(268.773 0 0)
(269.5 0 0)
(270.216 0 0)
(270.924 0 0)
(271.621 0 0)
(272.31 0 0)
(272.988 0 0)
(273.658 0 0)
(274.312 0 0)
(274.98 0 0)
(275.565 0 0)
(276.37 0 0)
(197.627 0 0)
(199.04 0 0)
(200.44 0 0)
(201.828 0 0)
(203.205 0 0)
(204.569 0 0)
(205.921 0 0)
(207.262 0 0)
(208.591 0 0)
(209.909 0 0)
(211.215 0 0)
(212.509 0 0)
(213.793 0 0)
(215.065 0 0)
(216.326 0 0)
(217.576 0 0)
(218.815 0 0)
(220.042 0 0)
(221.259 0 0)
(222.465 0 0)
(223.66 0 0)
(224.845 0 0)
(226.018 0 0)
(227.181 0 0)
(228.334 0 0)
(229.475 0 0)
(230.606 0 0)
(231.727 0 0)
(232.837 0 0)
(233.937 0 0)
(235.026 0 0)
(236.105 0 0)
(237.174 0 0)
(238.232 0 0)
(239.28 0 0)
(240.318 0 0)
(241.346 0 0)
(242.363 0 0)
(243.371 0 0)
(244.368 0 0)
(245.355 0 0)
(246.332 0 0)
(247.299 0 0)
(248.256 0 0)
(249.202 0 0)
(250.139 0 0)
(251.066 0 0)
(251.983 0 0)
(252.891 0 0)
(253.788 0 0)
(254.675 0 0)
(255.553 0 0)
(256.421 0 0)
(257.279 0 0)
(258.127 0 0)
(258.966 0 0)
(259.794 0 0)
(260.614 0 0)
(261.423 0 0)
(262.223 0 0)
(263.013 0 0)
(263.794 0 0)
(264.565 0 0)
(265.327 0 0)
(266.079 0 0)
(266.822 0 0)
(267.555 0 0)
(268.279 0 0)
(268.993 0 0)
(269.698 0 0)
(270.394 0 0)
(271.081 0 0)
(271.758 0 0)
(272.426 0 0)
(273.086 0 0)
(273.73 0 0)
(274.388 0 0)
(274.965 0 0)
(275.757 0 0)
(198.939 0 0)
(200.302 0 0)
(201.653 0 0)
(202.993 0 0)
(204.323 0 0)
(205.641 0 0)
(206.949 0 0)
(208.246 0 0)
(209.533 0 0)
(210.809 0 0)
(212.074 0 0)
(213.329 0 0)
(214.573 0 0)
(215.807 0 0)
(217.031 0 0)
(218.244 0 0)
(219.447 0 0)
(220.64 0 0)
(221.822 0 0)
(222.995 0 0)
(224.157 0 0)
(225.309 0 0)
(226.451 0 0)
(227.583 0 0)
(228.706 0 0)
(229.818 0 0)
(230.92 0 0)
(232.012 0 0)
(233.095 0 0)
(234.167 0 0)
(235.23 0 0)
(236.283 0 0)
(237.326 0 0)
(238.359 0 0)
(239.382 0 0)
(240.396 0 0)
(241.4 0 0)
(242.394 0 0)
(243.379 0 0)
(244.354 0 0)
(245.319 0 0)
(246.275 0 0)
(247.22 0 0)
(248.157 0 0)
(249.084 0 0)
(250.001 0 0)
(250.908 0 0)
(251.807 0 0)
(252.695 0 0)
(253.574 0 0)
(254.444 0 0)
(255.304 0 0)
(256.155 0 0)
(256.996 0 0)
(257.828 0 0)
(258.65 0 0)
(259.463 0 0)
(260.267 0 0)
(261.062 0 0)
(261.847 0 0)
(262.623 0 0)
(263.389 0 0)
(264.147 0 0)
(264.895 0 0)
(265.634 0 0)
(266.364 0 0)
(267.084 0 0)
(267.796 0 0)
(268.498 0 0)
(269.192 0 0)
(269.876 0 0)
(270.552 0 0)
(271.218 0 0)
(271.875 0 0)
(272.526 0 0)
(273.16 0 0)
(273.808 0 0)
(274.377 0 0)
(275.155 0 0)
(200.199 0 0)
(201.514 0 0)
(202.819 0 0)
(204.113 0 0)
(205.398 0 0)
(206.673 0 0)
(207.938 0 0)
(209.194 0 0)
(210.439 0 0)
(211.675 0 0)
(212.902 0 0)
(214.118 0 0)
(215.325 0 0)
(216.522 0 0)
(217.71 0 0)
(218.888 0 0)
(220.057 0 0)
(221.216 0 0)
(222.366 0 0)
(223.506 0 0)
(224.637 0 0)
(225.758 0 0)
(226.87 0 0)
(227.972 0 0)
(229.065 0 0)
(230.149 0 0)
(231.223 0 0)
(232.288 0 0)
(233.344 0 0)
(234.39 0 0)
(235.427 0 0)
(236.454 0 0)
(237.473 0 0)
(238.482 0 0)
(239.481 0 0)
(240.472 0 0)
(241.453 0 0)
(242.424 0 0)
(243.387 0 0)
(244.34 0 0)
(245.284 0 0)
(246.219 0 0)
(247.145 0 0)
(248.061 0 0)
(248.968 0 0)
(249.866 0 0)
(250.755 0 0)
(251.635 0 0)
(252.505 0 0)
(253.367 0 0)
(254.219 0 0)
(255.062 0 0)
(255.896 0 0)
(256.721 0 0)
(257.537 0 0)
(258.343 0 0)
(259.141 0 0)
(259.93 0 0)
(260.709 0 0)
(261.48 0 0)
(262.242 0 0)
(262.994 0 0)
(263.738 0 0)
(264.473 0 0)
(265.199 0 0)
(265.916 0 0)
(266.624 0 0)
(267.324 0 0)
(268.015 0 0)
(268.696 0 0)
(269.37 0 0)
(270.034 0 0)
(270.69 0 0)
(271.336 0 0)
(271.976 0 0)
(272.601 0 0)
(273.239 0 0)
(273.8 0 0)
(274.565 0 0)
(201.409 0 0)
(202.679 0 0)
(203.939 0 0)
(205.19 0 0)
(206.433 0 0)
(207.666 0 0)
(208.891 0 0)
(210.106 0 0)
(211.313 0 0)
(212.51 0 0)
(213.699 0 0)
(214.879 0 0)
(216.05 0 0)
(217.213 0 0)
(218.366 0 0)
(219.511 0 0)
(220.646 0 0)
(221.773 0 0)
(222.891 0 0)
(224 0 0)
(225.101 0 0)
(226.192 0 0)
(227.275 0 0)
(228.349 0 0)
(229.414 0 0)
(230.47 0 0)
(231.517 0 0)
(232.555 0 0)
(233.585 0 0)
(234.606 0 0)
(235.618 0 0)
(236.621 0 0)
(237.615 0 0)
(238.601 0 0)
(239.577 0 0)
(240.545 0 0)
(241.504 0 0)
(242.454 0 0)
(243.395 0 0)
(244.327 0 0)
(245.251 0 0)
(246.165 0 0)
(247.071 0 0)
(247.968 0 0)
(248.856 0 0)
(249.736 0 0)
(250.606 0 0)
(251.468 0 0)
(252.321 0 0)
(253.165 0 0)
(254 0 0)
(254.826 0 0)
(255.644 0 0)
(256.453 0 0)
(257.253 0 0)
(258.044 0 0)
(258.827 0 0)
(259.601 0 0)
(260.366 0 0)
(261.122 0 0)
(261.87 0 0)
(262.609 0 0)
(263.34 0 0)
(264.062 0 0)
(264.775 0 0)
(265.479 0 0)
(266.175 0 0)
(266.863 0 0)
(267.542 0 0)
(268.212 0 0)
(268.874 0 0)
(269.527 0 0)
(270.173 0 0)
(270.809 0 0)
(271.439 0 0)
(272.053 0 0)
(272.681 0 0)
(273.234 0 0)
(273.986 0 0)
(202.572 0 0)
(203.799 0 0)
(205.017 0 0)
(206.226 0 0)
(207.428 0 0)
(208.622 0 0)
(209.807 0 0)
(210.985 0 0)
(212.154 0 0)
(213.315 0 0)
(214.468 0 0)
(215.613 0 0)
(216.75 0 0)
(217.879 0 0)
(218.999 0 0)
(220.111 0 0)
(221.215 0 0)
(222.311 0 0)
(223.398 0 0)
(224.478 0 0)
(225.549 0 0)
(226.612 0 0)
(227.666 0 0)
(228.712 0 0)
(229.75 0 0)
(230.78 0 0)
(231.801 0 0)
(232.814 0 0)
(233.819 0 0)
(234.815 0 0)
(235.803 0 0)
(236.782 0 0)
(237.753 0 0)
(238.716 0 0)
(239.67 0 0)
(240.616 0 0)
(241.553 0 0)
(242.482 0 0)
(243.403 0 0)
(244.315 0 0)
(245.218 0 0)
(246.113 0 0)
(247 0 0)
(247.878 0 0)
(248.748 0 0)
(249.609 0 0)
(250.461 0 0)
(251.305 0 0)
(252.141 0 0)
(252.968 0 0)
(253.787 0 0)
(254.597 0 0)
(255.399 0 0)
(256.192 0 0)
(256.977 0 0)
(257.753 0 0)
(258.521 0 0)
(259.281 0 0)
(260.032 0 0)
(260.774 0 0)
(261.508 0 0)
(262.234 0 0)
(262.951 0 0)
(263.66 0 0)
(264.361 0 0)
(265.053 0 0)
(265.737 0 0)
(266.413 0 0)
(267.08 0 0)
(267.739 0 0)
(268.39 0 0)
(269.032 0 0)
(269.667 0 0)
(270.293 0 0)
(270.912 0 0)
(271.517 0 0)
(272.135 0 0)
(272.679 0 0)
(273.418 0 0)
(203.69 0 0)
(204.875 0 0)
(206.053 0 0)
(207.223 0 0)
(208.386 0 0)
(209.542 0 0)
(210.69 0 0)
(211.831 0 0)
(212.965 0 0)
(214.091 0 0)
(215.21 0 0)
(216.321 0 0)
(217.425 0 0)
(218.521 0 0)
(219.61 0 0)
(220.691 0 0)
(221.764 0 0)
(222.83 0 0)
(223.889 0 0)
(224.939 0 0)
(225.982 0 0)
(227.017 0 0)
(228.045 0 0)
(229.064 0 0)
(230.076 0 0)
(231.08 0 0)
(232.076 0 0)
(233.065 0 0)
(234.045 0 0)
(235.017 0 0)
(235.982 0 0)
(236.939 0 0)
(237.887 0 0)
(238.828 0 0)
(239.76 0 0)
(240.685 0 0)
(241.601 0 0)
(242.51 0 0)
(243.41 0 0)
(244.303 0 0)
(245.187 0 0)
(246.063 0 0)
(246.931 0 0)
(247.79 0 0)
(248.642 0 0)
(249.486 0 0)
(250.321 0 0)
(251.148 0 0)
(251.967 0 0)
(252.778 0 0)
(253.58 0 0)
(254.375 0 0)
(255.161 0 0)
(255.939 0 0)
(256.708 0 0)
(257.47 0 0)
(258.224 0 0)
(258.969 0 0)
(259.706 0 0)
(260.435 0 0)
(261.155 0 0)
(261.868 0 0)
(262.572 0 0)
(263.269 0 0)
(263.957 0 0)
(264.637 0 0)
(265.309 0 0)
(265.973 0 0)
(266.629 0 0)
(267.277 0 0)
(267.916 0 0)
(268.548 0 0)
(269.172 0 0)
(269.788 0 0)
(270.397 0 0)
(270.992 0 0)
(271.6 0 0)
(272.136 0 0)
(272.861 0 0)
(204.766 0 0)
(205.911 0 0)
(207.05 0 0)
(208.183 0 0)
(209.309 0 0)
(210.428 0 0)
(211.541 0 0)
(212.647 0 0)
(213.746 0 0)
(214.839 0 0)
(215.925 0 0)
(217.004 0 0)
(218.076 0 0)
(219.141 0 0)
(220.199 0 0)
(221.251 0 0)
(222.295 0 0)
(223.332 0 0)
(224.362 0 0)
(225.385 0 0)
(226.401 0 0)
(227.409 0 0)
(228.411 0 0)
(229.405 0 0)
(230.391 0 0)
(231.371 0 0)
(232.343 0 0)
(233.307 0 0)
(234.264 0 0)
(235.214 0 0)
(236.156 0 0)
(237.09 0 0)
(238.017 0 0)
(238.936 0 0)
(239.848 0 0)
(240.752 0 0)
(241.648 0 0)
(242.537 0 0)
(243.418 0 0)
(244.291 0 0)
(245.156 0 0)
(246.014 0 0)
(246.864 0 0)
(247.706 0 0)
(248.54 0 0)
(249.366 0 0)
(250.184 0 0)
(250.995 0 0)
(251.797 0 0)
(252.592 0 0)
(253.379 0 0)
(254.158 0 0)
(254.929 0 0)
(255.692 0 0)
(256.447 0 0)
(257.194 0 0)
(257.934 0 0)
(258.665 0 0)
(259.389 0 0)
(260.104 0 0)
(260.812 0 0)
(261.511 0 0)
(262.203 0 0)
(262.887 0 0)
(263.563 0 0)
(264.231 0 0)
(264.891 0 0)
(265.544 0 0)
(266.188 0 0)
(266.825 0 0)
(267.454 0 0)
(268.075 0 0)
(268.689 0 0)
(269.294 0 0)
(269.893 0 0)
(270.479 0 0)
(271.076 0 0)
(271.605 0 0)
(272.316 0 0)
(205.8 0 0)
(206.908 0 0)
(208.01 0 0)
(209.107 0 0)
(210.197 0 0)
(211.282 0 0)
(212.36 0 0)
(213.433 0 0)
(214.5 0 0)
(215.56 0 0)
(216.614 0 0)
(217.662 0 0)
(218.704 0 0)
(219.74 0 0)
(220.769 0 0)
(221.791 0 0)
(222.807 0 0)
(223.817 0 0)
(224.82 0 0)
(225.816 0 0)
(226.806 0 0)
(227.789 0 0)
(228.765 0 0)
(229.734 0 0)
(230.696 0 0)
(231.652 0 0)
(232.6 0 0)
(233.542 0 0)
(234.476 0 0)
(235.404 0 0)
(236.324 0 0)
(237.237 0 0)
(238.143 0 0)
(239.042 0 0)
(239.933 0 0)
(240.817 0 0)
(241.694 0 0)
(242.563 0 0)
(243.425 0 0)
(244.28 0 0)
(245.127 0 0)
(245.966 0 0)
(246.799 0 0)