/*--------------------------------*- C++ -*----------------------------------*\
| =========                 |                                                 |
| \\      /  F ield         | OpenFOAM: The Open Source CFD Toolbox           |
|  \\    /   O peration     | Version:  2312                                  |
|   \\  /    A nd           | Website:  www.openfoam.com                      |
|    \\/     M anipulation  |                                                 |
\*---------------------------------------------------------------------------*/
FoamFile
{
    version     2.0;
    format      ascii;
    arch        "LSB;label=32;scalar=64";
    class       volVectorField;
    location    "0.777";
    object      U;
}
// * * * * * * * * * * * * * * * * * * * * * * * * * * * * * * * * * * * * * //

dimensions      [0 1 -1 0 0 0 0];

internalField   nonuniform List<vector> 
31205
(
(100.544 0 0)
(101.325 0 0)
(102.381 0 0)
(103.676 0 0)
(105.173 0 0)
(106.837 0 0)
(108.639 0 0)
(110.55 0 0)
(112.547 0 0)
(114.611 0 0)
(116.725 0 0)
(118.875 0 0)
(121.052 0 0)
(123.246 0 0)
(125.45 0 0)
(127.658 0 0)
(129.865 0 0)
(132.068 0 0)
(134.263 0 0)
(136.448 0 0)
(138.622 0 0)
(140.782 0 0)
(142.927 0 0)
(145.056 0 0)
(147.169 0 0)
(149.265 0 0)
(151.343 0 0)
(153.404 0 0)
(155.446 0 0)
(157.471 0 0)
(159.477 0 0)
(161.465 0 0)
(163.435 0 0)
(165.387 0 0)
(167.32 0 0)
(169.236 0 0)
(171.134 0 0)
(173.014 0 0)
(174.877 0 0)
(176.723 0 0)
(178.551 0 0)
(180.363 0 0)
(182.157 0 0)
(183.936 0 0)
(185.697 0 0)
(187.443 0 0)
(189.172 0 0)
(190.886 0 0)
(192.583 0 0)
(194.266 0 0)
(195.933 0 0)
(197.584 0 0)
(199.221 0 0)
(200.843 0 0)
(202.45 0 0)
(204.042 0 0)
(205.62 0 0)
(207.184 0 0)
(208.733 0 0)
(210.269 0 0)
(211.791 0 0)
(213.298 0 0)
(214.793 0 0)
(216.273 0 0)
(217.74 0 0)
(219.194 0 0)
(220.635 0 0)
(222.063 0 0)
(223.478 0 0)
(224.879 0 0)
(226.268 0 0)
(227.644 0 0)
(229.008 0 0)
(230.358 0 0)
(231.701 0 0)
(233.012 0 0)
(234.373 0 0)
(235.531 0 0)
(237.26 0 0)
(101.232 0 0)
(102.232 0 0)
(103.463 0 0)
(104.891 0 0)
(106.485 0 0)
(108.214 0 0)
(110.053 0 0)
(111.979 0 0)
(113.973 0 0)
(116.019 0 0)
(118.104 0 0)
(120.218 0 0)
(122.35 0 0)
(124.495 0 0)
(126.646 0 0)
(128.798 0 0)
(130.948 0 0)
(133.092 0 0)
(135.228 0 0)
(137.354 0 0)
(139.468 0 0)
(141.568 0 0)
(143.654 0 0)
(145.725 0 0)
(147.78 0 0)
(149.819 0 0)
(151.841 0 0)
(153.846 0 0)
(155.834 0 0)
(157.805 0 0)
(159.758 0 0)
(161.694 0 0)
(163.613 0 0)
(165.515 0 0)
(167.399 0 0)
(169.267 0 0)
(171.117 0 0)
(172.951 0 0)
(174.768 0 0)
(176.569 0 0)
(178.353 0 0)
(180.122 0 0)
(181.874 0 0)
(183.61 0 0)
(185.331 0 0)
(187.036 0 0)
(188.726 0 0)
(190.4 0 0)
(192.06 0 0)
(193.705 0 0)
(195.334 0 0)
(196.95 0 0)
(198.551 0 0)
(200.137 0 0)
(201.71 0 0)
(203.268 0 0)
(204.813 0 0)
(206.344 0 0)
(207.861 0 0)
(209.365 0 0)
(210.855 0 0)
(212.333 0 0)
(213.797 0 0)
(215.248 0 0)
(216.686 0 0)
(218.111 0 0)
(219.524 0 0)
(220.924 0 0)
(222.311 0 0)
(223.686 0 0)
(225.049 0 0)
(226.399 0 0)
(227.738 0 0)
(229.062 0 0)
(230.381 0 0)
(231.669 0 0)
(233.004 0 0)
(234.145 0 0)
(235.832 0 0)
(102.182 0 0)
(103.364 0 0)
(104.736 0 0)
(106.268 0 0)
(107.932 0 0)
(109.704 0 0)
(111.562 0 0)
(113.489 0 0)
(115.469 0 0)
(117.489 0 0)
(119.54 0 0)
(121.611 0 0)
(123.696 0 0)
(125.789 0 0)
(127.885 0 0)
(129.981 0 0)
(132.072 0 0)
(134.157 0 0)
(136.234 0 0)
(138.299 0 0)
(140.354 0 0)
(142.395 0 0)
(144.422 0 0)
(146.435 0 0)
(148.433 0 0)
(150.415 0 0)
(152.381 0 0)
(154.331 0 0)
(156.265 0 0)
(158.183 0 0)
(160.084 0 0)
(161.969 0 0)
(163.838 0 0)
(165.69 0 0)
(167.526 0 0)
(169.346 0 0)
(171.149 0 0)
(172.937 0 0)
(174.709 0 0)
(176.466 0 0)
(178.206 0 0)
(179.932 0 0)
(181.642 0 0)
(183.337 0 0)
(185.017 0 0)
(186.683 0 0)
(188.333 0 0)
(189.969 0 0)
(191.591 0 0)
(193.199 0 0)
(194.792 0 0)
(196.371 0 0)
(197.937 0 0)
(199.489 0 0)
(201.027 0 0)
(202.552 0 0)
(204.064 0 0)
(205.562 0 0)
(207.048 0 0)
(208.52 0 0)
(209.98 0 0)
(211.427 0 0)
(212.861 0 0)
(214.282 0 0)
(215.692 0 0)
(217.088 0 0)
(218.473 0 0)
(219.845 0 0)
(221.206 0 0)
(222.554 0 0)
(223.891 0 0)
(225.215 0 0)
(226.529 0 0)
(227.829 0 0)
(229.123 0 0)
(230.387 0 0)
(231.697 0 0)
(232.821 0 0)
(234.468 0 0)
(103.333 0 0)
(104.658 0 0)
(106.136 0 0)
(107.742 0 0)
(109.453 0 0)
(111.249 0 0)
(113.112 0 0)
(115.029 0 0)
(116.987 0 0)
(118.976 0 0)
(120.987 0 0)
(123.014 0 0)
(125.05 0 0)
(127.09 0 0)
(129.132 0 0)
(131.171 0 0)
(133.205 0 0)
(135.232 0 0)
(137.25 0 0)
(139.258 0 0)
(141.253 0 0)
(143.237 0 0)
(145.207 0 0)
(147.163 0 0)
(149.105 0 0)
(151.032 0 0)
(152.944 0 0)
(154.841 0 0)
(156.722 0 0)
(158.588 0 0)
(160.439 0 0)
(162.274 0 0)
(164.093 0 0)
(165.897 0 0)
(167.685 0 0)
(169.459 0 0)
(171.217 0 0)
(172.959 0 0)
(174.687 0 0)
(176.4 0 0)
(178.098 0 0)
(179.782 0 0)
(181.451 0 0)
(183.106 0 0)
(184.746 0 0)
(186.372 0 0)
(187.985 0 0)
(189.583 0 0)
(191.168 0 0)
(192.739 0 0)
(194.296 0 0)
(195.84 0 0)
(197.371 0 0)
(198.889 0 0)
(200.394 0 0)
(201.886 0 0)
(203.365 0 0)
(204.831 0 0)
(206.285 0 0)
(207.726 0 0)
(209.155 0 0)
(210.572 0 0)
(211.977 0 0)
(213.369 0 0)
(214.75 0 0)
(216.118 0 0)
(217.475 0 0)
(218.821 0 0)
(220.154 0 0)
(221.476 0 0)
(222.787 0 0)
(224.086 0 0)
(225.374 0 0)
(226.649 0 0)
(227.919 0 0)
(229.16 0 0)
(230.444 0 0)
(231.549 0 0)
(233.16 0 0)
(104.629 0 0)
(106.061 0 0)
(107.615 0 0)
(109.27 0 0)
(111.007 0 0)
(112.812 0 0)
(114.669 0 0)
(116.567 0 0)
(118.497 0 0)
(120.449 0 0)
(122.419 0 0)
(124.399 0 0)
(126.385 0 0)
(128.373 0 0)
(130.361 0 0)
(132.344 0 0)
(134.322 0 0)
(136.293 0 0)
(138.254 0 0)
(140.205 0 0)
(142.144 0 0)
(144.072 0 0)
(145.986 0 0)
(147.888 0 0)
(149.775 0 0)
(151.649 0 0)
(153.508 0 0)
(155.353 0 0)
(157.184 0 0)
(159 0 0)
(160.801 0 0)
(162.587 0 0)
(164.359 0 0)
(166.116 0 0)
(167.858 0 0)
(169.586 0 0)
(171.3 0 0)
(172.999 0 0)
(174.684 0 0)
(176.354 0 0)
(178.011 0 0)
(179.654 0 0)
(181.283 0 0)
(182.898 0 0)
(184.499 0 0)
(186.088 0 0)
(187.662 0 0)
(189.224 0 0)
(190.772 0 0)
(192.307 0 0)
(193.83 0 0)
(195.339 0 0)
(196.836 0 0)
(198.32 0 0)
(199.792 0 0)
(201.252 0 0)
(202.699 0 0)
(204.134 0 0)
(205.557 0 0)
(206.967 0 0)
(208.366 0 0)
(209.754 0 0)
(211.129 0 0)
(212.493 0 0)
(213.845 0 0)
(215.186 0 0)
(216.515 0 0)
(217.834 0 0)
(219.141 0 0)
(220.436 0 0)
(221.721 0 0)
(222.995 0 0)
(224.258 0 0)
(225.509 0 0)
(226.754 0 0)
(227.971 0 0)
(229.231 0 0)
(230.317 0 0)
(231.894 0 0)
(106.029 0 0)
(107.536 0 0)
(109.139 0 0)
(110.822 0 0)
(112.571 0 0)
(114.371 0 0)
(116.212 0 0)
(118.084 0 0)
(119.981 0 0)
(121.895 0 0)
(123.82 0 0)
(125.753 0 0)
(127.689 0 0)
(129.625 0 0)
(131.559 0 0)
(133.489 0 0)
(135.412 0 0)
(137.327 0 0)
(139.233 0 0)
(141.129 0 0)
(143.014 0 0)
(144.887 0 0)
(146.748 0 0)
(148.597 0 0)
(150.432 0 0)
(152.254 0 0)
(154.063 0 0)
(155.858 0 0)
(157.639 0 0)
(159.406 0 0)
(161.16 0 0)
(162.899 0 0)
(164.625 0 0)
(166.336 0 0)
(168.034 0 0)
(169.718 0 0)
(171.388 0 0)
(173.045 0 0)
(174.688 0 0)
(176.318 0 0)
(177.934 0 0)
(179.537 0 0)
(181.127 0 0)
(182.704 0 0)
(184.268 0 0)
(185.818 0 0)
(187.357 0 0)
(188.882 0 0)
(190.395 0 0)
(191.895 0 0)
(193.383 0 0)
(194.859 0 0)
(196.323 0 0)
(197.774 0 0)
(199.214 0 0)
(200.641 0 0)
(202.057 0 0)
(203.461 0 0)
(204.853 0 0)
(206.234 0 0)
(207.604 0 0)
(208.962 0 0)
(210.309 0 0)
(211.644 0 0)
(212.969 0 0)
(214.282 0 0)
(215.585 0 0)
(216.876 0 0)
(218.157 0 0)
(219.427 0 0)
(220.686 0 0)
(221.934 0 0)
(223.173 0 0)
(224.399 0 0)
(225.62 0 0)
(226.814 0 0)
(228.05 0 0)
(229.116 0 0)
(230.66 0 0)
(107.499 0 0)
(109.054 0 0)
(110.686 0 0)
(112.382 0 0)
(114.127 0 0)
(115.913 0 0)
(117.731 0 0)
(119.573 0 0)
(121.433 0 0)
(123.305 0 0)
(125.185 0 0)
(127.07 0 0)
(128.956 0 0)
(130.841 0 0)
(132.723 0 0)
(134.6 0 0)
(136.469 0 0)
(138.331 0 0)
(140.184 0 0)
(142.027 0 0)
(143.859 0 0)
(145.68 0 0)
(147.489 0 0)
(149.286 0 0)
(151.071 0 0)
(152.843 0 0)
(154.603 0 0)
(156.35 0 0)
(158.083 0 0)
(159.803 0 0)
(161.511 0 0)
(163.205 0 0)
(164.885 0 0)
(166.553 0 0)
(168.208 0 0)
(169.849 0 0)
(171.478 0 0)
(173.093 0 0)
(174.696 0 0)
(176.286 0 0)
(177.863 0 0)
(179.427 0 0)
(180.979 0 0)
(182.518 0 0)
(184.045 0 0)
(185.56 0 0)
(187.063 0 0)
(188.553 0 0)
(190.031 0 0)
(191.498 0 0)
(192.952 0 0)
(194.395 0 0)
(195.826 0 0)
(197.245 0 0)
(198.653 0 0)
(200.05 0 0)
(201.435 0 0)
(202.809 0 0)
(204.171 0 0)
(205.523 0 0)
(206.863 0 0)
(208.193 0 0)
(209.511 0 0)
(210.819 0 0)
(212.116 0 0)
(213.403 0 0)
(214.679 0 0)
(215.944 0 0)
(217.199 0 0)
(218.443 0 0)
(219.677 0 0)
(220.901 0 0)
(222.115 0 0)
(223.317 0 0)
(224.514 0 0)
(225.685 0 0)
(226.896 0 0)
(227.942 0 0)
(229.455 0 0)
(109.011 0 0)
(110.595 0 0)
(112.24 0 0)
(113.934 0 0)
(115.667 0 0)
(117.432 0 0)
(119.221 0 0)
(121.028 0 0)
(122.848 0 0)
(124.677 0 0)
(126.512 0 0)
(128.349 0 0)
(130.186 0 0)
(132.02 0 0)
(133.851 0 0)
(135.675 0 0)
(137.493 0 0)
(139.303 0 0)
(141.104 0 0)
(142.895 0 0)
(144.677 0 0)
(146.447 0 0)
(148.206 0 0)
(149.954 0 0)
(151.69 0 0)
(153.415 0 0)
(155.127 0 0)
(156.826 0 0)
(158.514 0 0)
(160.189 0 0)
(161.852 0 0)
(163.502 0 0)
(165.139 0 0)
(166.764 0 0)
(168.377 0 0)
(169.977 0 0)
(171.565 0 0)
(173.141 0 0)
(174.704 0 0)
(176.255 0 0)
(177.794 0 0)
(179.321 0 0)
(180.836 0 0)
(182.339 0 0)
(183.831 0 0)
(185.31 0 0)
(186.778 0 0)
(188.234 0 0)
(189.679 0 0)
(191.112 0 0)
(192.534 0 0)
(193.944 0 0)
(195.343 0 0)
(196.732 0 0)
(198.109 0 0)
(199.475 0 0)
(200.83 0 0)
(202.174 0 0)
(203.508 0 0)
(204.83 0 0)
(206.142 0 0)
(207.444 0 0)
(208.735 0 0)
(210.016 0 0)
(211.286 0 0)
(212.546 0 0)
(213.795 0 0)
(215.035 0 0)
(216.264 0 0)
(217.483 0 0)
(218.693 0 0)
(219.892 0 0)
(221.082 0 0)
(222.26 0 0)
(223.434 0 0)
(224.581 0 0)
(225.769 0 0)
(226.796 0 0)
(228.276 0 0)
(110.546 0 0)
(112.143 0 0)
(113.787 0 0)
(115.47 0 0)
(117.183 0 0)
(118.921 0 0)
(120.677 0 0)
(122.446 0 0)
(124.226 0 0)
(126.011 0 0)
(127.8 0 0)
(129.589 0 0)
(131.377 0 0)
(133.162 0 0)
(134.942 0 0)
(136.717 0 0)
(138.484 0 0)
(140.244 0 0)
(141.995 0 0)
(143.736 0 0)
(145.468 0 0)
(147.19 0 0)
(148.901 0 0)
(150.601 0 0)
(152.29 0 0)
(153.968 0 0)
(155.634 0 0)
(157.289 0 0)
(158.932 0 0)
(160.563 0 0)
(162.182 0 0)
(163.79 0 0)
(165.385 0 0)
(166.969 0 0)
(168.542 0 0)
(170.102 0 0)
(171.65 0 0)
(173.187 0 0)
(174.713 0 0)
(176.226 0 0)
(177.728 0 0)
(179.219 0 0)
(180.698 0 0)
(182.166 0 0)
(183.622 0 0)
(185.067 0 0)
(186.502 0 0)
(187.924 0 0)
(189.336 0 0)
(190.737 0 0)
(192.127 0 0)
(193.506 0 0)
(194.875 0 0)
(196.232 0 0)
(197.579 0 0)
(198.915 0 0)
(200.241 0 0)
(201.557 0 0)
(202.862 0 0)
(204.156 0 0)
(205.441 0 0)
(206.715 0 0)
(207.979 0 0)
(209.233 0 0)
(210.476 0 0)
(211.71 0 0)
(212.934 0 0)
(214.148 0 0)
(215.353 0 0)
(216.547 0 0)
(217.732 0 0)
(218.907 0 0)
(220.073 0 0)
(221.228 0 0)
(222.378 0 0)
(223.503 0 0)
(224.667 0 0)
(225.675 0 0)
(227.124 0 0)
(112.088 0 0)
(113.685 0 0)
(115.319 0 0)
(116.983 0 0)
(118.671 0 0)
(120.377 0 0)
(122.098 0 0)
(123.828 0 0)
(125.565 0 0)
(127.306 0 0)
(129.049 0 0)
(130.791 0 0)
(132.531 0 0)
(134.268 0 0)
(135.999 0 0)
(137.724 0 0)
(139.443 0 0)
(141.154 0 0)
(142.856 0 0)
(144.55 0 0)
(146.234 0 0)
(147.908 0 0)
(149.573 0 0)
(151.227 0 0)
(152.87 0 0)
(154.503 0 0)
(156.125 0 0)
(157.736 0 0)
(159.336 0 0)
(160.925 0 0)
(162.502 0 0)
(164.069 0 0)
(165.624 0 0)
(167.168 0 0)
(168.701 0 0)
(170.223 0 0)
(171.733 0 0)
(173.233 0 0)
(174.721 0 0)
(176.198 0 0)
(177.664 0 0)
(179.12 0 0)
(180.564 0 0)
(181.997 0 0)
(183.42 0 0)
(184.832 0 0)
(186.233 0 0)
(187.624 0 0)
(189.004 0 0)
(190.373 0 0)
(191.732 0 0)
(193.08 0 0)
(194.419 0 0)
(195.746 0 0)
(197.064 0 0)
(198.371 0 0)
(199.668 0 0)
(200.956 0 0)
(202.233 0 0)
(203.5 0 0)
(204.757 0 0)
(206.004 0 0)
(207.242 0 0)
(208.469 0 0)
(209.687 0 0)
(210.896 0 0)
(212.095 0 0)
(213.284 0 0)
(214.463 0 0)
(215.634 0 0)
(216.795 0 0)
(217.946 0 0)
(219.088 0 0)
(220.22 0 0)
(221.347 0 0)
(222.451 0 0)
(223.591 0 0)
(224.58 0 0)
(225.998 0 0)
(113.626 0 0)
(115.213 0 0)
(116.829 0 0)
(118.469 0 0)
(120.127 0 0)
(121.799 0 0)
(123.482 0 0)
(125.172 0 0)
(126.866 0 0)
(128.563 0 0)
(130.26 0 0)
(131.956 0 0)
(133.649 0 0)
(135.338 0 0)
(137.022 0 0)
(138.7 0 0)
(140.371 0 0)
(142.034 0 0)
(143.69 0 0)
(145.337 0 0)
(146.975 0 0)
(148.603 0 0)
(150.223 0 0)
(151.832 0 0)
(153.432 0 0)
(155.021 0 0)
(156.601 0 0)
(158.169 0 0)
(159.728 0 0)
(161.276 0 0)
(162.813 0 0)
(164.34 0 0)
(165.856 0 0)
(167.361 0 0)
(168.856 0 0)
(170.34 0 0)
(171.814 0 0)
(173.277 0 0)
(174.729 0 0)
(176.171 0 0)
(177.602 0 0)
(179.023 0 0)
(180.434 0 0)
(181.834 0 0)
(183.224 0 0)
(184.603 0 0)
(185.972 0 0)
(187.331 0 0)
(188.68 0 0)
(190.019 0 0)
(191.348 0 0)
(192.666 0 0)
(193.975 0 0)
(195.274 0 0)
(196.563 0 0)
(197.842 0 0)
(199.111 0 0)
(200.371 0 0)
(201.62 0 0)
(202.861 0 0)
(204.091 0 0)
(205.312 0 0)
(206.524 0 0)
(207.726 0 0)
(208.919 0 0)
(210.102 0 0)
(211.276 0 0)
(212.441 0 0)
(213.596 0 0)
(214.743 0 0)
(215.88 0 0)
(217.008 0 0)
(218.127 0 0)
(219.236 0 0)
(220.341 0 0)
(221.422 0 0)
(222.54 0 0)
(223.51 0 0)
(224.897 0 0)
(115.149 0 0)
(116.719 0 0)
(118.312 0 0)
(119.923 0 0)
(121.548 0 0)
(123.184 0 0)
(124.828 0 0)
(126.477 0 0)
(128.129 0 0)
(129.782 0 0)
(131.434 0 0)
(133.084 0 0)
(134.731 0 0)
(136.374 0 0)
(138.012 0 0)
(139.643 0 0)
(141.268 0 0)
(142.886 0 0)
(144.496 0 0)
(146.098 0 0)
(147.692 0 0)
(149.276 0 0)
(150.852 0 0)
(152.419 0 0)
(153.976 0 0)
(155.523 0 0)
(157.061 0 0)
(158.589 0 0)
(160.107 0 0)
(161.615 0 0)
(163.114 0 0)
(164.602 0 0)
(166.08 0 0)
(167.548 0 0)
(169.006 0 0)
(170.454 0 0)
(171.892 0 0)
(173.319 0 0)
(174.737 0 0)
(176.145 0 0)
(177.542 0 0)
(178.93 0 0)
(180.308 0 0)
(181.675 0 0)
(183.033 0 0)
(184.381 0 0)
(185.719 0 0)
(187.048 0 0)
(188.366 0 0)
(189.675 0 0)
(190.974 0 0)
(192.264 0 0)
(193.544 0 0)
(194.814 0 0)
(196.075 0 0)
(197.327 0 0)
(198.569 0 0)
(199.801 0 0)
(201.024 0 0)
(202.238 0 0)
(203.443 0 0)
(204.638 0 0)
(205.825 0 0)
(207.002 0 0)
(208.169 0 0)
(209.328 0 0)
(210.478 0 0)
(211.619 0 0)
(212.751 0 0)
(213.874 0 0)
(214.988 0 0)
(216.093 0 0)
(217.19 0 0)
(218.276 0 0)
(219.359 0 0)
(220.418 0 0)
(221.513 0 0)
(222.464 0 0)
(223.822 0 0)
(116.65 0 0)
(118.198 0 0)
(119.764 0 0)
(121.343 0 0)
(122.934 0 0)
(124.532 0 0)
(126.136 0 0)
(127.744 0 0)
(129.354 0 0)
(130.963 0 0)
(132.571 0 0)
(134.177 0 0)
(135.779 0 0)
(137.377 0 0)
(138.969 0 0)
(140.556 0 0)
(142.137 0 0)
(143.71 0 0)
(145.276 0 0)
(146.835 0 0)
(148.385 0 0)
(149.927 0 0)
(151.461 0 0)
(152.986 0 0)
(154.502 0 0)
(156.009 0 0)
(157.507 0 0)
(158.996 0 0)
(160.475 0 0)
(161.945 0 0)
(163.405 0 0)
(164.856 0 0)
(166.298 0 0)
(167.729 0 0)
(169.152 0 0)
(170.564 0 0)
(171.967 0 0)
(173.361 0 0)
(174.745 0 0)
(176.119 0 0)
(177.484 0 0)
(178.839 0 0)
(180.185 0 0)
(181.522 0 0)
(182.848 0 0)
(184.166 0 0)
(185.474 0 0)
(186.772 0 0)
(188.061 0 0)
(189.341 0 0)
(190.612 0 0)
(191.873 0 0)
(193.125 0 0)
(194.368 0 0)
(195.601 0 0)
(196.826 0 0)
(198.041 0 0)
(199.247 0 0)
(200.445 0 0)
(201.633 0 0)
(202.812 0 0)
(203.982 0 0)
(205.144 0 0)
(206.296 0 0)
(207.44 0 0)
(208.575 0 0)
(209.701 0 0)
(210.818 0 0)
(211.927 0 0)
(213.026 0 0)
(214.118 0 0)
(215.2 0 0)
(216.275 0 0)
(217.34 0 0)
(218.4 0 0)
(219.438 0 0)
(220.511 0 0)
(221.444 0 0)
(222.771 0 0)
(118.125 0 0)
(119.647 0 0)
(121.182 0 0)
(122.728 0 0)
(124.282 0 0)
(125.843 0 0)
(127.407 0 0)
(128.974 0 0)
(130.541 0 0)
(132.108 0 0)
(133.673 0 0)
(135.235 0 0)
(136.793 0 0)
(138.347 0 0)
(139.896 0 0)
(141.44 0 0)
(142.977 0 0)
(144.508 0 0)
(146.031 0 0)
(147.548 0 0)
(149.057 0 0)
(150.558 0 0)
(152.051 0 0)
(153.536 0 0)
(155.012 0 0)
(156.48 0 0)
(157.939 0 0)
(159.39 0 0)
(160.831 0 0)
(162.264 0 0)
(163.688 0 0)
(165.103 0 0)
(166.509 0 0)
(167.905 0 0)
(169.293 0 0)
(170.672 0 0)
(172.041 0 0)
(173.402 0 0)
(174.753 0 0)
(176.095 0 0)
(177.428 0 0)
(178.752 0 0)
(180.067 0 0)
(181.372 0 0)
(182.669 0 0)
(183.957 0 0)
(185.235 0 0)
(186.505 0 0)
(187.765 0 0)
(189.017 0 0)
(190.259 0 0)
(191.493 0 0)
(192.718 0 0)
(193.934 0 0)
(195.141 0 0)
(196.339 0 0)
(197.528 0 0)
(198.709 0 0)
(199.88 0 0)
(201.043 0 0)
(202.198 0 0)
(203.344 0 0)
(204.481 0 0)
(205.609 0 0)
(206.729 0 0)
(207.84 0 0)
(208.943 0 0)
(210.037 0 0)
(211.123 0 0)
(212.201 0 0)
(213.27 0 0)
(214.33 0 0)
(215.383 0 0)
(216.426 0 0)
(217.465 0 0)
(218.482 0 0)
(219.532 0 0)
(220.448 0 0)
(221.746 0 0)
(119.57 0 0)
(121.062 0 0)
(122.565 0 0)
(124.076 0 0)
(125.593 0 0)
(127.115 0 0)
(128.64 0 0)
(130.166 0 0)
(131.691 0 0)
(133.216 0 0)
(134.739 0 0)
(136.259 0 0)
(137.775 0 0)
(139.286 0 0)
(140.793 0 0)
(142.295 0 0)
(143.79 0 0)
(145.279 0 0)
(146.762 0 0)
(148.238 0 0)
(149.707 0 0)
(151.168 0 0)
(152.622 0 0)
(154.068 0 0)
(155.506 0 0)
(156.936 0 0)
(158.358 0 0)
(159.771 0 0)
(161.177 0 0)
(162.574 0 0)
(163.962 0 0)
(165.342 0 0)
(166.713 0 0)
(168.076 0 0)
(169.43 0 0)
(170.776 0 0)
(172.113 0 0)
(173.441 0 0)
(174.761 0 0)
(176.071 0 0)
(177.374 0 0)
(178.667 0 0)
(179.952 0 0)
(181.228 0 0)
(182.495 0 0)
(183.754 0 0)
(185.004 0 0)
(186.245 0 0)
(187.478 0 0)
(188.702 0 0)
(189.917 0 0)
(191.124 0 0)
(192.322 0 0)
(193.511 0 0)
(194.692 0 0)
(195.865 0 0)
(197.029 0 0)
(198.184 0 0)
(199.331 0 0)
(200.47 0 0)
(201.6 0 0)
(202.722 0 0)
(203.835 0 0)
(204.94 0 0)
(206.037 0 0)
(207.125 0 0)
(208.205 0 0)
(209.277 0 0)
(210.34 0 0)
(211.396 0 0)
(212.443 0 0)
(213.482 0 0)
(214.513 0 0)
(215.534 0 0)
(216.552 0 0)
(217.549 0 0)
(218.578 0 0)
(219.475 0 0)
(220.745 0 0)
(120.982 0 0)
(122.442 0 0)
(123.911 0 0)
(125.386 0 0)
(126.867 0 0)
(128.35 0 0)
(129.835 0 0)
(131.321 0 0)
(132.806 0 0)
(134.29 0 0)
(135.771 0 0)
(137.25 0 0)
(138.725 0 0)
(140.195 0 0)
(141.661 0 0)
(143.122 0 0)
(144.577 0 0)
(146.026 0 0)
(147.469 0 0)
(148.906 0 0)
(150.336 0 0)
(151.759 0 0)
(153.174 0 0)
(154.583 0 0)
(155.984 0 0)
(157.377 0 0)
(158.763 0 0)
(160.141 0 0)
(161.511 0 0)
(162.874 0 0)
(164.228 0 0)
(165.574 0 0)
(166.912 0 0)
(168.242 0 0)
(169.564 0 0)
(170.877 0 0)
(172.183 0 0)
(173.48 0 0)
(174.768 0 0)
(176.049 0 0)
(177.321 0 0)
(178.585 0 0)
(179.84 0 0)
(181.087 0 0)
(182.326 0 0)
(183.557 0 0)
(184.779 0 0)
(185.993 0 0)
(187.198 0 0)
(188.395 0 0)
(189.584 0 0)
(190.765 0 0)
(191.937 0 0)
(193.101 0 0)
(194.257 0 0)
(195.404 0 0)
(196.544 0 0)
(197.675 0 0)
(198.798 0 0)
(199.912 0 0)
(201.019 0 0)
(202.117 0 0)
(203.207 0 0)
(204.289 0 0)
(205.363 0 0)
(206.428 0 0)
(207.486 0 0)
(208.536 0 0)
(209.577 0 0)
(210.611 0 0)
(211.637 0 0)
(212.654 0 0)
(213.664 0 0)
(214.665 0 0)
(215.662 0 0)
(216.639 0 0)
(217.646 0 0)
(218.527 0 0)
(219.767 0 0)
(122.358 0 0)
(123.786 0 0)
(125.22 0 0)
(126.66 0 0)
(128.103 0 0)
(129.548 0 0)
(130.994 0 0)
(132.44 0 0)
(133.886 0 0)
(135.329 0 0)
(136.771 0 0)
(138.209 0 0)
(139.644 0 0)
(141.075 0 0)
(142.501 0 0)
(143.922 0 0)
(145.338 0 0)
(146.749 0 0)
(148.154 0 0)
(149.552 0 0)
(150.945 0 0)
(152.33 0 0)
(153.709 0 0)
(155.082 0 0)
(156.447 0 0)
(157.805 0 0)
(159.156 0 0)
(160.5 0 0)
(161.836 0 0)
(163.164 0 0)
(164.486 0 0)
(165.799 0 0)
(167.105 0 0)
(168.403 0 0)
(169.693 0 0)
(170.976 0 0)
(172.25 0 0)
(173.517 0 0)
(174.776 0 0)
(176.027 0 0)
(177.27 0 0)
(178.505 0 0)
(179.732 0 0)
(180.951 0 0)
(182.163 0 0)
(183.366 0 0)
(184.561 0 0)
(185.748 0 0)
(186.927 0 0)
(188.098 0 0)
(189.261 0 0)
(190.416 0 0)
(191.563 0 0)
(192.703 0 0)
(193.834 0 0)
(194.957 0 0)
(196.072 0 0)
(197.179 0 0)
(198.278 0 0)
(199.369 0 0)
(200.453 0 0)
(201.528 0 0)
(202.595 0 0)
(203.655 0 0)
(204.706 0 0)
(205.75 0 0)
(206.786 0 0)
(207.814 0 0)
(208.834 0 0)
(209.847 0 0)
(210.851 0 0)
(211.848 0 0)
(212.837 0 0)
(213.818 0 0)
(214.794 0 0)
(215.751 0 0)
(216.738 0 0)
(217.601 0 0)
(218.814 0 0)
(123.699 0 0)
(125.093 0 0)
(126.492 0 0)
(127.895 0 0)
(129.301 0 0)
(130.709 0 0)
(132.117 0 0)
(133.524 0 0)
(134.931 0 0)
(136.336 0 0)
(137.738 0 0)
(139.137 0 0)
(140.534 0 0)
(141.926 0 0)
(143.314 0 0)
(144.697 0 0)
(146.075 0 0)
(147.448 0 0)
(148.816 0 0)
(150.178 0 0)
(151.534 0 0)
(152.884 0 0)
(154.228 0 0)
(155.565 0 0)
(156.895 0 0)
(158.219 0 0)
(159.537 0 0)
(160.847 0 0)
(162.15 0 0)
(163.446 0 0)
(164.735 0 0)
(166.017 0 0)
(167.292 0 0)
(168.559 0 0)
(169.819 0 0)
(171.071 0 0)
(172.316 0 0)
(173.554 0 0)
(174.784 0 0)
(176.006 0 0)
(177.221 0 0)
(178.428 0 0)
(179.628 0 0)
(180.819 0 0)
(182.004 0 0)
(183.18 0 0)
(184.349 0 0)
(185.51 0 0)
(186.664 0 0)
(187.809 0 0)
(188.947 0 0)
(190.078 0 0)
(191.2 0 0)
(192.315 0 0)
(193.422 0 0)
(194.521 0 0)
(195.613 0 0)
(196.697 0 0)
(197.773 0 0)
(198.841 0 0)
(199.902 0 0)
(200.955 0 0)
(202 0 0)
(203.038 0 0)
(204.068 0 0)
(205.09 0 0)
(206.104 0 0)
(207.111 0 0)
(208.11 0 0)
(209.102 0 0)
(210.086 0 0)
(211.062 0 0)
(212.031 0 0)
(212.992 0 0)
(213.948 0 0)
(214.885 0 0)
(215.851 0 0)
(216.698 0 0)
(217.883 0 0)
(125.002 0 0)
(126.363 0 0)
(127.727 0 0)
(129.094 0 0)
(130.463 0 0)
(131.833 0 0)
(133.204 0 0)
(134.574 0 0)
(135.943 0 0)
(137.309 0 0)
(138.674 0 0)
(140.036 0 0)
(141.394 0 0)
(142.749 0 0)
(144.1 0 0)
(145.446 0 0)
(146.788 0 0)
(148.125 0 0)
(149.457 0 0)
(150.784 0 0)
(152.105 0 0)
(153.42 0 0)
(154.729 0 0)
(156.033 0 0)
(157.33 0 0)
(158.621 0 0)
(159.905 0 0)
(161.183 0 0)
(162.455 0 0)
(163.72 0 0)
(164.978 0 0)
(166.229 0 0)
(167.473 0 0)
(168.71 0 0)
(169.941 0 0)
(171.164 0 0)
(172.38 0 0)
(173.589 0 0)
(174.791 0 0)
(175.986 0 0)
(177.173 0 0)
(178.353 0 0)
(179.526 0 0)
(180.692 0 0)
(181.85 0 0)
(183 0 0)
(184.144 0 0)
(185.28 0 0)
(186.408 0 0)
(187.529 0 0)
(188.643 0 0)
(189.749 0 0)
(190.847 0 0)
(191.939 0 0)
(193.022 0 0)
(194.098 0 0)
(195.167 0 0)
(196.228 0 0)
(197.282 0 0)
(198.328 0 0)
(199.366 0 0)
(200.398 0 0)
(201.421 0 0)
(202.437 0 0)
(203.446 0 0)
(204.447 0 0)
(205.44 0 0)
(206.427 0 0)
(207.405 0 0)
(208.376 0 0)
(209.34 0 0)
(210.297 0 0)
(211.246 0 0)
(212.186 0 0)
(213.123 0 0)
(214.041 0 0)
(214.987 0 0)
(215.817 0 0)
(216.975 0 0)
(126.269 0 0)
(127.595 0 0)
(128.925 0 0)
(130.256 0 0)
(131.589 0 0)
(132.923 0 0)
(134.257 0 0)
(135.59 0 0)
(136.922 0 0)
(138.252 0 0)
(139.58 0 0)
(140.905 0 0)
(142.227 0 0)
(143.546 0 0)
(144.861 0 0)
(146.172 0 0)
(147.478 0 0)
(148.78 0 0)
(150.078 0 0)
(151.37 0 0)
(152.657 0 0)
(153.939 0 0)
(155.215 0 0)
(156.486 0 0)
(157.751 0 0)
(159.01 0 0)
(160.263 0 0)
(161.509 0 0)
(162.75 0 0)
(163.984 0 0)
(165.212 0 0)
(166.434 0 0)
(167.649 0 0)
(168.857 0 0)
(170.059 0 0)
(171.254 0 0)
(172.443 0 0)
(173.624 0 0)
(174.799 0 0)
(175.966 0 0)
(177.127 0 0)
(178.281 0 0)
(179.428 0 0)
(180.568 0 0)
(181.7 0 0)
(182.826 0 0)
(183.944 0 0)
(185.056 0 0)
(186.16 0 0)
(187.257 0 0)
(188.347 0 0)
(189.429 0 0)
(190.505 0 0)
(191.573 0 0)
(192.634 0 0)
(193.687 0 0)
(194.733 0 0)
(195.772 0 0)
(196.804 0 0)
(197.828 0 0)
(198.845 0 0)
(199.855 0 0)
(200.858 0 0)
(201.853 0 0)
(202.841 0 0)
(203.821 0 0)
(204.794 0 0)
(205.76 0 0)
(206.719 0 0)
(207.67 0 0)
(208.614 0 0)
(209.551 0 0)
(210.48 0 0)
(211.402 0 0)
(212.319 0 0)
(213.219 0 0)
(214.145 0 0)
(214.958 0 0)
(216.09 0 0)
(127.499 0 0)
(128.791 0 0)
(130.086 0 0)
(131.382 0 0)
(132.68 0 0)
(133.978 0 0)
(135.276 0 0)
(136.574 0 0)
(137.87 0 0)
(139.164 0 0)
(140.456 0 0)
(141.746 0 0)
(143.033 0 0)
(144.317 0 0)
(145.597 0 0)
(146.874 0 0)
(148.146 0 0)
(149.414 0 0)
(150.678 0 0)
(151.937 0 0)
(153.192 0 0)
(154.441 0 0)
(155.686 0 0)
(156.925 0 0)
(158.158 0 0)
(159.386 0 0)
(160.609 0 0)
(161.826 0 0)
(163.036 0 0)
(164.241 0 0)
(165.44 0 0)
(166.633 0 0)
(167.82 0 0)
(169 0 0)
(170.174 0 0)
(171.342 0 0)
(172.503 0 0)
(173.658 0 0)
(174.806 0 0)
(175.948 0 0)
(177.083 0 0)
(178.211 0 0)
(179.333 0 0)
(180.447 0 0)
(181.555 0 0)
(182.657 0 0)
(183.751 0 0)
(184.838 0 0)
(185.919 0 0)
(186.993 0 0)
(188.059 0 0)
(189.119 0 0)
(190.172 0 0)
(191.217 0 0)
(192.256 0 0)
(193.287 0 0)
(194.312 0 0)
(195.329 0 0)
(196.339 0 0)
(197.343 0 0)
(198.339 0 0)
(199.328 0 0)
(200.309 0 0)
(201.284 0 0)
(202.252 0 0)
(203.212 0 0)
(204.165 0 0)
(205.111 0 0)
(206.05 0 0)
(206.982 0 0)
(207.906 0 0)
(208.824 0 0)
(209.734 0 0)
(210.637 0 0)
(211.536 0 0)
(212.416 0 0)
(213.323 0 0)
(214.121 0 0)
(215.227 0 0)
(128.692 0 0)
(129.951 0 0)
(131.211 0 0)
(132.473 0 0)
(133.737 0 0)
(135 0 0)
(136.263 0 0)
(137.526 0 0)
(138.787 0 0)
(140.047 0 0)
(141.305 0 0)
(142.56 0 0)
(143.813 0 0)
(145.063 0 0)
(146.31 0 0)
(147.553 0 0)
(148.792 0 0)
(150.028 0 0)
(151.26 0 0)
(152.487 0 0)
(153.71 0 0)
(154.928 0 0)
(156.141 0 0)
(157.35 0 0)
(158.553 0 0)
(159.751 0 0)
(160.944 0 0)
(162.132 0 0)
(163.314 0 0)
(164.49 0 0)
(165.661 0 0)
(166.826 0 0)
(167.985 0 0)
(169.138 0 0)
(170.286 0 0)
(171.427 0 0)
(172.562 0 0)
(173.691 0 0)
(174.813 0 0)
(175.93 0 0)
(177.04 0 0)
(178.143 0 0)
(179.24 0 0)
(180.331 0 0)
(181.415 0 0)
(182.492 0 0)
(183.563 0 0)
(184.628 0 0)
(185.685 0 0)
(186.736 0 0)
(187.78 0 0)
(188.818 0 0)
(189.848 0 0)
(190.872 0 0)
(191.889 0 0)
(192.899 0 0)
(193.902 0 0)
(194.898 0 0)
(195.888 0 0)
(196.87 0 0)
(197.846 0 0)
(198.814 0 0)
(199.776 0 0)
(200.731 0 0)
(201.678 0 0)
(202.619 0 0)
(203.553 0 0)
(204.479 0 0)
(205.399 0 0)
(206.312 0 0)
(207.217 0 0)
(208.116 0 0)
(209.008 0 0)
(209.892 0 0)
(210.772 0 0)
(211.635 0 0)
(212.523 0 0)
(213.305 0 0)
(214.385 0 0)
(129.849 0 0)
(131.074 0 0)
(132.302 0 0)
(133.53 0 0)
(134.76 0 0)
(135.989 0 0)
(137.219 0 0)
(138.447 0 0)
(139.675 0 0)
(140.901 0 0)
(142.125 0 0)
(143.348 0 0)
(144.568 0 0)
(145.785 0 0)
(146.999 0 0)
(148.21 0 0)
(149.418 0 0)
(150.622 0 0)
(151.822 0 0)
(153.019 0 0)
(154.211 0 0)
(155.399 0 0)
(156.582 0 0)
(157.761 0 0)
(158.936 0 0)
(160.105 0 0)
(161.269 0 0)
(162.429 0 0)
(163.583 0 0)
(164.732 0 0)
(165.875 0 0)
(167.013 0 0)
(168.146 0 0)
(169.273 0 0)
(170.394 0 0)
(171.509 0 0)
(172.619 0 0)
(173.723 0 0)
(174.82 0 0)
(175.912 0 0)
(176.998 0 0)
(178.077 0 0)
(179.151 0 0)
(180.218 0 0)
(181.279 0 0)
(182.333 0 0)
(183.381 0 0)
(184.423 0 0)
(185.458 0 0)
(186.487 0 0)
(187.509 0 0)
(188.525 0 0)
(189.534 0 0)
(190.536 0 0)
(191.532 0 0)
(192.521 0 0)
(193.504 0 0)
(194.48 0 0)
(195.449 0 0)
(196.411 0 0)
(197.367 0 0)
(198.315 0 0)
(199.257 0 0)
(200.192 0 0)
(201.121 0 0)
(202.042 0 0)
(202.957 0 0)
(203.864 0 0)
(204.765 0 0)
(205.659 0 0)
(206.546 0 0)
(207.427 0 0)
(208.3 0 0)
(209.166 0 0)
(210.028 0 0)
(210.873 0 0)
(211.742 0 0)
(212.51 0 0)
(213.564 0 0)
(130.97 0 0)
(132.163 0 0)
(133.358 0 0)
(134.553 0 0)
(135.75 0 0)
(136.947 0 0)
(138.143 0 0)
(139.339 0 0)
(140.534 0 0)
(141.728 0 0)
(142.92 0 0)
(144.11 0 0)
(145.298 0 0)
(146.483 0 0)
(147.666 0 0)
(148.846 0 0)
(150.023 0 0)
(151.197 0 0)
(152.367 0 0)
(153.534 0 0)
(154.697 0 0)
(155.855 0 0)
(157.01 0 0)
(158.16 0 0)
(159.306 0 0)
(160.448 0 0)
(161.584 0 0)
(162.716 0 0)
(163.844 0 0)
(164.966 0 0)
(166.083 0 0)
(167.195 0 0)
(168.302 0 0)
(169.403 0 0)
(170.499 0 0)
(171.59 0 0)
(172.675 0 0)
(173.754 0 0)
(174.828 0 0)
(175.895 0 0)
(176.958 0 0)
(178.014 0 0)
(179.064 0 0)
(180.108 0 0)
(181.146 0 0)
(182.178 0 0)
(183.204 0 0)
(184.224 0 0)
(185.238 0 0)
(186.245 0 0)
(187.246 0 0)
(188.24 0 0)
(189.229 0 0)
(190.21 0 0)
(191.186 0 0)
(192.155 0 0)
(193.117 0 0)
(194.073 0 0)
(195.022 0 0)
(195.965 0 0)
(196.901 0 0)
(197.83 0 0)
(198.753 0 0)
(199.669 0 0)
(200.578 0 0)
(201.481 0 0)
(202.377 0 0)
(203.266 0 0)
(204.148 0 0)
(205.024 0 0)
(205.893 0 0)
(206.755 0 0)
(207.611 0 0)
(208.459 0 0)
(209.303 0 0)
(210.131 0 0)
(210.982 0 0)
(211.734 0 0)
(212.765 0 0)
(132.056 0 0)
(133.218 0 0)
(134.38 0 0)
(135.544 0 0)
(136.709 0 0)
(137.873 0 0)
(139.038 0 0)
(140.202 0 0)
(141.365 0 0)
(142.527 0 0)
(143.688 0 0)
(144.847 0 0)
(146.005 0 0)
(147.16 0 0)
(148.312 0 0)
(149.462 0 0)
(150.61 0 0)
(151.754 0 0)
(152.895 0 0)
(154.032 0 0)
(155.167 0 0)
(156.297 0 0)
(157.424 0 0)
(158.547 0 0)
(159.665 0 0)
(160.78 0 0)
(161.89 0 0)
(162.995 0 0)
(164.096 0 0)
(165.193 0 0)
(166.284 0 0)
(167.371 0 0)
(168.453 0 0)
(169.53 0 0)
(170.601 0 0)
(171.668 0 0)
(172.729 0 0)
(173.784 0 0)
(174.835 0 0)
(175.879 0 0)
(176.919 0 0)
(177.952 0 0)
(178.98 0 0)
(180.002 0 0)
(181.018 0 0)
(182.028 0 0)
(183.033 0 0)
(184.031 0 0)
(185.024 0 0)
(186.01 0 0)
(186.99 0 0)
(187.964 0 0)
(188.932 0 0)
(189.894 0 0)
(190.849 0 0)
(191.798 0 0)
(192.741 0 0)
(193.677 0 0)
(194.607 0 0)
(195.53 0 0)
(196.447 0 0)
(197.358 0 0)
(198.262 0 0)
(199.159 0 0)
(200.05 0 0)
(200.935 0 0)
(201.812 0 0)
(202.684 0 0)
(203.548 0 0)
(204.406 0 0)
(205.257 0 0)
(206.102 0 0)
(206.94 0 0)
(207.771 0 0)
(208.598 0 0)
(209.409 0 0)
(210.241 0 0)
(210.979 0 0)
(211.985 0 0)
(133.109 0 0)
(134.239 0 0)
(135.37 0 0)
(136.503 0 0)
(137.636 0 0)
(138.77 0 0)
(139.904 0 0)
(141.037 0 0)
(142.17 0 0)
(143.301 0 0)
(144.432 0 0)
(145.561 0 0)
(146.688 0 0)
(147.814 0 0)
(148.937 0 0)
(150.058 0 0)
(151.177 0 0)
(152.293 0 0)
(153.405 0 0)
(154.515 0 0)
(155.622 0 0)
(156.725 0 0)
(157.825 0 0)
(158.921 0 0)
(160.013 0 0)
(161.101 0 0)
(162.185 0 0)
(163.266 0 0)
(164.341 0 0)
(165.413 0 0)
(166.48 0 0)
(167.542 0 0)
(168.599 0 0)
(169.652 0 0)
(170.7 0 0)
(171.743 0 0)
(172.781 0 0)
(173.814 0 0)
(174.842 0 0)
(175.864 0 0)
(176.881 0 0)
(177.892 0 0)
(178.898 0 0)
(179.899 0 0)
(180.894 0 0)
(181.883 0 0)
(182.867 0 0)
(183.844 0 0)
(184.816 0 0)
(185.782 0 0)
(186.742 0 0)
(187.696 0 0)
(188.644 0 0)
(189.586 0 0)
(190.522 0 0)
(191.452 0 0)
(192.375 0 0)
(193.293 0 0)
(194.204 0 0)
(195.108 0 0)
(196.007 0 0)
(196.899 0 0)
(197.785 0 0)
(198.664 0 0)
(199.537 0 0)
(200.403 0 0)
(201.263 0 0)
(202.117 0 0)
(202.964 0 0)
(203.804 0 0)
(204.638 0 0)
(205.466 0 0)
(206.287 0 0)
(207.1 0 0)
(207.91 0 0)
(208.705 0 0)
(209.52 0 0)
(210.243 0 0)
(211.226 0 0)
(134.128 0 0)
(135.228 0 0)
(136.329 0 0)
(137.431 0 0)
(138.534 0 0)
(139.638 0 0)
(140.741 0 0)
(141.845 0 0)
(142.948 0 0)
(144.05 0 0)
(145.152 0 0)
(146.252 0 0)
(147.35 0 0)
(148.447 0 0)
(149.542 0 0)
(150.635 0 0)
(151.726 0 0)
(152.814 0 0)
(153.9 0 0)
(154.983 0 0)
(156.063 0 0)
(157.14 0 0)
(158.213 0 0)
(159.283 0 0)
(160.35 0 0)
(161.413 0 0)
(162.472 0 0)
(163.528 0 0)
(164.579 0 0)
(165.626 0 0)
(166.669 0 0)
(167.708 0 0)
(168.742 0 0)
(169.771 0 0)
(170.796 0 0)
(171.817 0 0)
(172.832 0 0)
(173.843 0 0)
(174.848 0 0)
(175.849 0 0)
(176.844 0 0)