/*--------------------------------*- C++ -*----------------------------------*\
| =========                 |                                                 |
| \\      /  F ield         | OpenFOAM: The Open Source CFD Toolbox           |
|  \\    /   O peration     | Version:  2312                                  |
|   \\  /    A nd           | Website:  www.openfoam.com                      |
|    \\/     M anipulation  |                                                 |
\*---------------------------------------------------------------------------*/
FoamFile
{
    version     2.0;
    format      ascii;
    arch        "LSB;label=32;scalar=64";
    class       surfaceScalarField;
    location    "0.399";
    object      phi;
}
// * * * * * * * * * * * * * * * * * * * * * * * * * * * * * * * * * * * * * //

dimensions      [0 3 -1 0 0 0 0];

oriented        oriented;

internalField   nonuniform List<scalar> 
62015
(
42.3546
0.222977
-43.4658
41.2315
0.213795
40.096
0.204592
38.9475
0.195383
37.7859
0.18618
36.6117
0.177001
35.4264
0.167869
34.2335
0.158814
33.0391
0.149875
31.8532
0.141105
30.6908
0.132572
29.5722
0.124362
28.5215
0.116566
27.5635
0.109271
26.7196
0.10254
26.0039
0.0964023
25.4215
0.0908434
24.9691
0.0858146
24.6369
0.0812432
24.4117
0.077046
24.2786
0.0731391
24.2236
0.069446
24.2337
0.0658997
24.2977
0.0624443
24.4064
0.0590343
24.5519
0.0556329
24.7281
0.052211
24.93
0.0487456
25.1533
0.045219
25.3949
0.0416169
25.6522
0.0379287
25.923
0.0341457
26.2057
0.0302621
26.4988
0.0262729
26.8014
0.0221749
27.1124
0.0179657
27.4312
0.0136441
27.7573
0.00920911
28.0901
0.00466093
28.4294
0
28.7748
-0.00477293
29.1262
-0.00965612
29.4833
-0.0146487
29.8461
-0.0197481
30.2144
-0.0249526
30.5883
-0.0302596
30.9677
-0.0356667
31.3527
-0.0411709
31.7431
-0.0467698
32.139
-0.0524599
32.5406
-0.0582381
32.9478
-0.0641012
33.3606
-0.0700459
33.7792
-0.0760686
34.2036
-0.0821656
34.6339
-0.0883331
35.0701
-0.0945679
35.5123
-0.100866
35.9606
-0.107223
36.415
-0.113635
36.8757
-0.120098
37.3426
-0.126608
37.8158
-0.133162
38.2955
-0.139754
38.7816
-0.14638
39.2742
-0.153037
39.7734
-0.159719
40.2792
-0.166424
40.7917
-0.173145
41.3108
-0.179879
41.8367
-0.186622
42.3693
-0.193368
42.9086
-0.200114
43.4552
-0.206853
44.0068
-0.213591
44.5708
-0.220288
45.1248
-0.227048
45.7373
-0.233533
-0.240775
46.1983
40.298
0.430648
-41.37
39.2141
0.412748
38.1187
0.394819
37.0115
0.376885
35.8928
0.35898
34.7638
0.341144
33.6271
0.32343
32.4874
0.305905
31.3525
0.288664
30.2345
0.271823
29.1499
0.255534
28.1195
0.239965
27.1662
0.225288
26.3112
0.211643
25.5705
0.199115
24.9527
0.187712
24.4584
0.177372
24.0811
0.167979
23.8103
0.159384
23.6329
0.151428
23.5356
0.143959
23.5057
0.136841
23.5323
0.129957
23.6056
0.123211
23.7179
0.116523
23.8625
0.109829
24.0342
0.103079
24.2286
0.0962337
24.4423
0.089261
24.6724
0.0821366
24.9168
0.0748414
25.1735
0.0673608
25.4411
0.0596836
25.7184
0.0518018
26.0045
0.0437092
26.2986
0.0354021
26.6
0.0268781
26.9083
0.0181362
27.2231
0.00917652
27.544
0
27.8708
-0.00939143
28.2033
-0.0189951
28.5414
-0.0288081
28.885
-0.0388266
29.234
-0.049046
29.5883
-0.0594624
29.948
-0.0700704
30.313
-0.0808646
30.6834
-0.0918399
31.0592
-0.10299
31.4404
-0.114308
31.827
-0.125789
32.2192
-0.137426
32.6169
-0.149212
33.0203
-0.16114
33.4293
-0.173202
33.8441
-0.185392
34.2647
-0.197702
34.6912
-0.210125
35.1236
-0.222653
35.562
-0.235277
36.0065
-0.247991
36.4571
-0.260785
36.9139
-0.273653
37.3769
-0.286585
37.8461
-0.299573
38.3218
-0.31261
38.8037
-0.325686
39.2921
-0.338793
39.7869
-0.351923
40.2882
-0.365067
40.796
-0.378216
41.3102
-0.391363
41.8314
-0.404493
42.3575
-0.417618
42.8953
-0.430664
43.424
-0.443824
44.0072
-0.456465
-0.470525
44.4514
38.2886
0.623163
-39.323
37.2429
0.597005
36.1868
0.570819
35.1204
0.544651
34.0446
0.518554
32.9616
0.492601
31.8751
0.466883
30.7913
0.441522
29.72
0.416675
28.675
0.392542
27.6739
0.369354
26.7369
0.347354
25.8843
0.326761
25.1326
0.307728
24.4927
0.290309
23.9679
0.27446
23.5551
0.260047
23.2463
0.246878
23.0304
0.234734
22.8953
0.223397
22.8291
0.212661
22.8209
0.202349
22.8614
0.192308
22.9423
0.182414
23.057
0.172563
23.2
0.162674
23.3669
0.152682
23.5539
0.142535
23.7581
0.132191
23.9771
0.121619
24.2091
0.110793
24.4523
0.0996954
24.7056
0.0883101
24.9679
0.0766268
25.2384
0.0646379
25.5164
0.0523382
25.8013
0.039725
26.0927
0.0267969
26.3903
0.0135549
26.6938
0
27.003
-0.0138645
27.3177
-0.0280346
27.6378
-0.0425058
27.9631
-0.0572726
28.2937
-0.0723291
28.6296
-0.087668
28.9706
-0.103283
29.3167
-0.119165
29.6681
-0.135307
30.0247
-0.1517
30.3866
-0.168335
30.7538
-0.185203
31.1263
-0.202293
31.5042
-0.219598
31.8876
-0.237105
32.2765
-0.254806
32.671
-0.272688
33.071
-0.290742
33.4768
-0.308956
33.8883
-0.327319
34.3057
-0.34582
34.7288
-0.364448
35.1579
-0.38319
35.593
-0.402034
36.034
-0.42097
36.4811
-0.439984
36.9343
-0.459065
37.3937
-0.4782
37.8592
-0.497376
38.3309
-0.516583
38.8088
-0.535806
39.2931
-0.555034
39.7834
-0.574255
40.2805
-0.593449
40.7824
-0.612631
41.2952
-0.631698
41.8
-0.65092
42.3554
-0.669402
-0.689891
42.7821
36.348
0.801032
-37.3461
35.3396
0.767068
34.3221
0.733096
33.2962
0.699184
32.2637
0.665418
31.2275
0.63191
30.193
0.598803
29.168
0.566286
28.1641
0.534594
27.1963
0.504009
26.2824
0.474834
25.4408
0.447358
24.688
0.421804
24.0359
0.398288
23.4902
0.376804
23.0503
0.357224
22.7106
0.339338
22.4619
0.322883
22.2937
0.307583
22.195
0.293174
22.1553
0.279416
22.1653
0.266101
22.2171
0.253055
22.3039
0.240135
22.42
0.227224
22.5609
0.214228
22.7227
0.201072
22.9024
0.187696
23.0975
0.174052
23.306
0.160104
23.5262
0.145823
23.7567
0.131185
23.9964
0.116174
24.2445
0.100777
24.5003
0.0849865
24.7631
0.0687956
25.0324
0.0522014
25.308
0.0352033
25.5894
0.017802
25.8765
0
26.169
-0.0181986
26.4669
-0.0367886
26.7699
-0.0557641
27.0781
-0.0751175
27.3914
-0.0948411
27.7096
-0.114926
28.033
-0.135363
28.3613
-0.156142
28.6947
-0.177252
29.0332
-0.198683
29.3768
-0.220422
29.7255
-0.242457
30.0794
-0.264777
30.4386
-0.287369
30.803
-0.310219
31.1728
-0.333314
31.5479
-0.35664
31.9286
-0.380183
32.3147
-0.40393
32.7064
-0.427865
33.1036
-0.451974
33.5066
-0.476241
33.9152
-0.500653
34.3296
-0.525192
34.7498
-0.549845
35.1759
-0.574595
35.6078
-0.599428
36.0456
-0.624325
36.4894
-0.649273
36.9391
-0.674254
37.3948
-0.699253
37.8566
-0.724252
38.3243
-0.74924
38.7984
-0.774187
39.2772
-0.799114
39.7664
-0.82389
40.2482
-0.848857
40.7774
-0.872879
-0.899437
41.1866
34.4855
0.964892
-35.448
33.5139
0.923574
32.5348
0.882292
31.5497
0.841142
30.5613
0.800253
29.5737
0.759787
28.5937
0.719956
27.6309
0.681023
26.6982
0.643308
25.8109
0.607162
24.986
0.572936
24.239
0.54092
23.5823
0.511298
23.023
0.484113
22.5628
0.459269
22.1981
0.436553
21.9218
0.41568
21.7247
0.39633
21.5968
0.378185
21.5285
0.36095
21.5106
0.344363
21.5354
0.328201
21.596
0.312276
21.687
0.296435
21.8034
0.280552
21.9415
0.264528
22.0981
0.24828
22.2706
0.231745
22.4569
0.214871
22.6552
0.197617
22.8641
0.179951
23.0826
0.16185
23.3095
0.143295
23.5443
0.124272
23.7861
0.104771
24.0346
0.0847881
24.2893
0.0643189
24.5499
0.0433631
24.8161
0.0219222
25.0876
0
25.3645
-0.0223987
25.6464
-0.0452676
25.9334
-0.0685986
26.2253
-0.0923832
26.5222
-0.116612
26.8239
-0.141273
27.1305
-0.166356
27.442
-0.191848
27.7584
-0.217737
28.0797
-0.244009
28.4059
-0.27065
28.7372
-0.297645
29.0734
-0.32498
29.4148
-0.352638
29.7613
-0.380605
30.1129
-0.408863
30.4698
-0.437396
30.8319
-0.466188
31.1994
-0.49522
31.5722
-0.524475
31.9505
-0.553935
32.3342
-0.583583
32.7234
-0.6134
33.1182
-0.643367
33.5186
-0.673466
33.9245
-0.703677
34.3362
-0.733982
34.7536
-0.764361
35.1766
-0.794796
35.6054
-0.825265
36.04
-0.855751
36.4804
-0.886232
36.9265
-0.916692
37.3788
-0.947098
37.8355
-0.977474
38.3022
-1.00766
38.7621
-1.03807
39.2666
-1.06735
-1.09964
39.6586
32.7039
1.11541
-33.6313
31.769
1.0672
30.8287
1.01909
29.8853
0.971239
28.9424
0.923809
28.0057
0.877034
27.0833
0.831201
26.1861
0.786655
25.3278
0.743788
24.5231
0.703
23.7869
0.664644
23.1314
0.628968
22.5646
0.596078
22.0898
0.565919
21.7054
0.538297
21.406
0.51292
21.1839
0.489442
21.0302
0.4675
20.9358
0.446751
20.8924
0.426882
20.8922
0.407621
20.9286
0.388736
20.9959
0.370036
21.0894
0.351363
21.2051
0.332587
21.3399
0.313606
21.491
0.294335
21.6563
0.274706
21.834
0.254667
22.0226
0.234176
22.2208
0.213198
22.4277
0.191709
22.6426
0.169689
22.8646
0.147124
23.0934
0.124006
23.3284
0.100328
23.5692
0.0760868
23.8157
0.0512833
24.0675
0.0259195
24.3245
0
24.5865
-0.0264691
24.8534
-0.05348
25.1252
-0.0810236
25.4018
-0.109089
25.6831
-0.137666
25.9692
-0.166741
26.26
-0.196301
26.5555
-0.226331
26.8558
-0.256817
27.1608
-0.287742
27.4707
-0.319091
27.7854
-0.350847
28.1049
-0.382991
28.4294
-0.415506
28.7588
-0.448373
29.0933
-0.481574
29.4328
-0.515088
29.7774
-0.548897
30.1271
-0.58298
30.4821
-0.617316
30.8422
-0.651885
31.2077
-0.686666
31.5785
-0.721637
31.9546
-0.756776
32.3361
-0.792062
32.723
-0.827473
33.1154
-0.862987
33.5133
-0.89858
33.9167
-0.934231
34.3256
-0.969917
34.74
-1.00561
35.1601
-1.0413
35.5855
-1.07695
36.017
-1.11254
36.4528
-1.14808
36.898
-1.1834
37.337
-1.21897
37.818
-1.25323
-1.29093
38.1933
31.0032
1.25324
-31.8954
30.1052
1.19862
29.2045
1.14421
28.3041
1.09022
27.4088
1.03689
26.5257
0.984509
25.6642
0.933458
24.8359
0.884156
24.0541
0.83704
23.3325
0.792518
22.6827
0.750901
22.1135
0.712356
21.6292
0.676882
21.2298
0.644318
20.9114
0.614382
20.6679
0.586714
20.4915
0.560922
20.3738
0.536621
20.3071
0.513452
20.2838
0.491098
20.2976
0.469284
20.3429
0.447779
20.4148
0.426391
20.5096
0.404962
20.6238
0.383364
20.7548
0.361491
20.9003
0.339259
21.0584
0.316601
21.2277
0.293462
21.4069
0.2698
21.5949
0.24558
21.791
0.220777
21.9943
0.195373
22.2044
0.169351
22.4207
0.142704
22.6429
0.115426
22.8707
0.0875142
23.1038
0.0589702
23.3421
0.0297971
23.5853
0
23.8333
-0.0304136
24.0861
-0.0614343
24.3436
-0.093052
24.6056
-0.125255
24.8723
-0.158029
25.1436
-0.19136
25.4194
-0.225234
25.6998
-0.259634
25.9849
-0.294542
26.2745
-0.329941
26.5688
-0.365813
26.8678
-0.402138
27.1716
-0.438896
27.48
-0.476066
27.7933
-0.513629
28.1115
-0.551561
28.4345
-0.589842
28.7624
-0.628449
29.0954
-0.667358
29.4333
-0.706548
29.7763
-0.745993
30.1244
-0.785671
30.4776
-0.825557
30.836
-0.865626
31.1995
-0.905854
31.5684
-0.946216
31.9424
-0.986686
32.3218
-1.02724
32.7064
-1.06785
33.0964
-1.10849
33.4916
-1.14914
33.8923
-1.18977
34.2982
-1.23036
34.7099
-1.27086
35.1257
-1.3113
35.5505
-1.35148
35.9695
-1.39193
36.4282
-1.43091
-1.47372
36.7875
29.382
1.37907
-30.2389
28.5217
1.31853
27.6618
1.25839
26.8063
1.19888
25.9613
1.14033
25.1348
1.08312
24.3371
1.0277
23.58
0.974527
22.8757
0.924061
22.2355
0.876666
21.6682
0.832572
21.1788
0.791835
20.7686
0.754338
20.4353
0.719821
20.1739
0.687926
19.9777
0.658245
19.8393
0.63036
19.7515
0.603874
19.7071
0.578427
19.7001
0.553703
19.7248
0.529434
19.7767
0.505392
19.8517
0.48139
19.9466
0.457273
20.0586
0.432914
20.1854
0.408211
20.3252
0.383079
20.4762
0.357452
20.6374
0.331277
20.8075
0.304509
20.9858
0.277117
21.1715
0.249074
21.3639
0.220362
21.5626
0.190966
21.7672
0.160878
21.9774
0.130093
22.1929
0.0986104
22.4134
0.0664306
22.6388
0.0335583
22.869
0
23.1038
-0.0342358
23.3432
-0.0691387
23.5872
-0.104697
23.8355
-0.140897
24.0884
-0.177723
24.3456
-0.215161
24.6073
-0.253192
24.8735
-0.291799
25.1441
-0.330963
25.4192
-0.370664
25.6988
-0.410881
25.9829
-0.451593
26.2716
-0.492777
26.5649
-0.534412
26.8629
-0.576472
27.1655
-0.618936
27.4729
-0.661778
27.7851
-0.704973
28.102
-0.748496
28.4238
-0.792322
28.7505
-0.836423
29.0821
-0.880773
29.4186
-0.925347
29.7602
-0.970115
30.1067
-1.01505
30.4583
-1.06013
30.8149
-1.10532
31.1766
-1.15059
31.5434
-1.19592
31.9154
-1.24127
32.2924
-1.28662
32.6746
-1.33194
33.0619
-1.37721
33.4546
-1.42237
33.8514
-1.46746
34.2568
-1.51226
34.6568
-1.55732
35.0942
-1.60079
-1.64841
35.4382
27.8391
1.49358
-28.6599
27.0176
1.42768
26.2001
1.3624
25.3918
1.29806
24.5997
1.23506
23.8328
1.17385
23.1014
1.11492
22.4166
1.05877
21.789
1.00581
21.2271
0.956323
20.7366
0.910423
20.3196
0.868047
19.975
0.828967
19.6989
0.79284
19.486
0.759251
19.3295
0.727762
19.2228
0.697946
19.1593
0.669404
19.1331
0.641786
19.1389
0.614783
19.1721
0.588136
19.2287
0.561628
19.3055
0.535075
19.3996
0.508329
19.5088
0.481268
19.6312
0.453791
19.7651
0.425818
19.9093
0.397282
20.0625
0.368131
20.224
0.338324
20.3929
0.307827
20.5687
0.276616
20.7508
0.244673
20.9388
0.211984
21.1323
0.178542
21.3311
0.144342
21.5349
0.109385
21.7436
0.0736709
21.9569
0.0372069
22.1748
0
22.3972
-0.03794
22.6239
-0.0766013
22.8551
-0.115971
23.0905
-0.156033
23.3302
-0.196773
23.5743
-0.238171
23.8226
-0.28021
24.0752
-0.32287
24.3322
-0.366129
24.5935
-0.409967
24.8591
-0.454359
25.1292
-0.499284
25.4036
-0.544716
25.6826
-0.59063
25.966
-0.637002
26.254
-0.683805
26.5465
-0.731012
26.8437
-0.778597
27.1455
-0.82653
27.452
-0.874785
27.7631
-0.923332
28.0791
-0.972142
28.3998
-1.02119
28.7253
-1.07044
29.0556
-1.11986
29.3908
-1.16942
29.7308
-1.2191
30.0758
-1.26887
30.4256
-1.31868
30.7804
-1.36851
31.1401
-1.41833
31.5048
-1.46811
31.8743
-1.51781
32.2491
-1.5674
32.6278
-1.61689
33.0146
-1.66606
33.3965
-1.71551
33.8137
-1.76322
-1.81539
34.143
26.3732
1.59751
-27.1569
25.592
1.52685
24.8191
1.45711
24.0605
1.38868
23.3241
1.32203
22.6191
1.25768
21.9554
1.19614
21.3426
1.13786
20.7892
1.08318
20.3009
1.03227
19.8806
0.985112
19.5281
0.941527
19.2407
0.901194
19.0138
0.863705
18.8417
0.82861
18.7184
0.79546
18.6377
0.763829
18.5941
0.733328
18.5825
0.703619
18.5983
0.674408
18.6378
0.645448
18.6977
0.616531
18.7751
0.587484
18.8678
0.558165
18.9739
0.528455
19.0916
0.498259
19.2197
0.467499
19.3571
0.436112
19.5027
0.404047
19.6559
0.371263
19.8159
0.337729
19.9823
0.303421
20.1546
0.268323
20.3324
0.232421
20.5155
0.19571
20.7035
0.158184
20.8963
0.119846
21.0938
0.0806974
21.2957
0.040746
21.5019
0
21.7125
-0.0415296
21.9274
-0.0838299
22.1464
-0.126886
22.3696
-0.170682
22.597
-0.2152
22.8285
-0.26042
23.0641
-0.306323
23.304
-0.352886
23.548
-0.400087
23.7962
-0.447903
24.0487
-0.496309
24.3054
-0.545279
24.5664
-0.594788
24.8317
-0.644808
25.1014
-0.695312
25.3754
-0.746272
25.6539
-0.797658
25.9368
-0.849441
26.2242
-0.901592
26.5161
-0.954079
26.8126
-1.00687
27.1136
-1.05994
27.4193
-1.11325
27.7295
-1.16677
28.0444
-1.22047
28.364
-1.27431
28.6883
-1.32826
29.0173
-1.3823
29.3511
-1.43638
29.6895
-1.49046
30.0327
-1.54453
30.3807
-1.59854
30.7333
-1.65246
31.0909
-1.70624
31.4524
-1.75991
31.8216
-1.81323
32.1862
-1.86682
32.5842
-1.91856
-1.975
32.8996
24.9836
1.69165
-25.7289
24.2446
1.61689
23.5186
1.54342
22.8123
1.47171
22.1339
1.40228
21.4922
1.33566
20.8962
1.27234
20.3537
1.2127
19.8706
1.15697
19.4501
1.10517
19.0929
1.05718
18.797
1.01271
18.5589
0.971354
18.3737
0.932674
18.2359
0.896203
18.14
0.861493
18.0807
0.828128
18.0532
0.795737
18.0531
0.763999
18.0767
0.732637
18.1208
0.701417
18.1827
0.670143
18.2599
0.638651
18.3506
0.606808
18.4532
0.574501
18.5662
0.541638
18.6885
0.508146
18.8193
0.473964
18.9576
0.439043
19.1028
0.403346
19.2544
0.366841
19.4119
0.329507
19.5749
0.291328
19.7431
0.252292
19.9162
0.212393
20.0941
0.17163
20.2765
0.130002
20.4633
0.0875164
20.6544
0.0441789
20.8497
0
21.0492
-0.0450083
21.2528
-0.0908321
21.4604
-0.137455
21.672
-0.184859
21.8877
-0.233026
22.1074
-0.281934
22.3311
-0.331562
22.5588
-0.381886
22.7906
-0.432882
23.0264
-0.484526
23.2664
-0.536789
23.5104
-0.589646
23.7586
-0.643068
24.011
-0.697027
24.2676
-0.751492
24.5285
-0.806434
24.7936
-0.861821
25.063
-0.917623
25.3367
-0.973806
25.6148
-1.03034
25.8973
-1.08719
26.1842
-1.14432
26.4755
-1.2017
26.7713
-1.25929
27.0716
-1.31706
27.3764
-1.37498
27.6857
-1.43301
27.9995
-1.4911
28.3179
-1.54924
28.6408
-1.60737
28.9683
-1.66548
29.3004
-1.7235
29.6369
-1.78143
29.9783
-1.83919
30.3233
-1.89682
30.6757
-1.95406
31.0239
-2.01158
31.4035
-2.06713
-2.12762
31.7056
23.6699
1.77687
-24.3751
22.9753
1.69874
22.2985
1.62233
21.6466
1.54817
21.0277
1.47681
20.4498
1.40877
19.9201
1.34444
19.4446
1.28411
19.0266
1.22786
18.6674
1.1756
18.3659
1.12708
18.1192
1.08193
17.9232
1.03971
17.7731
0.999949
17.6639
0.962184
17.5906
0.925979
17.5487
0.890936
17.5341
0.856706
17.5431
0.822987
17.5726
0.789518
17.6199
0.756083
17.6827
0.722497
17.7591
0.688607
17.8474
0.654287
17.9463
0.61943
18.0545
0.583951
18.1712
0.54778
18.2955
0.510859
18.4268
0.473141
18.5644
0.434592
18.7079
0.395182
18.857
0.354891
19.0112
0.313704
19.1702
0.27161
19.334
0.228606
19.5023
0.18469
19.6749
0.139864
19.8517
0.0941341
20.0326
0.0475092
20.2176
0
20.4065
-0.04838
20.5994
-0.0976155
20.7962
-0.147689
20.997
-0.198581
21.2015
-0.250272
21.41
-0.302739
21.6224
-0.35596
21.8387
-0.409908
22.0589
-0.464558
22.283
-0.519884
22.5111
-0.575857
22.7432
-0.632448
22.9793
-0.689627
23.2194
-0.747365
23.4636
-0.805629
23.7119
-0.864387
23.9644
-0.923606
24.2209
-0.983253
24.4817
-1.04329
24.7467
-1.10369
25.0159
-1.16442
25.2894
-1.22543
25.5671
-1.28669
25.8491
-1.34817
26.1355
-1.40983
26.4262
-1.47162
26.7212
-1.53353
27.0206
-1.59549
27.3244
-1.65749
27.6326
-1.71947
27.9451
-1.7814
28.262
-1.84325
28.5833
-1.90497
28.9091
-1.96651
29.2385
-2.02789
29.5749
-2.08886
29.9075
-2.1501
30.2697
-2.20927
-2.27356
30.559
22.4318
1.8541
-23.095
21.7838
1.77337
21.1582
1.69486
20.5624
1.61911
20.0034
1.54666
19.4882
1.47795
19.0222
1.41328
18.6091
1.35279
18.2505
1.29643
17.9458
1.244
17.6929
1.19515
17.4884
1.14946
17.328
1.10646
17.2073
1.06568
17.1217
1.02667
17.067
0.989011
17.0392
0.952328
17.0348
0.916295
17.0509
0.88063
17.0848
0.845094
17.1342
0.809482
17.1972
0.773625
17.2722
0.737379
17.3577
0.700626
17.4528
0.663267
17.5563
0.625221
17.6674
0.586423
17.7855
0.546817
17.91
0.506361
18.0403
0.465021
18.1762
0.42277
18.3172
0.37959
18.4631
0.335466
18.6135
0.290391
18.7684
0.244361
18.9276
0.197375
19.0909
0.149438
19.2583
0.100556
19.4296
0.0507395
19.6048
0
19.7838
-0.0516477
19.9667
-0.104187
20.1533
-0.157599
20.3436
-0.211864
20.5378
-0.266959
20.7357
-0.322862
20.9373
-0.379546
21.1427
-0.436987
21.352
-0.495157
21.565
-0.554026
21.7819
-0.613566
22.0026
-0.673746
22.2272
-0.734533
22.4557
-0.795898
22.6882
-0.857804
22.9246
-0.92022
23.165
-0.983109
23.4094
-1.04644
23.6579
-1.11017
23.9104
-1.17427
24.167
-1.23869
24.4277
-1.30341
24.6925
-1.36838
24.9615
-1.43356
25.2346
-1.49892
25.5119
-1.56442
25.7934
-1.63001
26.0791
-1.69566
26.3689
-1.76133
26.663
-1.82697
26.9613
-1.89254
27.2639
-1.95801
27.5705
-2.02334
27.8816
-2.08846
28.1962
-2.15341
28.5173
-2.2179
28.835
-2.28266
29.1806
-2.34527
-2.41314
29.4577
21.2693
1.92435
-21.8884
20.6697
1.84185
20.0969
1.76207
19.5576
1.68556
19.058
1.61277
18.6032
1.54405
18.1969
1.47956
17.841
1.41931
17.5354
1.36313
17.2785
1.31071
17.0676
1.26165
16.8989
1.21549
16.7684
1.17176
16.6721
1.12999
16.606
1.08976
16.5664
1.05066
16.5499
1.01236
16.5537
0.974552
16.5752
0.936971
16.6122
0.899398
16.6627
0.861645
16.7253
0.823555
16.7985
0.784993
16.8811
0.74585
16.9722
0.706034
17.071
0.66547
17.1767
0.624095
17.2888
0.581858
17.4068
0.538721
17.5303
0.49465
17.6588
0.449622
17.7922
0.40362
17.9302
0.356631
18.0725
0.308648
18.2191
0.25967
18.3697
0.209696
18.5242
0.158734
18.6826
0.106789
18.8449
0.0538731
19.0108
0
19.1805
-0.0548149
19.3538
-0.110554
19.5307
-0.167196
19.7113
-0.224722
19.8956
-0.283106
20.0834
-0.342325
20.275
-0.402351
20.4701
-0.463159
20.669
-0.524717
20.8715
-0.586998
21.0777
-0.649968
21.2877
-0.713597
21.5014
-0.777851
21.7189
-0.842696
21.9402
-0.908097
22.1654
-0.974019
22.3943
-1.04042
22.6272
-1.10728
22.8639
-1.17454
23.1046
-1.24217
23.3492
-1.31014
23.5978
-1.37839
23.8503
-1.4469
24.1069
-1.51562
24.3674
-1.58451
24.632
-1.65353
24.9006
-1.72264
25.1732
-1.7918
25.4499
-1.86095
25.7306
-1.93007
26.0153
-1.99911
26.3042
-2.06802
26.597
-2.13677
26.894
-2.20529
27.1944
-2.27362
27.501
-2.34146
27.8046
-2.40955
28.1343
-2.47541
-2.54665
28.3999
20.1819
1.98867
-20.7551
19.6321
1.90523
19.1128
1.82501
18.6296
1.74848
18.1872
1.676
17.7894
1.60779
17.438
1.54388
17.1335
1.48415
16.8747
1.42832
16.6592
1.37601
16.4841
1.32678
16.3456
1.28018
16.2402
1.23572
16.1641
1.19296
16.114
1.15151
16.0866
1.11099
16.0792
1.07109
16.0893
1.03152
16.1148
0.992045
16.1539
0.952464
16.2049
0.912601
16.2664
0.872312
16.3375
0.831473
16.417
0.789982
16.5042
0.747754
16.5983
0.704717
16.6988
0.660816
16.8052
0.616003
16.917
0.57024
17.0338
0.523498
17.1555
0.475756
17.2817
0.426998
17.4121
0.377213
17.5468
0.326395
17.6854
0.274545
17.8279
0.221664
17.9742
0.167758
18.1242
0.112837
18.2778
0.0569129
18.435
0
18.5958
-0.0578847
18.7601
-0.116722
18.928
-0.176491
19.0993
-0.237169
19.2742
-0.298731
19.4526
-0.361152
19.6345
-0.424403
19.82
-0.488455
20.009
-0.553279
20.2015
-0.618843
20.3977
-0.685114
20.5975
-0.752059
20.8009
-0.819642
21.0079
-0.887829
21.2186
-0.956583
21.4331
-1.02587
21.6512
-1.09564
21.8731
-1.16587
22.0987
-1.23651
22.3282
-1.30753
22.5614
-1.37887
22.7984
-1.45051
23.0393
-1.5224
23.284
-1.59449
23.5326
-1.66675
23.7851
-1.73913
24.0414
-1.81159
24.3016
-1.88408
24.5657
-1.95656
24.8337
-2.02899
25.1056
-2.10131
25.3813
-2.1735
25.6609
-2.2455
25.9446
-2.31724
26.2315
-2.38877
26.5243
-2.45978
26.8143
-2.53102
27.129
-2.59997
-2.6744
27.3835
19.1687
2.04815
-19.6948
18.6695
1.96457
18.2032
1.88464
17.7744
1.80873
17.3863
1.73709
17.0411
1.66978
16.7393
1.60671
16.4803
1.54765
16.2621
1.49224
16.0822
1.44008
15.9374
1.39069
15.8243
1.34362
15.7396
1.29842
15.6802
1.25466
15.6431
1.21198
15.6256
1.17004
15.6254
1.12854
15.6404
1.08723
15.6688
1.04588
15.7091
1.00432
15.7599
0.962375
15.8201
0.919921
15.8888
0.876842
15.9652
0.833043
16.0484
0.788446
16.138
0.742985
16.2334
0.696607
16.3343
0.649269
16.4401
0.600937
16.5507
0.551583
16.6658
0.501188
16.7851
0.449739
16.9085
0.397226
17.0359
0.343645
17.167
0.288997
17.3019
0.233286
17.4403
0.176519
17.5824
0.118707
17.7279
0.0598616
17.8769
-1.21265e-07
18.0293
-0.0608601
18.1851
-0.122699
18.3443
-0.185493
18.507
-0.24922
18.673
-0.313853
18.8424
-0.379365
19.0152
-0.445727
19.1915
-0.512908
19.3712
-0.580878
19.5543
-0.649603
19.7409
-0.71905
19.931
-0.789183
20.1246
-0.859966
20.3217
-0.931362
20.5224
-1.00333
20.7267
-1.07584
20.9345
-1.14885
21.146
-1.22231
21.3611
-1.29618
21.5799
-1.37043
21.8023
-1.44501
22.0284
-1.51988
22.2581
-1.595
22.4916
-1.67031
22.7288
-1.74578
22.9698
-1.82136
23.2144
-1.89701
23.4628
-1.97268
23.715
-2.04832
23.9708
-2.1239
24.2304
-2.19935
24.4938
-2.27464
24.7608
-2.34972
25.0318
-2.42453
25.3058
-2.49909
25.5855
-2.57312
25.8626
-2.64734
26.163
-2.71922
-2.79663
26.4069
18.2283
2.10383
-18.7066
17.7794
2.02085
17.3647
1.94184
16.9874
1.86707
16.6496
1.79663
16.3522
1.73047
16.0945
1.66839
15.8753
1.61006
15.6921
1.5551
15.5424
1.50305
15.4231
1.45347
15.3312
1.4059
15.2637
1.35992
15.2179
1.31514
15.1914
1.27122
15.1818
1.22785
15.1872
1.18476
15.2058
1.14171
15.2362
1.09851
15.2771
1.05498
15.3273
1.01099
15.3859
0.966405
15.4521
0.921122
15.5252
0.875055
15.6045
0.828132
15.6897
0.780293
15.7802
0.731487
15.8758
0.681677
15.976
0.63083
16.0806
0.578922
16.1894
0.525936
16.3023
0.471859
16.419
0.416685
16.5395
0.360411
16.6635
0.303039
16.7912
0.244574
16.9222
0.185025
17.0567
0.124403
17.1946
0.062722
17.3358
0
17.4803
-0.0637444
17.6281
-0.12849
17.7791
-0.194212
17.9335
-0.260888
18.0911
-0.328488
18.2521
-0.396985
18.4163
-0.466349
18.5838
-0.536549
18.7547
-0.60755
18.9289
-0.67932
19.1065
-0.751822
19.2874
-0.825021
19.4717
-0.898879
19.6594
-0.973358
19.8506
-1.04842
20.0452
-1.12402
20.2433
-1.20012
20.4449
-1.27668
20.65
-1.35365
20.8586
-1.43099
21.0707
-1.50867
21.2864
-1.58662
21.5056
-1.66482
21.7284
-1.74321
21.9548
-1.82174
22.1848
-1.90038
22.4184
-1.97907
22.6555
-2.05776
22.8963
-2.13641
23.1406
-2.21498
23.3885
-2.29341
23.6401
-2.37165
23.8951
-2.44966
24.154
-2.52737
24.4157
-2.60482
24.6829
-2.68169
24.9478
-2.75874
25.2345
-2.83339
-2.91362
25.4683
17.3583
2.15671
-17.789
16.9583
2.07495
16.5927
1.99736
16.2635
1.92409
15.9715
1.8551
15.7166
1.79022
15.4977
1.72917
15.3128
1.67157
15.1595
1.61701
15.0353
1.56502
14.9373
1.51518
14.863
1.46706
14.8097
1.42026
14.775
1.37443
14.757
1.32925
14.7537
1.28444
14.7634
1.23976
14.7847
1.19499
14.8163
1.14995
14.8572
1.10449
14.9065
1.05847
14.9632
1.01178
15.0268
0.964333
15.0966
0.916038
15.1722
0.866832
15.2531
0.81666
15.3389
0.765476
15.4294
0.713245
15.5242
0.659938
15.6232
0.605533
15.7261
0.550015
15.8328
0.493374
15.9432
0.435605
16.0571
0.376706
16.1745
0.316681
16.2953
0.255536
16.4194
0.193282
16.5468
0.12993
16.6774
0.0654968
16.8112
0
16.9483
-0.0665401
17.0885
-0.134101
17.2318
-0.202658
17.3784
-0.272185
17.5281
-0.342654
17.681
-0.414034
17.8371
-0.486296
17.9963
-0.559405
18.1588
-0.633329
18.3246
-0.708031
18.4935
-0.783475
18.6658
-0.859623
18.8413
-0.936437
19.0201
-1.01388
19.2022
-1.0919
19.3877
-1.17047
19.5765
-1.24954
19.7687
-1.32906
19.9643
-1.409
20.1632
-1.48931
20.3656
-1.56994
20.5714
-1.65085
20.7806
-1.73199
20.9932
-1.81331
21.2093
-1.89477
21.4289
-1.97631
21.6519
-2.0579
21.8784
-2.13948
22.1083
-2.221
22.3417
-2.30241
22.5785
-2.38366
22.8188
-2.46471
23.0624
-2.5455
23.3097
-2.62597
23.5598
-2.70614
23.8151
-2.78572
24.0683
-2.86544
24.342
-2.94272
-3.02561
24.5662
16.5555
2.20768
-16.9398
16.2022
2.12761
15.8824
2.05181
15.597
1.98027
15.3461
1.91284
15.1287
1.84928
14.9433
1.78923
14.7878
1.7323
14.6598
1.67805
14.557
1.62605
14.4769
1.57588
14.417
1.52714
14.3753
1.47948
14.3498
1.43256
14.3386
1.3861
14.3401
1.33984
14.3531
1.29357
14.3763
1.24708
14.4086
1.20023
14.4491
1.15285
14.4971
1.10484
14.5518
1.05608
14.6127
1.0065
14.6793
0.956012
14.7511
0.904565
14.8278
0.852106
14.9092
0.798592
14.9948
0.743991
15.0845
0.688277
15.1781
0.631432
15.2754
0.573442
15.3763
0.514299
15.4807
0.453999
15.5885
0.392542
15.6996
0.329934
15.8139
0.266182
15.9314
0.201298
16.0521
0.135294
16.1759
0.0681886
16.3027
0
16.4327
-0.0692501
16.5657
-0.139538
16.7018
-0.210839
16.8409
-0.283124
16.9831
-0.356365
17.1284
-0.430531
17.2768
-0.505589
17.4283
-0.581506
17.5828
-0.658246
17.7405
-0.735773
17.9014
-0.814048
18.0654
-0.893034
18.2325
-0.972689
18.4029
-1.05297
18.5764
-1.13384
18.7532
-1.21526
18.9332
-1.29717
19.1165
-1.37954
19.303
-1.46232
19.4928
-1.54547
19.6859
-1.62893
19.8823
-1.71266
20.0819
-1.79661
20.2849
-1.88073
20.4913
-1.96498
20.7009
-2.04931
20.9139
-2.13365
21.1301
-2.21797
21.3498
-2.30222
21.5727
-2.38634
21.7989
-2.47028
22.0285
-2.55399
22.2613
-2.63743
22.4976
-2.72052
22.7366
-2.80328
22.9806
-2.88541
23.2226
-2.96767
23.4839
-3.04745
-3.13282
23.6989
15.816
2.25747
-16.1561
15.5063
2.17945
15.2284
2.10564
14.9824
2.03593
14.7677
1.97008
14.5829
1.90779
14.4263
1.84866
14.2958
1.7923
14.1892
1.73826
14.1042
1.68616
14.0388
1.63558
13.991
1.58616
13.9587
1.53758
13.9405
1.48955
13.9347
1.44179
13.9401
1.39407
13.9555
1.34621
13.9799
1.29802
14.0123
1.24936
14.0521
1.20009
14.0986
1.15011
14.1512
1.09931
14.2094
1.04763
14.2728
0.994998
14.341
0.941352
14.4137
0.88665
14.4907
0.830853
14.5717
0.773933
14.6566
0.715866
14.7451
0.656637
14.8371
0.596232
14.9325
0.534648
15.0312
0.47188
15.1332
0.407932
15.2383
0.342809
15.3465
0.276521
15.4578
0.209079
15.5721
0.1405
15.6894
0.0707998
15.8097
0
15.933
-0.0718772
16.0592
-0.144807
16.1884
-0.218764
16.3206
-0.293717
16.4557
-0.369638
16.5938
-0.446495
16.7348
-0.524253
16.8789
-0.602878
17.026
-0.682334
17.1761
-0.762582
17.3292
-0.843584
17.4854
-0.925299
17.6446
-1.00769
17.8069
-1.09071
17.9724
-1.17431
18.1409
-1.25846
18.3125
-1.3431
18.4873
-1.4282
18.6652
-1.5137
18.8463
-1.59956
19.0306
-1.68573
19.218
-1.77215
19.4086
-1.85879
19.6025
-1.94559
19.7995
-2.03251
19.9997
-2.11948
20.2031
-2.20646
20.4097
-2.2934
20.6195
-2.38024
20.8325
-2.46694
21.0487
-2.55343
21.268
-2.63968
21.4905
-2.72562
21.7163
-2.81119
21.9448
-2.89641
22.1779
-2.98097
22.4093
-3.06563
22.6589
-3.14777
-3.23549
22.865
15.1352
2.30669
-15.4338
14.8655
2.23091
14.6253
2.15918
14.4142
2.0913
14.231
2.02697
14.0743
1.96584
13.9423
1.90752
13.8328
1.8516
13.7441
1.79768
13.6741
1.74536
13.6209
1.69429
13.5828
1.64414
13.5583
1.5946
13.5459
1.54541
13.5444
1.49633
13.5527
1.44715
13.5698
1.3977
13.5948
1.34782
13.6271
1.29737
13.6659
1.24623
13.7108
1.1943
13.7612
1.1415
13.8167
1.08776
13.8769
1.03301
13.9416
0.977211
14.0105
0.92031
14.0833
0.862279
14.1599
0.803089
14.2401
0.742722
14.3238
0.681163
14.4108
0.618402
14.501
0.554435
14.5944
0.489262
14.6909
0.422886
14.7903
0.355316
14.8928
0.28656
14.9982
0.216633
15.1065
0.145551
15.2177
0.073333
15.3318
-1.21165e-07
15.4487
-0.074424
15.5685
-0.149913
15.6912
-0.226441
15.8167
-0.303976
15.9451
-0.382488
16.0764
-0.461944
16.2106
-0.542309
16.3476
-0.623547
16.4876
-0.705621
16.6305
-0.788492
16.7763
-0.872119
16.925
-0.956462
17.0768
-1.04148
17.2314
-1.12712
17.3891
-1.21335
17.5498
-1.30013
17.7135
-1.38739
17.8803
-1.4751
18.05
-1.56321
18.2228
-1.65167
18.3987
-1.74043
18.5776
-1.82943
18.7597
-1.91864
18.9447
-2.008
19.1329
-2.09745
19.3241
-2.18695
19.5184
-2.27644
19.7158
-2.36587
19.9163
-2.45519
20.1198
-2.54434
20.3264
-2.63327
20.5361
-2.72192
20.7487
-2.81025
20.9645
-2.89817
21.1829
-2.98572
21.4058
-3.07259
21.6271
-3.15951
21.8655
-3.2439
-3.33383
22.0632
14.5082
2.35579
-14.7687
14.2745
2.28232
14.0678
2.21265
13.8872
2.14652
13.7313
2.08359
13.5985
2.02349
13.4872
1.96583
13.3956
1.91022
13.3217
1.85629
13.264
1.80367
13.2209
1.75203
13.1909
1.70107
13.1726
1.65053
13.1649
1.60015
13.1667
1.54974
13.1772
1.4991
13.1954
1.44806
13.2207
1.39649
13.2524
1.34427
13.2901
1.29128
13.3332
1.23744
13.3813
1.18267
13.4341
1.1269
13.4913
1.07008
13.5526
1.01216
13.6178
0.953106
13.6867
0.892886
13.7591
0.831477
13.835
0.768861
13.914
0.705026
13.9963
0.639965
14.0816
0.573675
14.1699
0.506158
14.2611
0.437418
14.3553
0.367464
14.4523
0.296308
14.5521
0.223966
14.6548
0.150453
14.7602
0.0757902
14.8684
0
14.9794
-0.076893
15.0931
-0.154862
15.2096
-0.233878
15.3289
-0.313911
15.4509
-0.394928
15.5757