/*--------------------------------*- C++ -*----------------------------------*\
| =========                 |                                                 |
| \\      /  F ield         | OpenFOAM: The Open Source CFD Toolbox           |
|  \\    /   O peration     | Version:  2312                                  |
|   \\  /    A nd           | Website:  www.openfoam.com                      |
|    \\/     M anipulation  |                                                 |
\*---------------------------------------------------------------------------*/
FoamFile
{
    version     2.0;
    format      ascii;
    arch        "LSB;label=32;scalar=64";
    class       surfaceScalarField;
    location    "0.278";
    object      phi;
}
// * * * * * * * * * * * * * * * * * * * * * * * * * * * * * * * * * * * * * //

dimensions      [0 3 -1 0 0 0 0];

oriented        oriented;

internalField   nonuniform List<scalar> 
62015
(
68.8089
0.134159
-69.6753
67.9254
0.129993
67.0237
0.125792
66.1027
0.12156
65.1607
0.117299
64.1962
0.113013
63.2072
0.108706
62.1917
0.104379
61.147
0.100036
60.0704
0.0956816
58.9587
0.0913175
57.8079
0.0869471
56.6136
0.0825733
55.3706
0.0781989
54.0725
0.0738266
52.7117
0.0694586
51.2794
0.0650977
49.7646
0.0607454
48.1547
0.0564038
46.4357
0.0520761
44.5961
0.0477684
42.6368
0.0434971
40.5865
0.0393013
38.514
0.03525
36.5227
0.0314348
34.7237
0.0279431
33.2006
0.0248244
31.9897
0.0220765
31.0819
0.0196538
30.4397
0.0174897
30.0156
0.0155157
29.7633
0.0136728
29.6439
0.0119147
29.6263
0.0102063
29.6871
0.00852295
29.8088
0.00684616
29.978
0.00516348
30.185
0.00346568
30.4224
0.00174596
30.6844
0
30.9668
-0.00177568
31.2661
-0.00358355
31.5796
-0.00542482
31.9052
-0.00730074
32.2412
-0.00921194
32.5863
-0.0111582
32.9393
-0.0131401
33.2993
-0.0151567
33.6655
-0.0172079
34.0373
-0.0192932
34.4142
-0.0214115
34.7957
-0.0235621
35.1814
-0.025744
35.5711
-0.0279564
35.9645
-0.0301979
36.3614
-0.0324676
36.7615
-0.034764
37.1647
-0.037086
37.5709
-0.0394323
37.9799
-0.0418014
38.3917
-0.0441921
38.8062
-0.0466029
39.2232
-0.0490323
39.6427
-0.0514787
40.0648
-0.053941
40.4892
-0.0564172
40.916
-0.058906
41.3452
-0.0614058
41.7767
-0.0639149
42.2105
-0.0664318
42.6465
-0.0689549
43.0849
-0.0714821
43.5253
-0.0740129
43.9685
-0.0765435
44.412
-0.079077
44.8635
-0.0815981
45.2992
-0.084147
45.7923
-0.0865914
-0.0893387
46.1185
65.9791
0.261182
-66.8185
65.1226
0.253033
64.2485
0.244818
63.3557
0.236542
62.4425
0.22821
61.5073
0.219831
60.5483
0.211409
59.5632
0.20295
58.5497
0.194462
57.5049
0.185949
56.4256
0.177418
55.3079
0.168874
54.1473
0.160323
52.9386
0.15177
51.6754
0.143221
50.3504
0.134679
48.9544
0.126148
47.477
0.117634
45.9059
0.10914
44.2291
0.100675
42.4394
0.092257
40.546
0.0839338
38.588
0.0758008
36.641
0.0680085
34.8053
0.060734
33.1771
0.0541222
31.82
0.0482346
30.7539
0.043038
29.9614
0.0384302
29.4046
0.0342825
29.0397
0.0304691
28.8257
0.0268847
28.7288
0.0234471
28.7221
0.0200955
28.7854
0.0167851
28.9033
0.013484
29.0642
0.0101693
29.2596
0.00682438
29.4828
0.00343749
29.7288
0
29.9936
-0.00349419
30.2742
-0.00704932
30.5682
-0.0106684
30.8736
-0.0143532
31.1889
-0.0181046
31.5128
-0.0219232
31.8442
-0.0258086
32.1823
-0.0297607
32.5265
-0.0337781
32.876
-0.03786
33.2305
-0.0420046
33.5894
-0.0462107
33.9525
-0.050476
34.3195
-0.0547989
34.69
-0.059177
35.0639
-0.0636083
35.4411
-0.0680905
35.8213
-0.0726208
36.2043
-0.077197
36.5902
-0.0818164
36.9788
-0.0864763
37.3701
-0.0911739
37.7638
-0.0959066
38.1601
-0.100671
38.5587
-0.105465
38.9598
-0.110285
39.3632
-0.115129
39.7689
-0.119992
40.1769
-0.124873
40.5871
-0.129767
40.9996
-0.134673
41.4143
-0.139586
41.831
-0.144504
42.2504
-0.149422
42.6702
-0.154344
43.0976
-0.159241
43.5104
-0.16419
43.9766
-0.16894
-0.174261
44.2889
63.218
0.381159
-64.0323
62.387
0.369205
61.539
0.357155
60.6726
0.345016
59.7863
0.332798
58.8785
0.32051
57.9473
0.308159
56.9906
0.295756
56.0059
0.283309
54.9903
0.270826
53.9406
0.258316
52.853
0.245786
51.7229
0.233246
50.545
0.220701
49.313
0.208158
48.0195
0.195625
46.6555
0.183107
45.2107
0.17061
43.6741
0.158144
42.0361
0.145726
40.296
0.133401
38.4727
0.121263
36.6159
0.109483
34.8054
0.0982989
33.1339
0.0879511
31.6803
0.0786051
30.4884
0.0702973
29.5634
0.0629408
28.882
0.0563737
28.407
0.0504119
28.0988
0.0448858
27.9219
0.039656
27.8471
0.0346146
27.8516
0.0296817
27.9179
0.0247987
28.0329
0.0199236
28.1867
0.0150255
28.3716
0.0100821
28.5819
0.00507747
28.8131
0
29.0617
-0.0051587
29.325
-0.0104045
29.6008
-0.0157415
29.8873
-0.021172
30.1832
-0.0266975
30.4872
-0.0323187
30.7984
-0.0380351
31.116
-0.0438461
31.4394
-0.0497502
31.768
-0.0557459
32.1013
-0.0618309
32.439
-0.0680031
32.7807
-0.0742596
33.1262
-0.0805977
33.4752
-0.0870144
33.8274
-0.0935064
34.1829
-0.10007
34.5413
-0.106703
34.9025
-0.1134
35.2666
-0.120158
35.6332
-0.126973
36.0025
-0.133842
36.3742
-0.140759
36.7484
-0.147722
37.125
-0.154725
37.5039
-0.161765
37.8851
-0.168837
38.2686
-0.175937
38.6543
-0.18306
39.0422
-0.190202
39.4323
-0.197358
39.8246
-0.204524
40.2188
-0.211695
40.6157
-0.218865
41.0131
-0.226038
41.4175
-0.233176
41.8086
-0.240385
42.2493
-0.247311
-0.255043
42.5474
60.5459
0.494304
-61.3363
59.7393
0.478716
58.9161
0.463003
58.0748
0.447176
57.214
0.431247
56.3321
0.415227
55.4272
0.399126
54.4971
0.382957
53.5394
0.366731
52.5511
0.350457
51.529
0.334147
50.4693
0.31781
49.3672
0.301457
48.2176
0.285096
47.014
0.268736
45.749
0.252384
44.4138
0.236049
42.9988
0.219742
41.4944
0.203478
39.8951
0.187294
38.2078
0.171277
36.4621
0.155588
34.7159
0.140487
33.0495
0.126285
31.5444
0.113257
30.2609
0.101547
29.225
0.0911385
28.4305
0.081879
27.8506
0.0735499
27.4499
0.0659229
27.1933
0.0587965
27.0502
0.0520079
26.9958
0.0454322
27.0107
0.0389767
27.0801
0.0325731
27.1927
0.0261721
27.34
0.0197373
27.5154
0.0132424
27.7139
0.00666793
27.9315
0
28.1652
-0.0067715
28.4125
-0.0136537
28.6714
-0.0206515
28.9404
-0.0277677
29.2181
-0.0350047
29.5035
-0.0423622
29.7958
-0.0498404
30.0942
-0.0574382
30.3981
-0.0651537
30.7071
-0.072985
31.0206
-0.0809292
31.3383
-0.0889832
31.6599
-0.0971439
31.9851
-0.105407
32.3138
-0.11377
32.6457
-0.122228
32.9806
-0.130776
33.3185
-0.13941
33.6592
-0.148125
34.0025
-0.156917
34.3485
-0.16578
34.697
-0.17471
35.0479
-0.183701
35.4013
-0.192748
35.7569
-0.201846
36.1149
-0.210988
36.4751
-0.22017
36.8375
-0.229386
37.2022
-0.238629
37.5689
-0.247896
37.9378
-0.257178
38.3089
-0.266471
38.6819
-0.275769
39.0574
-0.285063
39.4335
-0.29436
39.8163
-0.30361
40.1867
-0.312947
40.6035
-0.321925
-0.33192
40.887
57.9695
0.600856
-58.7367
57.1864
0.581798
56.3869
0.562589
55.5698
0.543243
54.7335
0.523772
53.8764
0.50419
52.9965
0.48451
52.0918
0.464747
51.1597
0.444912
50.1973
0.425019
49.2013
0.40508
48.1677
0.385106
47.092
0.365109
45.9687
0.345099
44.7916
0.325087
43.5532
0.305081
42.2451
0.285094
40.8585
0.265142
39.3864
0.245255
37.8287
0.225505
36.2009
0.206035
34.5422
0.187095
32.9161
0.169028
31.3982
0.152196
30.0564
0.136867
28.9331
0.123133
28.0394
0.110901
27.3614
0.0999562
26.8709
0.0900305
26.5353
0.0808639
26.3237
0.0722335
26.21
0.0639624
26.1733
0.0559151
26.1971
0.0479911
26.2689
0.040116
26.3791
0.0322353
26.5203
0.0243093
26.6869
0.0163081
26.8743
0.00821022
27.0793
0
27.299
-0.00833408
27.5314
-0.0168002
27.7745
-0.0254038
28.0271
-0.0341482
28.2879
-0.0430357
28.556
-0.0520666
28.8305
-0.0612405
29.1109
-0.0705559
29.3966
-0.0800111
29.687
-0.0896033
29.9819
-0.0993291
30.2808
-0.109185
30.5835
-0.119167
30.8897
-0.129271
31.1992
-0.139491
31.5119
-0.149824
31.8276
-0.160263
32.1461
-0.170804
32.4673
-0.18144
32.7912
-0.192166
33.1176
-0.202975
33.4465
-0.213863
33.7778
-0.224822
34.1114
-0.235846
34.4473
-0.246928
34.7855
-0.258063
35.1258
-0.269242
35.4683
-0.280461
35.813
-0.29171
36.1598
-0.302983
36.5086
-0.314275
36.8596
-0.325576
37.2124
-0.336882
37.5677
-0.348179
37.9236
-0.359478
38.2858
-0.370719
38.6365
-0.38206
39.0309
-0.39297
-0.40509
39.3002
55.489
0.701048
-56.2338
54.7286
0.67868
53.9521
0.656136
53.1582
0.633431
52.3454
0.61058
51.5121
0.5876
50.6563
0.564505
49.7758
0.541311
48.8682
0.518032
47.9304
0.494683
46.9592
0.471278
45.9505
0.447829
44.8997
0.424349
43.8014
0.40085
42.6492
0.377343
41.4361
0.353842
40.154
0.330362
38.7958
0.30693
37.358
0.283605
35.8471
0.260507
34.2875
0.237859
32.726
0.216001
31.2272
0.195347
29.8588
0.176271
28.6733
0.158996
27.6973
0.143533
26.9308
0.129715
26.3549
0.117265
25.9417
0.10588
25.6619
0.0952783
25.4889
0.0852265
25.4003
0.0755397
25.3785
0.0660776
25.4096
0.0567353
25.483
0.0474349
25.5905
0.038119
25.7257
0.0287452
25.8838
0.019282
26.0609
0.00970588
26.254
0
26.4607
-0.00984812
26.679
-0.0198473
26.9074
-0.0300035
27.1446
-0.0403206
27.3895
-0.0508004
27.6413
-0.0614438
27.8993
-0.0722498
28.1628
-0.083217
28.4313
-0.0943431
28.7044
-0.105625
28.9817
-0.117058
29.263
-0.12864
29.5478
-0.140364
29.8362
-0.152226
30.1277
-0.164221
30.4222
-0.176343
30.7197
-0.188585
31.02
-0.200942
31.3229
-0.213406
31.6283
-0.225972
31.9363
-0.238632
32.2467
-0.251379
32.5594
-0.264206
32.8744
-0.277105
33.1916
-0.290069
33.511
-0.30309
33.8326
-0.316161
34.1563
-0.329273
34.4821
-0.342419
34.8099
-0.35559
35.1398
-0.368779
35.4717
-0.381976
35.8054
-0.395176
36.1416
-0.408363
36.4783
-0.421549
36.8211
-0.434665
37.1531
-0.447892
37.5262
-0.460624
-0.474736
37.7818
53.1021
0.795101
-53.8252
52.3636
0.769575
51.6093
0.74385
50.8378
0.717942
50.0477
0.691868
49.2372
0.665646
48.4045
0.639293
47.5473
0.612825
46.663
0.586258
45.7488
0.559609
44.8011
0.532892
43.816
0.506122
42.7889
0.479312
41.7142
0.452475
40.5859
0.425626
39.397
0.398781
38.1407
0.371965
36.8121
0.345226
35.4124
0.318663
33.9554
0.292466
32.4735
0.26695
31.0183
0.242541
29.6515
0.219688
28.4298
0.198738
27.391
0.179835
26.5484
0.1629
25.894
0.14769
25.4065
0.133883
25.0597
0.121152
24.8275
0.109204
24.6871
0.0978013
24.6197
0.0867585
24.6102
0.0759331
24.6472
0.065219
24.7214
0.0545374
24.8259
0.0438288
24.9552
0.0330496
25.1053
0.0221668
25.2725
0.0111563
25.4545
0
25.6489
-0.0113151
25.854
-0.0227982
26.0686
-0.0344558
26.2914
-0.0462917
26.5214
-0.0583082
26.7579
-0.0705054
27.0003
-0.0828827
27.2479
-0.0954386
27.5003
-0.10817
27.7571
-0.121073
28.0179
-0.134144
28.2825
-0.147378
28.5506
-0.160769
28.8221
-0.174313
29.0966
-0.188003
29.3741
-0.201831
29.6545
-0.215793
29.9375
-0.22988
30.2231
-0.244085
30.5112
-0.258401
30.8017
-0.272819
31.0946
-0.287332
31.3898
-0.301932
31.6872
-0.31661
31.9867
-0.331358
32.2885
-0.346167
32.5923
-0.361028
32.8981
-0.375933
33.2061
-0.390872
33.516
-0.405836
33.8279
-0.420817
34.1417
-0.435804
34.4574
-0.45079
34.7754
-0.465759
35.0941
-0.480723
35.4184
-0.495606
35.7327
-0.510608
36.0857
-0.525056
-0.541035
36.3282
50.8055
0.883222
-51.5077
50.0882
0.854685
49.3553
0.825927
48.6054
0.796964
47.8371
0.767817
47.0486
0.738503
46.238
0.70904
45.403
0.679448
44.5411
0.649743
43.6493
0.619942
42.724
0.590061
41.7614
0.560116
40.7567
0.530121
39.7046
0.500092
38.5991
0.470045
37.434
0.440006
36.204
0.410015
34.9074
0.380153
33.5512
0.350579
32.1564
0.321571
30.7619
0.293536
29.4202
0.266961
28.1868
0.242292
27.1061
0.219809
26.2026
0.199555
25.479
0.181361
24.9225
0.164919
24.5112
0.149876
24.221
0.135891
24.0292
0.122672
23.9164
0.109981
23.8667
0.0976348
23.8674
0.0854936
23.9088
0.0734519
23.9831
0.0614305
24.0844
0.0493701
24.2081
0.0372261
24.3503
0.0249652
24.5083
0.0125627
24.6797
0
24.8625
-0.0127364
25.0554
-0.0256561
25.2569
-0.0387656
25.4661
-0.0520689
25.6822
-0.065568
25.9044
-0.0792632
26.1321
-0.0931539
26.3647
-0.107237
26.602
-0.121511
26.8435
-0.135971
27.0888
-0.150612
27.3378
-0.165429
27.5901
-0.180416
27.8457
-0.195568
28.1042
-0.210876
28.3657
-0.226335
28.6298
-0.241936
28.8966
-0.257672
29.1659
-0.273534
29.4376
-0.289515
29.7117
-0.305605
29.9881
-0.321796
30.2667
-0.338079
30.5474
-0.354445
30.8303
-0.370883
31.1153
-0.387386
31.4023
-0.403942
31.6914
-0.420542
31.9824
-0.437177
32.2753
-0.453836
32.5702
-0.470509
32.867
-0.487185
33.1656
-0.503857
33.4664
-0.520506
33.7679
-0.537146
34.0748
-0.553692
34.3723
-0.570364
34.7062
-0.586428
-0.604156
34.9364
48.596
0.965607
-49.2779
47.8991
0.934201
47.1868
0.902552
46.4577
0.870677
45.7103
0.838598
44.9429
0.806335
44.1535
0.773906
43.3397
0.741332
42.4991
0.70863
41.6286
0.675818
40.7247
0.642913
39.7834
0.609932
38.8001
0.57689
37.7695
0.543807
36.6862
0.510706
35.545
0.477624
34.3428
0.444629
33.0822
0.411852
31.7762
0.379531
30.4527
0.348039
29.154
0.317864
27.9305
0.289515
26.8287
0.263393
25.8809
0.239677
25.1
0.218305
24.4817
0.199024
24.01
0.18148
23.664
0.165298
23.422
0.150138
23.2644
0.13571
23.1749
0.121785
23.1399
0.108184
23.149
0.0947706
23.1937
0.0814424
23.2676
0.0681211
23.3655
0.0547481
23.4835
0.0412788
23.6183
0.0276802
23.7675
0.0139267
23.9289
0
24.1009
-0.0141137
24.2821
-0.0284241
24.4714
-0.0429377
24.668
-0.0576587
24.8709
-0.0725888
25.0796
-0.0877284
25.2935
-0.103076
25.5122
-0.11863
25.7352
-0.134386
25.9623
-0.15034
26.193
-0.166487
26.4273
-0.182821
26.6648
-0.199337
26.9054
-0.216026
27.1489
-0.232881
27.3951
-0.249896
27.6441
-0.267061
27.8955
-0.284368
28.1494
-0.301809
28.4057
-0.319374
28.6642
-0.337055
28.925
-0.35484
29.188
-0.372721
29.453
-0.390687
29.7202
-0.408729
29.9893
-0.426836
30.2605
-0.444997
30.5336
-0.463202
30.8086
-0.48144
31.0855
-0.499701
31.3643
-0.517972
31.645
-0.536242
31.9274
-0.554504
32.2119
-0.572736
32.4972
-0.590954
32.7875
-0.609067
33.0692
-0.62731
33.385
-0.644896
-0.664262
33.6034
46.4702
1.04245
-47.1325
45.793
1.0083
45.1005
0.9739
44.3913
0.939249
43.664
0.904375
42.9168
0.869298
42.1476
0.834039
41.3541
0.798617
40.5338
0.763052
39.6836
0.727363
38.8
0.691566
37.8789
0.655681
36.916
0.619726
35.9063
0.583725
34.845
0.547713
33.7285
0.511747
32.5569
0.475939
31.3376
0.440489
30.0898
0.405726
28.8462
0.372115
27.65
0.340195
26.5462
0.310454
25.5715
0.283204
24.7466
0.258512
24.0756
0.236212
23.5493
0.215981
23.1508
0.197436
22.8604
0.180195
22.6593
0.163923
22.5307
0.148342
22.4607
0.13323
22.438
0.118418
22.4537
0.103774
22.5009
0.0891985
22.5738
0.0746157
22.6683
0.059968
22.7808
0.0452117
22.9085
0.0303139
23.0493
0.0152495
23.2013
0
23.3631
-0.0154483
23.5334
-0.0311052
23.7113
-0.0469771
23.8959
-0.0630678
24.0866
-0.0793794
24.2826
-0.0959117
24.4836
-0.112663
24.6891
-0.129632
24.8987
-0.146813
25.1122
-0.164202
25.3293
-0.181794
25.5497
-0.199583
25.7732
-0.217561
25.9997
-0.235721
26.229
-0.254056
26.461
-0.272556
26.6956
-0.291214
26.9326
-0.31002
27.172
-0.328964
27.4136
-0.348037
27.6575
-0.367229
27.9036
-0.38653
28.1518
-0.405928
28.402
-0.425414
28.6542
-0.444976
28.9085
-0.464603
29.1646
-0.484284
29.4226
-0.504007
29.6826
-0.523761
29.9443
-0.543534
30.2079
-0.563315
30.4733
-0.58309
30.7404
-0.60285
31.0095
-0.622576
31.2793
-0.64228
31.554
-0.661868
31.8206
-0.681587
32.1193
-0.700607
-0.721505
32.3267
44.4249
1.11391
-45.0684
43.7666
1.07717
43.0931
1.04014
42.4031
1.00284
41.695
0.9653
40.967
0.927538
40.2171
0.889577
39.443
0.851436
38.642
0.813135
37.8111
0.774695
36.9467
0.736133
36.0451
0.697471
35.1018
0.658733
34.1126
0.61995
33.0737
0.581175
31.9839
0.542502
30.8469
0.504102
29.6755
0.466261
28.4941
0.429404
27.3382
0.394068
26.2487
0.360797
25.2634
0.330016
24.4085
0.301923
23.6954
0.276464
23.1217
0.253382
22.6753
0.232309
22.3395
0.212842
22.0966
0.194605
21.9301
0.177276
21.8259
0.160588
21.7723
0.144334
21.7597
0.128351
21.7808
0.112514
21.8295
0.0967282
21.9012
0.0809203
21.9921
0.0650344
22.0993
0.0490281
22.2203
0.0328691
22.3531
0.0165324
22.4963
0
22.6484
-0.0167417
22.8085
-0.0337023
22.9757
-0.0508879
23.1491
-0.0683026
23.3281
-0.0859478
23.5123
-0.103823
23.7012
-0.121928
23.8943
-0.140258
24.0914
-0.158809
24.2921
-0.177577
24.4963
-0.196556
24.7036
-0.215739
24.914
-0.235118
25.1272
-0.254686
25.3432
-0.274435
25.5617
-0.294355
25.7827
-0.314437
26.0061
-0.334671
26.2318
-0.355048
26.4598
-0.375557
26.6898
-0.396187
26.922
-0.416928
27.1562
-0.437768
27.3925
-0.458695
27.6306
-0.479699
27.8707
-0.500766
28.1127
-0.521886
28.3565
-0.543046
28.6021
-0.564234
28.8495
-0.585437
29.0987
-0.606642
29.3496
-0.627837
29.6022
-0.649011
29.8568
-0.670144
30.112
-0.691247
30.3719
-0.712224
30.6243
-0.733332
30.9068
-0.753701
-0.776031
31.1036
42.457
1.18019
-43.0825
41.8169
1.14096
41.1617
1.10142
40.49
1.0616
39.8003
1.02152
39.0907
0.981194
38.3592
0.940652
37.6034
0.899913
36.8208
0.858998
36.0082
0.817927
35.1622
0.776721
34.2791
0.735405
33.355
0.694011
32.3864
0.652587
31.3712
0.611214
30.3111
0.570038
29.2141
0.529307
28.0981
0.489403
26.9912
0.450837
25.9289
0.414179
24.9476
0.379935
24.0764
0.348425
23.3326
0.319721
22.7198
0.293656
22.2312
0.269906
21.8537
0.248069
21.5715
0.227742
21.3689
0.208562
21.2317
0.19022
21.1481
0.172468
21.1081
0.15511
21.1039
0.137993
21.1292
0.120999
21.1789
0.104039
21.249
0.0870408
21.3364
0.0699523
21.4383
0.0527318
21.5528
0.0353479
21.6782
0.0177766
21.813
0
21.9561
-0.0179951
22.1066
-0.036218
22.2636
-0.0546747
22.4265
-0.073369
22.5947
-0.0923021
22.7678
-0.111473
22.9452
-0.130881
23.1267
-0.150522
23.312
-0.170392
23.5008
-0.190485
23.6928
-0.210795
23.8879
-0.231315
24.0859
-0.252037
24.2866
-0.272952
24.49
-0.294053
24.6959
-0.315329
24.9041
-0.336771
25.1147
-0.358368
25.3275
-0.380111
25.5424
-0.401987
25.7595
-0.423985
25.9785
-0.446095
26.1996
-0.468304
26.4226
-0.490599
26.6474
-0.51297
26.8742
-0.535403
27.1028
-0.557886
27.3331
-0.580405
27.5652
-0.602949
27.7991
-0.625503
28.0346
-0.648054
28.2719
-0.670589
28.5107
-0.693096
28.7515
-0.715553
28.993
-0.737975
29.2389
-0.760259
29.4777
-0.782672
29.7449
-0.804311
-0.82798
29.9316
40.5636
1.24142
-41.1717
39.9409
1.19983
39.3032
1.1579
38.649
1.11568
37.9768
1.07317
37.2847
1.0304
36.5707
0.987388
35.8324
0.944166
35.0672
0.90075
34.2721
0.857163
33.4437
0.813431
32.5787
0.769584
31.6738
0.725667
30.7266
0.681754
29.7374
0.637972
28.7113
0.594534
27.6608
0.551781
26.6078
0.510186
25.5822
0.470317
24.6171
0.432732
23.7425
0.397854
22.9792
0.365876
22.3364
0.336742
21.8124
0.310194
21.3978
0.285856
21.0794
0.263314
20.8428
0.242175
20.6742
0.222092
20.5618
0.202776
20.4955
0.183996
20.4669
0.16557
20.4696
0.147354
20.4981
0.129238
20.5483
0.111136
20.6166
0.0929828
20.7003
0.0747259
20.7973
0.0563261
20.9056
0.0377529
21.0239
0.0189833
21.1508
0
21.2854
-0.0192098
21.4269
-0.0386552
21.5744
-0.0583418
21.7274
-0.0782728
21.8855
-0.0984496
22.048
-0.118871
22.2148
-0.139536
22.3854
-0.160439
22.5595
-0.181577
22.737
-0.202943
22.9177
-0.224531
23.1012
-0.246333
23.2876
-0.268342
23.4766
-0.290548
23.6681
-0.312942
23.862
-0.335515
24.0583
-0.358255
24.2567
-0.381153
24.4573
-0.404197
24.6601
-0.427374
24.8648
-0.450675
25.0715
-0.474087
25.2801
-0.497596
25.4906
-0.521191
25.7029
-0.544859
25.9171
-0.568586
26.133
-0.592359
26.3506
-0.616166
26.57
-0.639991
26.791
-0.663821
27.0137
-0.687644
27.238
-0.711442
27.4639
-0.735207
27.6916
-0.758913
27.92
-0.782575
28.1526
-0.80609
28.3787
-0.829728
28.6314
-0.852563
-0.877483
28.8086
38.7418
1.29777
-39.3333
38.1358
1.25392
37.5147
1.20972
36.8773
1.1652
36.2217
1.12037
35.5463
1.07526
34.8489
1.0299
34.1273
0.984302
33.3787
0.938496
32.6003
0.892505
31.789
0.846362
30.9419
0.80011
30.0566
0.753815
29.1326
0.70759
28.1728
0.661622
27.1862
0.616212
26.1893
0.571792
25.2065
0.52891
24.2672
0.488147
23.4001
0.450002
22.6282
0.414779
21.9648
0.382538
21.4126
0.353108
20.9663
0.32616
20.6156
0.301291
20.3476
0.278087
20.1497
0.256172
20.01
0.23522
19.9184
0.214963
19.8666
0.195189
19.8476
0.175727
19.8558
0.156444
19.8867
0.137238
19.9368
0.118028
20.0032
0.0987518
20.0833
0.0793596
20.1755
0.059814
20.278
0.0400862
20.3895
0.0201537
20.509
0
20.6357
-0.0203872
20.7686
-0.0410163
20.9072
-0.0618929
21.051
-0.0830197
21.1995
-0.104398
21.3522
-0.126026
21.5089
-0.147902
21.6692
-0.170021
21.833
-0.192379
21.9999
-0.214969
22.1698
-0.237785
22.3425
-0.260818
22.5179
-0.28406
22.6959
-0.307502
22.8762
-0.331134
23.0589
-0.354946
23.2438
-0.378926
23.4309
-0.403065
23.62
-0.427349
23.8112
-0.451768
24.0043
-0.476308
24.1993
-0.500958
24.3962
-0.525703
24.5949
-0.550532
24.7954
-0.57543
24.9977
-0.600384
25.2016
-0.62538
25.4072
-0.650404
25.6145
-0.675441
25.8234
-0.700478
26.0339
-0.7255
26.246
-0.750492
26.4596
-0.775441
26.675
-0.800324
26.8911
-0.825155
27.1111
-0.849826
27.3251
-0.874616
27.564
-0.898576
-0.924664
27.7322
36.9887
1.34938
-37.5643
36.3986
1.30338
35.7935
1.25701
35.1719
1.21029
34.5323
1.16325
33.8727
1.11591
33.1912
1.06829
32.4854
1.02043
31.7527
0.972335
30.9904
0.924051
30.196
0.875617
29.3671
0.827096
28.5028
0.778588
27.6046
0.730259
26.6789
0.682377
25.7381
0.635333
24.8018
0.589643
23.8951
0.54589
23.0447
0.504623
22.274
0.466238
21.5989
0.430904
21.0261
0.39855
20.554
0.368914
20.1753
0.341622
19.8793
0.316258
19.6542
0.292422
19.489
0.269758
19.3737
0.247966
19.2997
0.226798
19.26
0.206058
19.2489
0.185591
19.2615
0.165273
19.2943
0.145008
19.344
0.124721
19.4082
0.104353
19.4849
0.0838575
19.5724
0.0631992
19.6693
0.0423499
19.7745
0.0212889
19.887
0
20.0061
-0.0215283
20.1311
-0.043304
20.2613
-0.065332
20.3964
-0.0876151
20.5359
-0.110154
20.6794
-0.132946
20.8267
-0.15599
20.9774
-0.179281
21.1313
-0.202813
21.2883
-0.22658
21.4481
-0.250575
21.6107
-0.27479
21.7758
-0.299215
21.9433
-0.32384
22.1131
-0.348657
22.2852
-0.373654
22.4595
-0.39882
22.6358
-0.424143
22.8141
-0.449611
22.9944
-0.475211
23.1766
-0.500932
23.3606
-0.526759
23.5464
-0.552679
23.734
-0.578679
23.9233
-0.604744
24.1143
-0.630862
24.3069
-0.657016
24.5012
-0.683192
24.6971
-0.709377
24.8945
-0.735554
25.0935
-0.761709
25.294
-0.787826
25.496
-0.813892
25.6997
-0.839884
25.9041
-0.865814
26.1122
-0.891573
26.3148
-0.917445
26.5407
-0.942463
-0.969642
26.7004
35.3016
1.39639
-35.862
34.7267
1.34833
34.1368
1.29989
33.5304
1.25108
32.9059
1.20192
32.2614
1.15244
31.5949
1.10267
30.9042
1.05263
30.1869
1.00236
29.4405
0.951902
28.6631
0.901307
27.8534
0.850671
27.0122
0.800146
26.1439
0.749969
25.2577
0.700495
24.3694
0.652204
23.4999
0.605663
22.6732
0.561448
21.912
0.520025
21.2336
0.481661
20.6477
0.446388
20.156
0.414023
19.7542
0.384239
19.4336
0.356633
19.1843
0.330796
18.9956
0.306348
18.8581
0.282957
18.7634
0.260348
18.7041
0.238294
18.6746
0.216617
18.6699
0.195173
18.6861
0.173848
18.72
0.152554
18.7691
0.13122
18.8311
0.109791
18.9043
0.0882238
18.9873
0.0664842
19.0789
0.0445462
19.1782
0.0223899
19.2841
0
19.3961
-0.0226343
19.5136
-0.0455203
19.636
-0.0686629
19.7629
-0.0920641
19.894
-0.115724
20.0289
-0.13964
20.1672
-0.163811
20.3089
-0.18823
20.4537
-0.212893
20.6013
-0.237792
20.7517
-0.262921
20.9046
-0.288269
21.06
-0.313828
21.2177
-0.339589
21.3777
-0.36554
21.5398
-0.39167
21.704
-0.417968
21.8702
-0.444422
22.0383
-0.471019
22.2083
-0.497746
22.3802
-0.524591
22.5538
-0.551538
22.7292
-0.578576
22.9063
-0.605688
23.085
-0.632862
23.2654
-0.660082
23.4473
-0.687333
23.6309
-0.714601
23.816
-0.74187
24.0026
-0.769124
24.1907
-0.796349
24.3803
-0.823528
24.5713
-0.850648
24.7639
-0.877684
24.9573
-0.904648
25.1542
-0.931432
25.3459
-0.958319
25.5595
-0.984333
-1.01253
25.7111
33.678
1.43891
-34.2237
33.1175
1.3889
32.5421
1.33847
31.9501
1.28766
31.3399
1.23648
30.7098
1.18496
30.0578
1.13313
29.3817
1.08102
28.6794
1.02868
27.949
0.976165
27.1893
0.923556
26.4005
0.870993
25.5858
0.818692
24.752
0.766973
23.9116
0.716281
23.0819
0.667161
22.284
0.620191
21.5391
0.575888
20.8649
0.5346
20.2729
0.496456
19.7678
0.461361
19.3478
0.429045
19.0068
0.399139
18.7361
0.371234
18.5264
0.344935
18.3686
0.319887
18.2546
0.295787
18.1771
0.272381
18.1303
0.249466
18.1092
0.226876
18.1098
0.204482
18.1288
0.182178
18.1634
0.159883
18.2115
0.137531
18.2712
0.115071
18.3411
0.0924621
18.4199
0.0696723
18.5064
0.0466772
18.6
0.0234578
18.6997
0
18.8051
-0.0237064
18.9155
-0.047668
19.0306
-0.0718891
19.1498
-0.0963715
19.273
-0.121114
19.3997
-0.146116
19.5298
-0.171374
19.663
-0.196881
19.7991
-0.222632
19.9379
-0.248621
20.0794
-0.274838
20.2233
-0.301275
20.3695
-0.327923
20.5181
-0.354772
20.6687
-0.381809
20.8214
-0.409024
20.9762
-0.436404
21.1328
-0.463938
21.2914
-0.491613
21.4517
-0.519414
21.6138
-0.547329
21.7776
-0.575343
21.9432
-0.603442
22.1103
-0.631612
22.2791
-0.659837
22.4494
-0.688103
22.6213
-0.716394
22.7947
-0.744695
22.9696
-0.77299
23.146
-0.801263
23.3238
-0.829498
23.5031
-0.857679
23.6837
-0.885792
23.8659
-0.913811
24.0488
-0.941749
24.2351
-0.969496
24.4165
-0.997337
24.6185
-1.02429
-1.05343
24.7624
32.1151
1.47707
-32.647
31.5685
1.42518
31.0067
1.37287
30.4285
1.32013
29.832
1.26702
29.2157
1.21355
28.5775
1.15976
27.9157
1.10569
27.2284
1.0514
26.5146
0.996967
25.7741
0.942521
25.0091
0.888259
24.2249
0.834474
23.4313
0.781576
22.6426
0.730081
21.8769
0.68056
21.1535
0.633557
20.4897
0.589486
19.8981
0.54856
19.3855
0.510771
18.9525
0.475921
18.5951
0.443681
18.3064
0.413659
18.0783
0.385456
17.9022
0.358699
17.7705
0.33306
17.6761
0.308263
17.6132
0.28408
17.5768
0.260324
17.5627
0.236846
17.5676
0.213526
17.5887
0.19027
17.6237
0.167002
17.6707
0.14366
17.7281
0.120198
17.7947
0.0965763
17.8694
0.0727664
17.9512
0.0487446
18.0394
0.0244936
18.1333
0
18.2324
-0.0247455
18.3362
-0.049749
18.4443
-0.0750142
18.5564
-0.100542
18.6721
-0.126332
18.7912
-0.152382
18.9135
-0.178688
19.0387
-0.205244
19.1667
-0.232043
19.2973
-0.25908
19.4303
-0.286344
19.5658
-0.313828
19.7035
-0.34152
19.8433
-0.369411
19.9852
-0.397489
20.1291
-0.425742
20.2749
-0.454158
20.4226
-0.482724
20.5721
-0.511427
20.7233
-0.540252
20.8762
-0.569187
21.0308
-0.598216
21.187
-0.627325
21.3448
-0.6565
21.5042
-0.685724
21.665
-0.714982
21.8274
-0.744258
21.9913
-0.773537
22.1566
-0.802803
22.3233
-0.832039
22.4914
-0.861228
22.6609
-0.890354
22.8316
-0.919403
23.004
-0.948348
23.177
-0.977203
23.3532
-1.00585
23.5249
-1.03459
23.7159
-1.06242
-1.09245
23.8525
30.6106
1.51097
-31.1293
30.0771
1.4573
29.5285
1.40317
28.9633
1.34861
28.3799
1.29365
27.7768
1.23832
27.1522
1.18267
26.5046
1.12675
25.8329
1.07064
25.1369
1.01446
24.418
0.958394
23.6804
0.902714
22.9318
0.847797
22.1841
0.794127
21.4525
0.742262
20.7543
0.692755
20.106
0.646066
19.5205
0.602481
19.0059
0.562075
18.5648
0.524721
18.1952
0.490144
17.892
0.457979
17.6481
0.427833
17.4561
0.399324
17.3085
0.372107
17.1987
0.345883
17.121
0.320401
17.0704
0.295456
17.0426
0.270879
17.0344
0.246535
17.0427
0.222315
17.0654
0.198132
17.1004
0.173917
17.1461
0.149613
17.2013
0.125175
17.2647
0.10057
17.3354
0.075769
17.4127
0.0507506
17.4958
0.0254982
17.5842
0
17.6774
-0.0257527
17.775
-0.0517656
17.8767
-0.0780413
17.982
-0.104581
18.0907
-0.131383
18.2027
-0.158445
18.3176
-0.185762
18.4353
-0.213329
18.5557
-0.241139
18.6785
-0.269184
18.8037
-0.297456
18.9312
-0.325944
19.0608
-0.354639
19.1925
-0.38353
19.3261
-0.412605
19.4617
-0.441852
19.5991
-0.471258
19.7383
-0.50081
19.8793
-0.530495
20.0219
-0.560297
20.1662
-0.590204
20.312
-0.6202
20.4595
-0.65027
20.6084
-0.680399
20.7589
-0.710571
20.9109
-0.740771
21.0643
-0.770982
21.2191
-0.801187
21.3753
-0.831371
21.5328
-0.861517
21.6917
-0.891607
21.852
-0.921625
22.0135
-0.951556
22.1765
-0.981374
22.3402
-1.01109
22.5068
-1.04059
22.6693
-1.07017
22.8499
-1.09883
-1.12968
22.9797
29.1621
1.54072
-29.6683
28.6411
1.48533
28.1049
1.42947
27.5523
1.37316
26.9816
1.31644
26.3914
1.25935
25.7803
1.20195
25.1474
1.14431
24.4923
1.08655
23.8161
1.02883
23.1221
0.971423
22.4163
0.914665
21.7087
0.859015
21.0121
0.80501
20.3418
0.753201
19.7128
0.704078
19.138
0.657985
18.6263
0.615068
18.1818
0.575275
17.8042
0.538388
17.4899
0.504079
17.2332
0.471972
17.0274
0.441683
16.866
0.412856
16.7425
0.385175
16.6513
0.358369
16.5876
0.332213
16.5472
0.30652
16.5267
0.281141
16.5232
0.255952
16.5344
0.230855
16.5581
0.20577
16.5929
0.180633
16.6372
0.155393
16.6901
0.130009
16.7504
0.104447
16.8174
0.0786832
16.8903
0.0526967
16.9687
0.0264727
17.052
0
17.1396
-0.0267292
17.2314
-0.0537197
17.3269
-0.0809739
17.4259
-0.108492
17.5281
-0.136272
17.6334
-0.164312
17.7414
-0.192605
17.8521
-0.221147
17.9653
-0.24993
18.0808
-0.278946
18.1986
-0.308187
18.3186
-0.337641
18.4406
-0.367299
18.5646
-0.397149
18.6905
-0.42718
18.8182
-0.457379
18.9478
-0.487732
19.079
-0.518227
19.2119
-0.548849
19.3464
-0.579584
19.4825
-0.610417
19.6202
-0.641334
19.7593
-0.672319
19.9
-0.703355
20.0421
-0.734428
20.1856
-0.765521
20.3305
-0.796617
20.4768
-0.8277
20.6244
-0.858753
20.7733
-0.889759
20.9235
-0.920701
21.0751
-0.95156
21.2278
-0.982323
21.3819
-1.01296
21.5368
-1.04349
21.6944
-1.07379
21.8482
-1.10416
22.019
-1.13359
-1.16521
22.1422
27.7673
1.5664
-28.2615
27.2582
1.50938
26.7341
1.45187
26.1935
1.39389
25.6351
1.33551
25.0578
1.27676
24.4607
1.21773
23.8434
1.15853
23.2067
1.09932
22.5532
1.04034
21.888
0.981911
21.2191
0.924469
20.5575
0.868523
19.9165
0.814617
19.3097
0.763255
18.7494
0.714824
18.2448
0.669533
17.8011
0.627396
17.4194
0.588256
17.0975
0.55183
16.8309
0.517764
16.6139
0.485684
16.4406
0.455229
16.305
0.426068
16.2018
0.397917
16.1263
0.370531
16.0744
0.343709
16.0426
0.317284
16.0281
0.29112
16.0286
0.265107
16.0419
0.239155
16.0664
0.213191
16.1007
0.187158
16.1436
0.161007
16.1941
0.134701
16.2514
0.10821
16.3149
0.0815113
16.3838
0.054585
16.4576
0.027418
16.536
0
16.6185
-0.0276758
16.7048
-0.0556135
16.7946
-0.0838148
16.8876
-0.11228
16.9837
-0.141006
17.0826
-0.169989
17.1841
-0.199225
17.2882
-0.228708
17.3947
-0.258429
17.5034
-0.28838
17.6142
-0.318552
17.7272
-0.348935
17.842
-0.379518
17.9588
-0.410289
18.0774
-0.441236
18.1978
-0.472346
18.3198
-0.503606
18.4436
-0.535002
18.5689
-0.56652
18.6958
-0.598145
18.8242
-0.629862
18.9541
-0.661656
19.0855
-0.693511
19.2182
-0.725411
19.3524
-0.757339
19.488
-0.78928
19.6249
-0.821216
19.7631
-0.85313
19.9026
-0.885006
20.0434
-0.916825
20.1854
-0.948571
20.3287
-0.980224
20.4731
-1.01177
20.6189
-1.04318
20.7654
-1.07447
20.9145
-1.10553
21.0601
-1.13663
21.2216
-1.1668
-1.19913
21.3386
26.4242
1.5881
-26.907
25.9265
1.52952
25.4139
1.47044
24.8851
1.4109
24.3391
1.35095
23.775
1.29067
23.1926
1.23017
22.5925