/*--------------------------------*- C++ -*----------------------------------*\
| =========                 |                                                 |
| \\      /  F ield         | OpenFOAM: The Open Source CFD Toolbox           |
|  \\    /   O peration     | Version:  2312                                  |
|   \\  /    A nd           | Website:  www.openfoam.com                      |
|    \\/     M anipulation  |                                                 |
\*---------------------------------------------------------------------------*/
FoamFile
{
    version     2.0;
    format      ascii;
    arch        "LSB;label=32;scalar=64";
    class       volVectorField;
    location    "0.278";
    object      U;
}
// * * * * * * * * * * * * * * * * * * * * * * * * * * * * * * * * * * * * * //

dimensions      [0 1 -1 0 0 0 0];

internalField   nonuniform List<vector> 
31205
(
(231.012 0 0)
(228.534 0 0)
(225.979 0 0)
(223.343 0 0)
(220.62 0 0)
(217.804 0 0)
(214.89 0 0)
(211.87 0 0)
(208.737 0 0)
(205.481 0 0)
(202.091 0 0)
(198.556 0 0)
(194.861 0 0)
(190.989 0 0)
(186.92 0 0)
(182.631 0 0)
(178.093 0 0)
(173.272 0 0)
(168.127 0 0)
(162.611 0 0)
(156.675 0 0)
(150.288 0 0)
(143.484 0 0)
(136.428 0 0)
(129.43 0 0)
(122.895 0 0)
(117.191 0 0)
(112.534 0 0)
(108.963 0 0)
(106.383 0 0)
(104.635 0 0)
(103.55 0 0)
(102.98 0 0)
(102.804 0 0)
(102.929 0 0)
(103.285 0 0)
(103.821 0 0)
(104.497 0 0)
(105.284 0 0)
(106.159 0 0)
(107.105 0 0)
(108.109 0 0)
(109.16 0 0)
(110.25 0 0)
(111.371 0 0)
(112.52 0 0)
(113.69 0 0)
(114.878 0 0)
(116.082 0 0)
(117.298 0 0)
(118.524 0 0)
(119.76 0 0)
(121.002 0 0)
(122.249 0 0)
(123.501 0 0)
(124.757 0 0)
(126.015 0 0)
(127.275 0 0)
(128.536 0 0)
(129.797 0 0)
(131.058 0 0)
(132.319 0 0)
(133.579 0 0)
(134.838 0 0)
(136.095 0 0)
(137.35 0 0)
(138.603 0 0)
(139.854 0 0)
(141.103 0 0)
(142.348 0 0)
(143.591 0 0)
(144.831 0 0)
(146.068 0 0)
(147.3 0 0)
(148.535 0 0)
(149.747 0 0)
(151.014 0 0)
(152.099 0 0)
(153.728 0 0)
(228.378 0 0)
(225.897 0 0)
(223.339 0 0)
(220.7 0 0)
(217.973 0 0)
(215.155 0 0)
(212.237 0 0)
(209.214 0 0)
(206.076 0 0)
(202.814 0 0)
(199.418 0 0)
(195.875 0 0)
(192.169 0 0)
(188.285 0 0)
(184.2 0 0)
(179.891 0 0)
(175.329 0 0)
(170.479 0 0)
(165.3 0 0)
(159.745 0 0)
(153.774 0 0)
(147.378 0 0)
(140.628 0 0)
(133.731 0 0)
(127.02 0 0)
(120.877 0 0)
(115.61 0 0)
(111.371 0 0)
(108.155 0 0)
(105.849 0 0)
(104.298 0 0)
(103.347 0 0)
(102.863 0 0)
(102.736 0 0)
(102.886 0 0)
(103.249 0 0)
(103.778 0 0)
(104.437 0 0)
(105.201 0 0)
(106.049 0 0)
(106.964 0 0)
(107.934 0 0)
(108.949 0 0)
(110.002 0 0)
(111.086 0 0)
(112.196 0 0)
(113.327 0 0)
(114.476 0 0)
(115.64 0 0)
(116.817 0 0)
(118.004 0 0)
(119.2 0 0)
(120.403 0 0)
(121.612 0 0)
(122.825 0 0)
(124.042 0 0)
(125.261 0 0)
(126.483 0 0)
(127.706 0 0)
(128.929 0 0)
(130.153 0 0)
(131.377 0 0)
(132.6 0 0)
(133.822 0 0)
(135.043 0 0)
(136.262 0 0)
(137.48 0 0)
(138.695 0 0)
(139.908 0 0)
(141.119 0 0)
(142.327 0 0)
(143.532 0 0)
(144.735 0 0)
(145.933 0 0)
(147.134 0 0)
(148.313 0 0)
(149.545 0 0)
(150.603 0 0)
(152.182 0 0)
(225.606 0 0)
(223.12 0 0)
(220.556 0 0)
(217.91 0 0)
(215.178 0 0)
(212.352 0 0)
(209.427 0 0)
(206.395 0 0)
(203.247 0 0)
(199.974 0 0)
(196.565 0 0)
(193.006 0 0)
(189.283 0 0)
(185.376 0 0)
(181.266 0 0)
(176.926 0 0)
(172.327 0 0)
(167.434 0 0)
(162.206 0 0)
(156.6 0 0)
(150.59 0 0)
(144.196 0 0)
(137.535 0 0)
(130.854 0 0)
(124.494 0 0)
(118.798 0 0)
(114.005 0 0)
(110.204 0 0)
(107.351 0 0)
(105.323 0 0)
(103.973 0 0)
(103.159 0 0)
(102.763 0 0)
(102.69 0 0)
(102.867 0 0)
(103.239 0 0)
(103.764 0 0)
(104.41 0 0)
(105.153 0 0)
(105.975 0 0)
(106.861 0 0)
(107.799 0 0)
(108.781 0 0)
(109.799 0 0)
(110.846 0 0)
(111.919 0 0)
(113.012 0 0)
(114.123 0 0)
(115.25 0 0)
(116.388 0 0)
(117.537 0 0)
(118.694 0 0)
(119.859 0 0)
(121.029 0 0)
(122.205 0 0)
(123.384 0 0)
(124.566 0 0)
(125.75 0 0)
(126.936 0 0)
(128.123 0 0)
(129.31 0 0)
(130.498 0 0)
(131.685 0 0)
(132.871 0 0)
(134.056 0 0)
(135.24 0 0)
(136.422 0 0)
(137.603 0 0)
(138.781 0 0)
(139.958 0 0)
(141.132 0 0)
(142.303 0 0)
(143.472 0 0)
(144.637 0 0)
(145.804 0 0)
(146.952 0 0)
(148.149 0 0)
(149.18 0 0)
(150.709 0 0)
(222.773 0 0)
(220.278 0 0)
(217.707 0 0)
(215.053 0 0)
(212.312 0 0)
(209.477 0 0)
(206.541 0 0)
(203.498 0 0)
(200.337 0 0)
(197.049 0 0)
(193.622 0 0)
(190.043 0 0)
(186.295 0 0)
(182.36 0 0)
(178.217 0 0)
(173.838 0 0)
(169.193 0 0)
(164.247 0 0)
(158.961 0 0)
(153.301 0 0)
(147.26 0 0)
(140.895 0 0)
(134.371 0 0)
(127.963 0 0)
(122.003 0 0)
(116.781 0 0)
(112.468 0 0)
(109.096 0 0)
(106.592 0 0)
(104.829 0 0)
(103.67 0 0)
(102.987 0 0)
(102.676 0 0)
(102.655 0 0)
(102.86 0 0)
(103.243 0 0)
(103.765 0 0)
(104.4 0 0)
(105.125 0 0)
(105.924 0 0)
(106.782 0 0)
(107.691 0 0)
(108.64 0 0)
(109.624 0 0)
(110.637 0 0)
(111.674 0 0)
(112.732 0 0)
(113.806 0 0)
(114.896 0 0)
(115.997 0 0)
(117.109 0 0)
(118.229 0 0)
(119.357 0 0)
(120.49 0 0)
(121.629 0 0)
(122.771 0 0)
(123.917 0 0)
(125.065 0 0)
(126.215 0 0)
(127.366 0 0)
(128.517 0 0)
(129.669 0 0)
(130.821 0 0)
(131.972 0 0)
(133.123 0 0)
(134.272 0 0)
(135.42 0 0)
(136.566 0 0)
(137.711 0 0)
(138.854 0 0)
(139.994 0 0)
(141.132 0 0)
(142.269 0 0)
(143.401 0 0)
(144.535 0 0)
(145.651 0 0)
(146.815 0 0)
(147.818 0 0)
(149.302 0 0)
(219.91 0 0)
(217.408 0 0)
(214.828 0 0)
(212.165 0 0)
(209.414 0 0)
(206.568 0 0)
(203.62 0 0)
(200.563 0 0)
(197.386 0 0)
(194.08 0 0)
(190.633 0 0)
(187.03 0 0)
(183.254 0 0)
(179.287 0 0)
(175.105 0 0)
(170.682 0 0)
(165.986 0 0)
(160.982 0 0)
(155.637 0 0)
(149.929 0 0)
(143.878 0 0)
(137.585 0 0)
(131.253 0 0)
(125.173 0 0)
(119.648 0 0)
(114.909 0 0)
(111.061 0 0)
(108.091 0 0)
(105.908 0 0)
(104.386 0 0)
(103.399 0 0)
(102.835 0 0)
(102.603 0 0)
(102.63 0 0)
(102.861 0 0)
(103.252 0 0)
(103.773 0 0)
(104.396 0 0)
(105.104 0 0)
(105.88 0 0)
(106.713 0 0)
(107.593 0 0)
(108.512 0 0)
(109.464 0 0)
(110.444 0 0)
(111.447 0 0)
(112.469 0 0)
(113.509 0 0)
(114.563 0 0)
(115.628 0 0)
(116.704 0 0)
(117.789 0 0)
(118.88 0 0)
(119.978 0 0)
(121.081 0 0)
(122.188 0 0)
(123.298 0 0)
(124.411 0 0)
(125.525 0 0)
(126.641 0 0)
(127.758 0 0)
(128.875 0 0)
(129.993 0 0)
(131.11 0 0)
(132.226 0 0)
(133.342 0 0)
(134.456 0 0)
(135.569 0 0)
(136.681 0 0)
(137.791 0 0)
(138.899 0 0)
(140.004 0 0)
(141.108 0 0)
(142.208 0 0)
(143.311 0 0)
(144.395 0 0)
(145.526 0 0)
(146.503 0 0)
(147.943 0 0)
(217.031 0 0)
(214.52 0 0)
(211.932 0 0)
(209.259 0 0)
(206.497 0 0)
(203.639 0 0)
(200.678 0 0)
(197.605 0 0)
(194.412 0 0)
(191.086 0 0)
(187.615 0 0)
(183.986 0 0)
(180.179 0 0)
(176.175 0 0)
(171.951 0 0)
(167.479 0 0)
(162.729 0 0)
(157.667 0 0)
(152.267 0 0)
(146.527 0 0)
(140.501 0 0)
(134.33 0 0)
(128.249 0 0)
(122.544 0 0)
(117.474 0 0)
(113.209 0 0)
(109.799 0 0)
(107.197 0 0)
(105.303 0 0)
(103.997 0 0)
(103.164 0 0)
(102.706 0 0)
(102.543 0 0)
(102.612 0 0)
(102.865 0 0)
(103.265 0 0)
(103.782 0 0)
(104.395 0 0)
(105.086 0 0)
(105.841 0 0)
(106.649 0 0)
(107.501 0 0)
(108.391 0 0)
(109.312 0 0)
(110.259 0 0)
(111.229 0 0)
(112.218 0 0)
(113.224 0 0)
(114.243 0 0)
(115.274 0 0)
(116.316 0 0)
(117.365 0 0)
(118.422 0 0)
(119.485 0 0)
(120.553 0 0)
(121.626 0 0)
(122.701 0 0)
(123.779 0 0)
(124.86 0 0)
(125.942 0 0)
(127.025 0 0)
(128.108 0 0)
(129.192 0 0)
(130.276 0 0)
(131.359 0 0)
(132.442 0 0)
(133.524 0 0)
(134.604 0 0)
(135.683 0 0)
(136.761 0 0)
(137.837 0 0)
(138.911 0 0)
(139.983 0 0)
(141.052 0 0)
(142.124 0 0)
(143.177 0 0)
(144.276 0 0)
(145.226 0 0)
(146.624 0 0)
(214.14 0 0)
(211.621 0 0)
(209.022 0 0)
(206.339 0 0)
(203.566 0 0)
(200.695 0 0)
(197.719 0 0)
(194.63 0 0)
(191.417 0 0)
(188.07 0 0)
(184.574 0 0)
(180.915 0 0)
(177.074 0 0)
(173.031 0 0)
(168.761 0 0)
(164.238 0 0)
(159.431 0 0)
(154.312 0 0)
(148.869 0 0)
(143.123 0 0)
(137.166 0 0)
(131.175 0 0)
(125.399 0 0)
(120.103 0 0)
(115.496 0 0)
(111.687 0 0)
(108.682 0 0)
(106.413 0 0)
(104.777 0 0)
(103.661 0 0)
(102.963 0 0)
(102.598 0 0)
(102.496 0 0)
(102.602 0 0)
(102.874 0 0)
(103.28 0 0)
(103.793 0 0)
(104.395 0 0)
(105.069 0 0)
(105.803 0 0)
(106.587 0 0)
(107.413 0 0)
(108.274 0 0)
(109.165 0 0)
(110.081 0 0)
(111.02 0 0)
(111.976 0 0)
(112.949 0 0)
(113.935 0 0)
(114.933 0 0)
(115.94 0 0)
(116.956 0 0)
(117.979 0 0)
(119.009 0 0)
(120.043 0 0)
(121.082 0 0)
(122.124 0 0)
(123.168 0 0)
(124.216 0 0)
(125.264 0 0)
(126.314 0 0)
(127.365 0 0)
(128.416 0 0)
(129.468 0 0)
(130.519 0 0)
(131.569 0 0)
(132.619 0 0)
(133.668 0 0)
(134.715 0 0)
(135.762 0 0)
(136.806 0 0)
(137.849 0 0)
(138.891 0 0)
(139.929 0 0)
(140.97 0 0)
(141.993 0 0)
(143.061 0 0)
(143.984 0 0)
(145.342 0 0)
(211.237 0 0)
(208.709 0 0)
(206.1 0 0)
(203.406 0 0)
(200.62 0 0)
(197.735 0 0)
(194.744 0 0)
(191.636 0 0)
(188.403 0 0)
(185.031 0 0)
(181.507 0 0)
(177.816 0 0)
(173.938 0 0)
(169.853 0 0)
(165.535 0 0)
(160.958 0 0)
(156.095 0 0)
(150.927 0 0)
(145.459 0 0)
(139.743 0 0)
(133.906 0 0)
(128.153 0 0)
(122.729 0 0)
(117.864 0 0)
(113.713 0 0)
(110.334 0 0)
(107.699 0 0)
(105.729 0 0)
(104.32 0 0)
(103.372 0 0)
(102.793 0 0)
(102.51 0 0)
(102.46 0 0)
(102.598 0 0)
(102.887 0 0)
(103.297 0 0)
(103.805 0 0)
(104.396 0 0)
(105.053 0 0)
(105.767 0 0)
(106.527 0 0)
(107.327 0 0)
(108.161 0 0)
(109.023 0 0)
(109.91 0 0)
(110.817 0 0)
(111.742 0 0)
(112.683 0 0)
(113.637 0 0)
(114.602 0 0)
(115.577 0 0)
(116.56 0 0)
(117.551 0 0)
(118.547 0 0)
(119.549 0 0)
(120.555 0 0)
(121.564 0 0)
(122.577 0 0)
(123.591 0 0)
(124.608 0 0)
(125.626 0 0)
(126.644 0 0)
(127.664 0 0)
(128.683 0 0)
(129.703 0 0)
(130.722 0 0)
(131.741 0 0)
(132.759 0 0)
(133.775 0 0)
(134.791 0 0)
(135.805 0 0)
(136.818 0 0)
(137.829 0 0)
(138.837 0 0)
(139.848 0 0)
(140.843 0 0)
(141.879 0 0)
(142.777 0 0)
(144.095 0 0)
(208.322 0 0)
(205.784 0 0)
(203.165 0 0)
(200.459 0 0)
(197.659 0 0)
(194.759 0 0)
(191.75 0 0)
(188.622 0 0)
(185.366 0 0)
(181.968 0 0)
(178.414 0 0)
(174.688 0 0)
(170.77 0 0)
(166.639 0 0)
(162.271 0 0)
(157.64 0 0)
(152.725 0 0)
(147.521 0 0)
(142.055 0 0)
(136.413 0 0)
(130.753 0 0)
(125.29 0 0)
(120.254 0 0)
(115.829 0 0)
(112.119 0 0)
(109.139 0 0)
(106.839 0 0)
(105.134 0 0)
(103.927 0 0)
(103.126 0 0)
(102.651 0 0)
(102.439 0 0)
(102.436 0 0)
(102.601 0 0)
(102.903 0 0)
(103.315 0 0)
(103.819 0 0)
(104.397 0 0)
(105.038 0 0)
(105.732 0 0)
(106.47 0 0)
(107.245 0 0)
(108.052 0 0)
(108.886 0 0)
(109.744 0 0)
(110.621 0 0)
(111.516 0 0)
(112.426 0 0)
(113.349 0 0)
(114.283 0 0)
(115.226 0 0)
(116.178 0 0)
(117.136 0 0)
(118.101 0 0)
(119.071 0 0)
(120.045 0 0)
(121.022 0 0)
(122.003 0 0)
(122.986 0 0)
(123.971 0 0)
(124.958 0 0)
(125.946 0 0)
(126.934 0 0)
(127.923 0 0)
(128.912 0 0)
(129.9 0 0)
(130.889 0 0)
(131.876 0 0)
(132.863 0 0)
(133.849 0 0)
(134.833 0 0)
(135.816 0 0)
(136.798 0 0)
(137.777 0 0)
(138.758 0 0)
(139.724 0 0)
(140.731 0 0)
(141.603 0 0)
(142.883 0 0)
(205.393 0 0)
(202.845 0 0)
(200.214 0 0)
(197.495 0 0)
(194.68 0 0)
(191.764 0 0)
(188.735 0 0)
(185.586 0 0)
(182.304 0 0)
(178.878 0 0)
(175.291 0 0)
(171.527 0 0)
(167.566 0 0)
(163.387 0 0)
(158.967 0 0)
(154.285 0 0)
(149.328 0 0)
(144.108 0 0)
(138.681 0 0)
(133.164 0 0)
(127.735 0 0)
(122.609 0 0)
(117.984 0 0)
(113.996 0 0)
(110.703 0 0)
(108.088 0 0)
(106.089 0 0)
(104.619 0 0)
(103.589 0 0)
(102.917 0 0)
(102.534 0 0)
(102.384 0 0)
(102.421 0 0)
(102.61 0 0)
(102.922 0 0)
(103.335 0 0)
(103.833 0 0)
(104.399 0 0)
(105.025 0 0)
(105.699 0 0)
(106.414 0 0)
(107.165 0 0)
(107.947 0 0)
(108.754 0 0)
(109.584 0 0)
(110.432 0 0)
(111.298 0 0)
(112.178 0 0)
(113.07 0 0)
(113.974 0 0)
(114.886 0 0)
(115.807 0 0)
(116.735 0 0)
(117.669 0 0)
(118.608 0 0)
(119.551 0 0)
(120.498 0 0)
(121.448 0 0)
(122.4 0 0)
(123.355 0 0)
(124.311 0 0)
(125.268 0 0)
(126.227 0 0)
(127.185 0 0)
(128.144 0 0)
(129.103 0 0)
(130.062 0 0)
(131.02 0 0)
(131.977 0 0)
(132.934 0 0)
(133.889 0 0)
(134.843 0 0)
(135.796 0 0)
(136.746 0 0)
(137.699 0 0)
(138.637 0 0)
(139.615 0 0)
(140.463 0 0)
(141.704 0 0)
(202.45 0 0)
(199.89 0 0)
(197.247 0 0)
(194.513 0 0)
(191.683 0 0)
(188.748 0 0)
(185.698 0 0)
(182.525 0 0)
(179.216 0 0)
(175.758 0 0)
(172.136 0 0)
(168.331 0 0)
(164.325 0 0)
(160.097 0 0)
(155.626 0 0)
(150.898 0 0)
(145.914 0 0)
(140.708 0 0)
(135.364 0 0)
(130.026 0 0)
(124.881 0 0)
(120.127 0 0)
(115.921 0 0)
(112.356 0 0)
(109.452 0 0)
(107.169 0 0)
(105.438 0 0)
(104.175 0 0)
(103.3 0 0)
(102.741 0 0)
(102.438 0 0)
(102.342 0 0)
(102.414 0 0)
(102.623 0 0)
(102.944 0 0)
(103.357 0 0)
(103.848 0 0)
(104.403 0 0)
(105.012 0 0)
(105.667 0 0)
(106.361 0 0)
(107.089 0 0)
(107.845 0 0)
(108.626 0 0)
(109.429 0 0)
(110.25 0 0)
(111.087 0 0)
(111.938 0 0)
(112.801 0 0)
(113.675 0 0)
(114.558 0 0)
(115.449 0 0)
(116.347 0 0)
(117.25 0 0)
(118.159 0 0)
(119.073 0 0)
(119.99 0 0)
(120.91 0 0)
(121.833 0 0)
(122.757 0 0)
(123.684 0 0)
(124.612 0 0)
(125.541 0 0)
(126.47 0 0)
(127.4 0 0)
(128.33 0 0)
(129.259 0 0)
(130.189 0 0)
(131.117 0 0)
(132.045 0 0)
(132.972 0 0)
(133.898 0 0)
(134.823 0 0)
(135.746 0 0)
(136.671 0 0)
(137.581 0 0)
(138.53 0 0)
(139.354 0 0)
(140.558 0 0)
(199.491 0 0)
(196.919 0 0)
(194.262 0 0)
(191.513 0 0)
(188.665 0 0)
(185.709 0 0)
(182.637 0 0)
(179.438 0 0)
(176.099 0 0)
(172.607 0 0)
(168.945 0 0)
(165.098 0 0)
(161.045 0 0)
(156.767 0 0)
(152.25 0 0)
(147.488 0 0)
(142.501 0 0)
(137.346 0 0)
(132.136 0 0)
(127.031 0 0)
(122.213 0 0)
(117.851 0 0)
(114.064 0 0)
(110.9 0 0)
(108.352 0 0)
(106.367 0 0)
(104.873 0 0)
(103.793 0 0)
(103.054 0 0)
(102.594 0 0)
(102.361 0 0)
(102.313 0 0)
(102.415 0 0)
(102.64 0 0)
(102.968 0 0)
(103.38 0 0)
(103.863 0 0)
(104.406 0 0)
(105 0 0)
(105.637 0 0)
(106.31 0 0)
(107.015 0 0)
(107.747 0 0)
(108.503 0 0)
(109.279 0 0)
(110.073 0 0)
(110.883 0 0)
(111.706 0 0)
(112.541 0 0)
(113.386 0 0)
(114.24 0 0)
(115.102 0 0)
(115.971 0 0)
(116.846 0 0)
(117.726 0 0)
(118.61 0 0)
(119.498 0 0)
(120.389 0 0)
(121.283 0 0)
(122.179 0 0)
(123.076 0 0)
(123.976 0 0)
(124.876 0 0)
(125.777 0 0)
(126.678 0 0)
(127.58 0 0)
(128.481 0 0)
(129.382 0 0)
(130.283 0 0)
(131.183 0 0)
(132.083 0 0)
(132.981 0 0)
(133.879 0 0)
(134.774 0 0)
(135.671 0 0)
(136.555 0 0)
(137.476 0 0)
(138.276 0 0)
(139.444 0 0)
(196.516 0 0)
(193.93 0 0)
(191.258 0 0)
(188.491 0 0)
(185.624 0 0)
(182.646 0 0)
(179.549 0 0)
(176.321 0 0)
(172.949 0 0)
(169.42 0 0)
(165.718 0 0)
(161.826 0 0)
(157.725 0 0)
(153.402 0 0)
(148.846 0 0)
(144.069 0 0)
(139.11 0 0)
(134.053 0 0)
(129.03 0 0)
(124.205 0 0)
(119.747 0 0)
(115.787 0 0)
(112.404 0 0)
(109.615 0 0)
(107.391 0 0)
(105.671 0 0)
(104.387 0 0)
(103.466 0 0)
(102.847 0 0)
(102.473 0 0)
(102.301 0 0)
(102.293 0 0)
(102.421 0 0)
(102.661 0 0)
(102.994 0 0)
(103.404 0 0)
(103.88 0 0)
(104.411 0 0)
(104.989 0 0)
(105.608 0 0)
(106.261 0 0)
(106.944 0 0)
(107.653 0 0)
(108.384 0 0)
(109.135 0 0)
(109.903 0 0)
(110.686 0 0)
(111.482 0 0)
(112.29 0 0)
(113.107 0 0)
(113.933 0 0)
(114.767 0 0)
(115.608 0 0)
(116.454 0 0)
(117.306 0 0)
(118.162 0 0)
(119.022 0 0)
(119.885 0 0)
(120.75 0 0)
(121.618 0 0)
(122.488 0 0)
(123.359 0 0)
(124.231 0 0)
(125.104 0 0)
(125.978 0 0)
(126.852 0 0)
(127.726 0 0)
(128.6 0 0)
(129.474 0 0)
(130.347 0 0)
(131.219 0 0)
(132.091 0 0)
(132.962 0 0)
(133.83 0 0)
(134.701 0 0)
(135.559 0 0)
(136.452 0 0)
(137.229 0 0)
(138.362 0 0)
(193.522 0 0)
(190.921 0 0)
(188.232 0 0)
(185.447 0 0)
(182.558 0 0)
(179.556 0 0)
(176.431 0 0)
(173.172 0 0)
(169.765 0 0)
(166.198 0 0)
(162.453 0 0)
(158.514 0 0)
(154.368 0 0)
(150.005 0 0)
(145.426 0 0)
(140.66 0 0)
(135.769 0 0)
(130.86 0 0)
(126.075 0 0)
(121.572 0 0)
(117.492 0 0)
(113.931 0 0)
(110.932 0 0)
(108.487 0 0)
(106.553 0 0)
(105.069 0 0)
(103.968 0 0)
(103.188 0 0)
(102.672 0 0)
(102.374 0 0)
(102.255 0 0)
(102.284 0 0)
(102.434 0 0)
(102.685 0 0)
(103.021 0 0)
(103.429 0 0)
(103.897 0 0)
(104.416 0 0)
(104.979 0 0)
(105.58 0 0)
(106.214 0 0)
(106.875 0 0)
(107.562 0 0)
(108.269 0 0)
(108.996 0 0)
(109.739 0 0)
(110.496 0 0)
(111.266 0 0)
(112.047 0 0)
(112.837 0 0)
(113.637 0 0)
(114.443 0 0)
(115.257 0 0)
(116.076 0 0)
(116.9 0 0)
(117.729 0 0)
(118.561 0 0)
(119.396 0 0)
(120.235 0 0)
(121.075 0 0)
(121.918 0 0)
(122.762 0 0)
(123.607 0 0)
(124.453 0 0)
(125.3 0 0)
(126.147 0 0)
(126.994 0 0)
(127.842 0 0)
(128.689 0 0)
(129.535 0 0)
(130.381 0 0)
(131.227 0 0)
(132.071 0 0)
(132.914 0 0)
(133.759 0 0)
(134.591 0 0)
(135.458 0 0)
(136.213 0 0)
(137.31 0 0)
(190.508 0 0)
(187.891 0 0)
(185.184 0 0)
(182.378 0 0)
(179.465 0 0)
(176.437 0 0)
(173.282 0 0)
(169.989 0 0)
(166.545 0 0)
(162.936 0 0)
(159.147 0 0)
(155.165 0 0)
(150.978 0 0)
(146.587 0 0)
(142.008 0 0)
(137.288 0 0)
(132.512 0 0)
(127.801 0 0)
(123.299 0 0)
(119.146 0 0)
(115.451 0 0)
(112.276 0 0)
(109.635 0 0)
(107.501 0 0)
(105.826 0 0)
(104.549 0 0)
(103.609 0 0)
(102.951 0 0)
(102.527 0 0)
(102.295 0 0)
(102.223 0 0)
(102.282 0 0)
(102.451 0 0)
(102.712 0 0)
(103.05 0 0)
(103.454 0 0)
(103.914 0 0)
(104.421 0 0)
(104.97 0 0)
(105.554 0 0)
(106.168 0 0)
(106.809 0 0)
(107.474 0 0)
(108.159 0 0)
(108.861 0 0)
(109.58 0 0)
(110.312 0 0)
(111.057 0 0)
(111.812 0 0)
(112.577 0 0)
(113.35 0 0)
(114.13 0 0)
(114.917 0 0)
(115.71 0 0)
(116.507 0 0)
(117.309 0 0)
(118.115 0 0)
(118.924 0 0)
(119.736 0 0)
(120.55 0 0)
(121.365 0 0)
(122.183 0 0)
(123.002 0 0)
(123.822 0 0)
(124.642 0 0)
(125.463 0 0)
(126.285 0 0)
(127.106 0 0)
(127.927 0 0)
(128.748 0 0)
(129.569 0 0)
(130.388 0 0)
(131.208 0 0)
(132.025 0 0)
(132.844 0 0)
(133.652 0 0)
(134.493 0 0)
(135.225 0 0)
(136.289 0 0)
(187.472 0 0)
(184.837 0 0)
(182.11 0 0)
(179.281 0 0)
(176.343 0 0)
(173.286 0 0)
(170.098 0 0)
(166.77 0 0)
(163.287 0 0)
(159.635 0 0)
(155.803 0 0)
(151.78 0 0)
(147.563 0 0)
(143.162 0 0)
(138.613 0 0)
(133.982 0 0)
(129.37 0 0)
(124.906 0 0)
(120.723 0 0)
(116.935 0 0)
(113.621 0 0)
(110.811 0 0)
(108.497 0 0)
(106.643 0 0)
(105.197 0 0)
(104.102 0 0)
(103.303 0 0)
(102.752 0 0)
(102.407 0 0)
(102.233 0 0)
(102.201 0 0)
(102.287 0 0)
(102.472 0 0)
(102.741 0 0)
(103.081 0 0)
(103.48 0 0)
(103.932 0 0)
(104.427 0 0)
(104.961 0 0)
(105.528 0 0)
(106.124 0 0)
(106.746 0 0)
(107.389 0 0)
(108.052 0 0)
(108.732 0 0)
(109.426 0 0)
(110.135 0 0)
(110.855 0 0)
(111.585 0 0)
(112.325 0 0)
(113.073 0 0)
(113.827 0 0)
(114.589 0 0)
(115.356 0 0)
(116.127 0 0)
(116.904 0 0)
(117.683 0 0)
(118.466 0 0)
(119.252 0 0)
(120.041 0 0)
(120.831 0 0)
(121.623 0 0)
(122.416 0 0)
(123.21 0 0)
(124.005 0 0)
(124.801 0 0)
(125.597 0 0)
(126.393 0 0)
(127.189 0 0)
(127.985 0 0)
(128.78 0 0)
(129.575 0 0)
(130.369 0 0)
(131.162 0 0)
(131.957 0 0)
(132.74 0 0)
(133.555 0 0)
(134.266 0 0)
(135.297 0 0)
(184.412 0 0)
(181.758 0 0)
(179.008 0 0)
(176.155 0 0)
(173.189 0 0)
(170.1 0 0)
(166.878 0 0)
(163.512 0 0)
(159.988 0 0)
(156.295 0 0)
(152.424 0 0)
(148.368 0 0)
(144.136 0 0)
(139.753 0 0)
(135.272 0 0)
(130.776 0 0)
(126.378 0 0)
(122.2 0 0)
(118.359 0 0)
(114.941 0 0)
(111.992 0 0)
(109.521 0 0)
(107.504 0 0)
(105.899 0 0)
(104.654 0 0)
(103.719 0 0)
(103.043 0 0)
(102.586 0 0)
(102.31 0 0)
(102.186 0 0)
(102.189 0 0)
(102.298 0 0)
(102.497 0 0)
(102.772 0 0)
(103.112 0 0)
(103.507 0 0)
(103.95 0 0)
(104.434 0 0)
(104.953 0 0)
(105.504 0 0)
(106.082 0 0)
(106.684 0 0)
(107.307 0 0)
(107.948 0 0)
(108.606 0 0)
(109.278 0 0)
(109.963 0 0)
(110.66 0 0)
(111.366 0 0)
(112.081 0 0)
(112.805 0 0)
(113.535 0 0)
(114.271 0 0)
(115.013 0 0)
(115.76 0 0)
(116.511 0 0)
(117.266 0 0)
(118.024 0 0)
(118.785 0 0)
(119.548 0 0)
(120.313 0 0)
(121.08 0 0)
(121.848 0 0)
(122.618 0 0)
(123.388 0 0)
(124.159 0 0)
(124.93 0 0)
(125.701 0 0)
(126.473 0 0)
(127.244 0 0)
(128.015 0 0)
(128.786 0 0)
(129.556 0 0)
(130.324 0 0)
(131.095 0 0)
(131.855 0 0)
(132.645 0 0)
(133.335 0 0)
(134.334 0 0)
(181.326 0 0)
(178.651 0 0)
(175.877 0 0)
(172.996 0 0)
(170 0 0)
(166.878 0 0)
(163.62 0 0)
(160.215 0 0)
(156.651 0 0)
(152.919 0 0)
(149.014 0 0)
(144.941 0 0)
(140.717 0 0)
(136.386 0 0)
(132.017 0 0)
(127.705 0 0)
(123.563 0 0)
(119.702 0 0)
(116.214 0 0)
(113.158 0 0)
(110.553 0 0)
(108.392 0 0)
(106.641 0 0)
(105.256 0 0)
(104.188 0 0)
(103.392 0 0)
(102.824 0 0)
(102.448 0 0)
(102.233 0 0)
(102.153 0 0)
(102.186 0 0)
(102.315 0 0)
(102.525 0 0)
(102.805 0 0)
(103.144 0 0)
(103.534 0 0)
(103.968 0 0)
(104.44 0 0)
(104.946 0 0)
(105.481 0 0)
(106.042 0 0)
(106.625 0 0)
(107.228 0 0)
(107.849 0 0)
(108.485 0 0)
(109.135 0 0)
(109.798 0 0)
(110.471 0 0)
(111.154 0 0)
(111.846 0 0)
(112.546 0 0)
(113.252 0 0)
(113.964 0 0)
(114.682 0 0)
(115.405 0 0)
(116.131 0 0)
(116.862 0 0)
(117.595 0 0)
(118.332 0 0)
(119.071 0 0)
(119.812 0 0)
(120.554 0 0)
(121.298 0 0)
(122.044 0 0)
(122.79 0 0)
(123.536 0 0)
(124.284 0 0)
(125.031 0 0)
(125.779 0 0)
(126.526 0 0)
(127.274 0 0)
(128.02 0 0)
(128.767 0 0)
(129.512 0 0)
(130.259 0 0)
(130.996 0 0)
(131.762 0 0)
(132.432 0 0)
(133.398 0 0)
(178.212 0 0)
(175.513 0 0)
(172.713 0 0)
(169.803 0 0)
(166.774 0 0)
(163.618 0 0)
(160.322 0 0)
(156.878 0 0)
(153.276 0 0)
(149.512 0 0)
(145.587 0 0)
(141.515 0 0)
(137.332 0 0)
(133.093 0 0)
(128.882 0 0)
(124.799 0 0)
(120.948 0 0)
(117.422 0 0)
(114.287 0 0)
(111.575 0 0)
(109.29 0 0)
(107.408 0 0)
(105.893 0 0)
(104.701 0 0)
(103.789 0 0)
(103.114 0 0)
(102.64 0 0)
(102.335 0 0)
(102.173 0 0)
(102.131 0 0)
(102.19 0 0)
(102.336 0 0)
(102.556 0 0)
(102.839 0 0)
(103.176 0 0)
(103.561 0 0)
(103.986 0 0)
(104.447 0 0)
(104.939 0 0)
(105.459 0 0)
(106.003 0 0)
(106.568 0 0)
(107.152 0 0)
(107.753 0 0)
(108.368 0 0)
(108.997 0 0)
(109.638 0 0)
(110.289 0 0)
(110.95 0 0)
(111.619 0 0)
(112.295 0 0)
(112.978 0 0)
(113.668 0 0)
(114.362 0 0)
(115.061 0 0)
(115.764 0 0)
(116.471 0 0)
(117.181 0 0)
(117.894 0 0)
(118.609 0 0)
(119.326 0 0)
(120.045 0 0)
(120.766 0 0)
(121.488 0 0)
(122.21 0 0)
(122.934 0 0)
(123.657 0 0)
(124.382 0 0)
(125.106 0 0)
(125.83 0 0)
(126.555 0 0)
(127.278 0 0)
(128.002 0 0)
(128.724 0 0)
(129.448 0 0)
(130.162 0 0)
(130.905 0 0)
(131.555 0 0)
(132.491 0 0)
(175.067 0 0)
(172.342 0 0)
(169.513 0 0)
(166.572 0 0)
(163.51 0 0)
(160.317 0 0)
(156.984 0 0)
(153.504 0 0)
(149.87 0 0)
(146.083 0 0)
(142.157 0 0)
(138.116 0 0)
(134.01 0 0)
(129.909 0 0)
(125.901 0 0)
(122.084 0 0)
(118.548 0 0)
(115.363 0 0)
(112.57 0 0)
(110.181 0 0)
(108.186 0 0)
(106.554 0 0)
(105.247 0 0)
(104.225 0 0)
(103.447 0 0)
(102.879 0 0)
(102.486 0 0)
(102.244 0 0)
(102.127 0 0)
(102.119 0 0)
(102.201 0 0)
(102.362 0 0)
(102.589 0 0)
(102.874 0 0)
(103.209 0 0)
(103.588 0 0)
(104.004 0 0)
(104.454 0 0)
(104.933 0 0)
(105.438 0 0)
(105.965 0 0)
(106.513 0 0)
(107.078 0 0)
(107.66 0 0)
(108.255 0 0)
(108.864 0 0)
(109.483 0 0)
(110.113 0 0)
(110.752 0 0)
(111.399 0 0)
(112.053 0 0)
(112.714 0 0)
(113.381 0 0)
(114.052 0 0)
(114.729 0 0)
(115.409 0 0)
(116.093 0 0)
(116.78 0 0)
(117.47 0 0)
(118.162 0 0)
(118.857 0 0)
(119.553 0 0)
(120.25 0 0)
(120.949 0 0)
(121.649 0 0)
(122.35 0 0)
(123.051 0 0)
(123.752 0 0)
(124.454 0 0)
(125.156 0 0)
(125.857 0 0)
(126.559 0 0)
(127.26 0 0)
(127.959 0 0)
(128.661 0 0)
(129.354 0 0)
(130.073 0 0)
(130.703 0 0)
(131.609 0 0)
(171.888 0 0)
(169.136 0 0)
(166.277 0 0)
(163.303 0 0)
(160.206 0 0)
(156.977 0 0)
(153.609 0 0)
(150.097 0 0)
(146.441 0 0)
(142.65 0 0)
(138.747 0 0)
(134.772 0 0)
(130.786 0 0)
(126.867 0 0)
(123.103 0 0)
(119.58 0 0)
(116.37 0 0)
(113.52 0 0)
(111.051 0 0)
(108.96 0 0)
(107.225 0 0)
(105.814 0 0)
(104.691 0 0)
(103.817 0 0)
(103.157 0 0)
(102.681 0 0)
(102.36 0 0)
(102.171 0 0)
(102.095 0 0)
(102.115 0 0)
(102.217 0 0)
(102.39 0 0)
(102.624 0 0)
(102.91 0 0)
(103.243 0 0)
(103.615 0 0)
(104.023 0 0)
(104.462 0 0)
(104.927 0 0)
(105.418 0 0)
(105.929 0 0)
(106.46 0 0)
(107.007 0 0)
(107.57 0 0)
(108.146 0 0)
(108.735 0 0)
(109.334 0 0)
(109.943 0 0)
(110.561 0 0)
(111.187 0 0)
(111.82 0 0)
(112.459 0 0)
(113.103 0 0)
(113.753 0 0)
(114.407 0 0)
(115.065 0 0)
(115.727 0 0)
(116.392 0 0)
(117.06 0 0)
(117.73 0 0)
(118.402 0 0)
(119.076 0 0)
(119.751 0 0)
(120.428 0 0)
(121.105 0 0)
(121.784 0 0)
(122.463 0 0)
(123.142 0 0)
(123.822 0 0)
(124.502 0 0)
(125.181 0 0)
(125.861 0 0)
(126.54 0 0)
(127.218 0 0)
(127.898 0 0)
(128.569 0 0)
(129.266 0 0)
(129.878 0 0)
(130.754 0 0)
(168.673 0 0)
(165.891 0 0)
(163.001 0 0)
(159.994 0 0)
(156.862 0 0)
(153.599 0 0)
(150.201 0 0)
(146.667 0 0)
(143.005 0 0)
(139.233 0 0)
(135.387 0 0)
(131.519 0 0)
(127.696 0 0)
(124 0 0)
(120.51 0 0)
(117.298 0 0)
(114.414 0 0)
(111.886 0 0)
(109.718 0 0)
(107.895 0 0)
(106.392 0 0)
(105.177 0 0)
(104.213 0 0)
(103.469 0 0)
(102.912 0 0)
(102.516 0 0)
(102.257 0 0)
(102.116 0 0)
(102.075 0 0)
(102.12 0 0)
(102.239 0 0)
(102.422 0 0)
(102.66 0 0)
(102.947 0 0)
(103.276 0 0)
(103.642 0 0)
(104.041 0 0)
(104.469 0 0)
(104.922 0 0)
(105.398 0 0)
(105.894 0 0)
(106.408 0 0)
(106.939 0 0)
(107.483 0 0)
(108.041 0 0)
(108.61 0 0)
(109.19 0 0)
(109.779 0 0)
(110.377 0 0)
(110.982 0 0)
(111.594 0 0)
(112.212 0 0)
(112.835 0 0)
(113.464 0 0)
(114.097 0 0)
(114.733 0 0)
(115.374 0 0)
(116.017 0 0)
(116.663 0 0)
(117.311 0 0)
(117.962 0 0)
(118.614 0 0)
(119.268 0 0)
(119.923 0 0)
(120.579 0 0)
(121.236 0 0)
(121.893 0 0)
(122.551 0 0)
(123.21 0 0)
(123.868 0 0)
(124.526 0 0)
(125.185 0 0)
(125.843 0 0)
(126.499 0 0)
(127.158 0 0)
(127.808 0 0)
(128.483 0 0)
(129.076 0 0)
(129.925 0 0)
(165.421 0 0)
(162.608 0 0)
(159.685 0 0)
(156.645 0 0)
(153.48 0 0)
(150.189 0 0)
(146.769 0 0)
(143.228 0 0)
(139.582 0 0)
(135.861 0 0)
(132.11 0 0)
(128.39 0 0)
(124.772 0 0)
(121.332 0 0)
(118.137 0 0)
(115.24 0 0)
(112.673 0 0)
(110.446 0 0)
(108.552 0 0)
(106.97 0 0)
(105.673 0 0)
(104.628 0 0)
(103.804 0 0)
(103.172 0 0)
(102.705 0 0)
(102.38 0 0)
(102.175 0 0)
(102.075 0 0)
(102.064 0 0)
(102.131 0 0)
(102.264 0 0)
(102.456 0 0)
(102.698 0 0)
(102.984 0 0)
(103.31 0 0)
(103.669 0 0)
(104.06 0 0)
(104.476 0 0)
(104.917 0 0)
(105.38 0 0)
(105.861 0 0)
(106.359 0 0)
(106.873 0 0)
(107.4 0 0)
(107.939 0 0)
(108.49 0 0)
(109.051 0 0)
(109.621 0 0)
(110.198 0 0)
(110.784 0 0)
(111.375 0 0)
(111.973 0 0)
(112.576 0 0)
(113.184 0 0)
(113.796 0 0)
(114.412 0 0)
(115.031 0 0)
(115.654 0 0)
(116.279 0 0)
(116.906 0 0)
(117.536 0 0)
(118.167 0 0)
(118.8 0 0)
(119.434 0 0)
(120.069 0 0)
(120.705 0 0)
(121.342 0 0)
(121.979 0 0)
(122.616 0 0)
(123.254 0 0)
(123.892 0 0)
(124.529 0 0)
(125.166 0 0)
(125.803 0 0)
(126.441 0 0)
(127.071 0 0)
(127.724 0 0)
(128.299 0 0)
(129.12 0 0)
(162.128 0 0)
(159.284 0 0)
(156.329 0 0)
(153.258 0 0)
(150.066 0 0)
(146.754 0 0)
(143.328 0 0)
(139.801 0 0)
(136.201 0 0)
(132.566 0 0)
(128.951 0 0)
(125.421 0 0)
(122.042 0 0)
(118.881 0 0)
(115.99 0 0)
(113.402 0 0)
(111.134 0 0)
(109.185 0 0)
(107.537 0 0)
(106.17 0 0)
(105.053 0 0)
(104.157 0 0)
(103.456 0 0)
(102.922 0 0)
(102.533 0 0)
(102.268 0 0)
(102.111 0 0)
(102.047 0 0)
(102.063 0 0)
(102.148 0 0)
(102.293 0 0)
(102.492 0 0)
(102.737 0 0)
(103.022 0 0)
(103.343 0 0)
(103.696 0 0)
(104.078 0 0)
(104.484 0 0)
(104.913 0 0)
(105.362 0 0)
(105.828 0 0)
(106.311 0 0)
(106.809 0 0)
(107.319 0 0)
(107.841 0 0)
(108.374 0 0)
(108.916 0 0)
(109.467 0 0)
(110.026 0 0)
(110.592 0 0)
(111.165 0 0)
(111.743 0 0)
(112.326 0 0)
(112.914 0 0)
(113.506 0 0)
(114.102 0 0)
(114.701 0 0)
(115.303 0 0)
(115.908 0 0)
(116.515 0 0)
(117.124 0 0)
(117.735 0 0)
(118.347 0 0)
(118.961 0 0)
(119.576 0 0)
(120.191 0 0)
(120.808 0 0)
(121.425 0 0)
(122.042 0 0)
(122.659 0 0)
(123.276 0 0)
(123.894 0 0)
(124.511 0 0)
(125.127 0 0)
(125.745 0 0)
(126.355 0 0)
(126.988 0 0)
(127.546 0 0)
(128.339 0 0)
(158.795 0 0)
(155.92 0 0)
(152.936 0 0)
(149.838 0 0)
(146.628 0 0)
(143.31 0 0)
(139.897 0 0)
(136.413 0 0)
(132.893 0 0)
(129.385 0 0)
(125.946 0 0)
(122.64 0 0)
(119.526 0 0)
(116.656 0 0)
(114.065 0 0)
(111.774 0 0)
(109.784 0 0)
(108.085 0 0)
(106.658 0 0)
(105.479 0 0)
(104.52 0 0)
(103.755 0 0)
(103.159 0 0)
(102.711 0 0)
(102.39 0 0)
(102.179 0 0)
(102.063 0 0)
(102.03 0 0)
(102.068 0 0)
(102.17 0 0)
(102.326 0 0)
(102.53 0 0)
(102.776 0 0)
(103.06 0 0)
(103.377 0 0)
(103.723 0 0)
(104.096 0 0)
(104.492 0 0)
(104.909 0 0)
(105.345 0 0)
(105.797 0 0)
(106.265 0 0)
(106.747 0 0)
(107.241 0 0)
(107.747 0 0)
(108.262 0 0)
(108.787 0 0)
(109.32 0 0)
(109.86 0 0)
(110.407 0 0)
(110.961 0 0)
(111.52 0 0)
(112.084 0 0)
(112.652 0 0)
(113.225 0 0)
(113.801 0 0)
(114.381 0 0)
(114.963 0 0)
(115.548 0 0)
(116.136 0 0)
(116.725 0 0)
(117.316 0 0)
(117.909 0 0)
(118.503 0 0)
(119.098 0 0)
(119.694 0 0)
(120.291 0 0)
(120.888 0 0)
(121.485 0 0)
(122.083 0 0)
(122.681 0 0)
(123.278 0 0)
(123.876 0 0)
(124.472 0 0)
(125.071 0 0)
(125.662 0 0)
(126.274 0 0)
(126.815 0 0)
(127.582 0 0)
(155.421 0 0)
(152.519 0 0)
(149.511 0 0)
(146.396 0 0)
(143.181 0 0)
(139.877 0 0)
(136.505 0 0)
(133.097 0 0)
(129.695 0 0)
(126.352 0 0)
(123.125 0 0)
(120.07 0 0)
(117.235 0 0)
(114.657 0 0)
(112.357 0 0)
(110.341 0 0)
(108.605 0 0)
(107.131 0 0)
(105.898 0 0)
(104.884 0 0)
(104.063 0 0)
(103.412 0 0)
(102.909 0 0)
(102.535 0 0)
(102.273 0 0)
(102.108 0 0)
(102.028 0 0)
(102.022 0 0)
(102.081 0 0)
(102.196 0 0)
(102.361 0 0)
(102.569 0 0)
(102.816 0 0)
(103.098 0 0)
(103.41 0 0)
(103.75 0 0)
(104.114 0 0)
(104.5 0 0)
(104.905 0 0)
(105.328 0 0)
(105.767 0 0)
(106.221 0 0)
(106.688 0 0)
(107.166 0 0)
(107.655 0 0)
(108.154 0 0)
(108.661 0 0)
(109.177 0 0)
(109.699 0 0)
(110.229 0 0)
(110.764 0 0)
(111.304 0 0)
(111.85 0 0)
(112.4 0 0)
(112.954 0 0)
(113.511 0 0)
(114.072 0 0)
(114.635 0 0)
(115.201 0 0)
(115.769 0 0)
(116.34 0 0)
(116.912 0 0)
(117.485 0 0)
(118.06 0 0)
(118.636 0 0)
(119.212 0 0)
(119.79 0 0)
(120.368 0 0)
(120.946 0 0)
(121.525 0 0)
(122.103 0 0)
(122.682 0 0)
(123.26 0 0)
(123.838 0 0)
(124.417 0 0)
(124.989 0 0)
(125.582 0 0)
(126.106 0 0)
(126.848 0 0)
(152.012 0 0)
(149.087 0 0)
(146.064 0 0)
(142.946 0 0)
(139.746 0 0)
(136.481 0 0)
(133.182 0 0)
(129.887 0 0)
(126.643 0 0)
(123.5 0 0)
(120.512 0 0)
(117.724 0 0)
(115.171 0 0)
(112.877 0 0)
(110.85 0 0)
(109.089 0 0)
(107.579 0 0)
(106.305 0 0)
(105.244 0 0)
(104.374 0 0)
(103.673 0 0)
(103.12 0 0)
(102.698 0 0)
(102.388 0 0)
(102.178 0 0)
(102.054 0 0)
(102.006 0 0)
(102.023 0 0)
(102.099 0 0)
(102.226 0 0)
(102.398 0 0)
(102.61 0 0)
(102.857 0 0)
(103.136 0 0)
(103.443 0 0)
(103.776 0 0)
(104.132 0 0)
(104.507 0 0)
(104.902 0 0)
(105.313 0 0)
(105.739 0 0)
(106.178 0 0)