/*--------------------------------*- C++ -*----------------------------------*\
| =========                 |                                                 |
| \\      /  F ield         | OpenFOAM: The Open Source CFD Toolbox           |
|  \\    /   O peration     | Version:  2312                                  |
|   \\  /    A nd           | Website:  www.openfoam.com                      |
|    \\/     M anipulation  |                                                 |
\*---------------------------------------------------------------------------*/
FoamFile
{
    version     2.0;
    format      ascii;
    arch        "LSB;label=32;scalar=64";
    class       surfaceScalarField;
    location    "0.637";
    object      phi;
}
// * * * * * * * * * * * * * * * * * * * * * * * * * * * * * * * * * * * * * //

dimensions      [0 3 -1 0 0 0 0];

oriented        oriented;

internalField   nonuniform List<scalar> 
62015
(
31.8065
0.0620914
-31.3426
32.3225
0.0619084
32.8792
0.0617307
33.4673
0.0615363
34.079
0.0613071
34.7078
0.0610281
35.3485
0.0606876
35.9969
0.060276
36.6496
0.0597864
37.3041
0.0592127
37.9583
0.0585509
38.6107
0.0577978
39.26
0.0569512
39.9054
0.0560094
40.5461
0.0549715
41.1818
0.0538369
41.8121
0.0526057
42.4367
0.051278
43.0555
0.0498541
43.6686
0.0483349
44.2759
0.0467212
44.8775
0.0450138
45.4734
0.0432141
46.0639
0.0413234
46.649
0.0393428
47.2289
0.037274
47.8039
0.0351183
48.374
0.0328775
48.9395
0.0305533
49.5006
0.0281472
50.0574
0.0256609
50.6102
0.0230965
51.1593
0.0204561
51.7046
0.0177408
52.2466
0.0149535
52.7853
0.0120953
53.3209
0.00916889
53.8537
0.00617627
54.3839
0.00311905
54.9115
0
55.4367
-0.003179
55.9598
-0.00641606
56.4809
-0.00970828
57.0001
-0.0130539
57.5176
-0.0164508
58.0336
-0.0198959
58.5481
-0.0233878
59.0614
-0.0269233
59.5734
-0.0305007
60.0845
-0.0341175
60.5946
-0.037771
61.104
-0.0414588
61.6126
-0.0451786
62.1207
-0.0489281
62.6283
-0.0527044
63.1355
-0.0565054
63.6423
-0.0603282
64.149
-0.0641707
64.6554
-0.0680302
65.1619
-0.0719039
65.6683
-0.0757897
66.1747
-0.0796851
66.6813
-0.0835869
67.188
-0.087493
67.6949
-0.091401
68.2021
-0.0953081
68.7095
-0.0992117
69.2173
-0.103109
69.7255
-0.106998
70.234
-0.110876
70.7429
-0.114741
71.2522
-0.118589
71.7618
-0.122419
72.2724
-0.126226
72.7816
-0.130013
73.297
-0.133763
73.7948
-0.137517
74.3484
-0.14114
-0.14504
74.7326
31.4421
0.124724
-30.9577
31.9645
0.124403
32.5156
0.124048
33.0884
0.123624
33.677
0.123105
34.2769
0.122468
34.8842
0.121696
35.4958
0.120774
36.1093
0.119693
36.723
0.118444
37.3352
0.11702
37.9449
0.115418
38.5512
0.113633
39.1535
0.111663
39.7513
0.109508
40.3443
0.107167
40.9322
0.10464
41.5149
0.101928
42.0924
0.0990313
42.6647
0.0959518
43.2317
0.0926912
43.7937
0.0892516
44.3506
0.085635
44.9026
0.081844
45.4499
0.0778813
45.9926
0.0737497
46.5309
0.0694517
47.065
0.064991
47.595
0.0603702
48.1211
0.0555931
48.6435
0.0506626
49.1625
0.0455826
49.678
0.0403562
50.1905
0.0349878
50.6999
0.0294805
51.2066
0.0238383
51.7107
0.0180652
52.2122
0.0121649
52.7116
0.00614191
53.2087
0
53.7039
-0.00625662
54.1973
-0.0126237
54.689
-0.0190972
55.1792
-0.0256724
55.668
-0.0323452
56.1556
-0.039111
56.642
-0.0459651
57.1274
-0.0529038
57.6119
-0.0599216
58.0956
-0.0670145
58.5787
-0.0741773
59.0612
-0.081406
59.5432
-0.0886953
60.0249
-0.0960408
60.5063
-0.103437
60.9875
-0.110881
61.4686
-0.118365
61.9497
-0.125887
62.4308
-0.133441
62.912
-0.141021
63.3933
-0.148624
63.8749
-0.156244
64.3568
-0.163876
64.8389
-0.171515
65.3215
-0.179157
65.8044
-0.186796
66.2878
-0.194428
66.7717
-0.202047
67.256
-0.209649
67.7409
-0.217228
68.2263
-0.224781
68.7124
-0.232301
69.1987
-0.239784
69.6863
-0.247224
70.1726
-0.254623
70.6649
-0.261951
71.141
-0.269282
71.6693
-0.276364
-0.283971
72.0405
31.1253
0.188117
-30.6347
31.6427
0.187632
32.1796
0.187046
32.7309
0.186319
33.2925
0.185423
33.8609
0.184331
34.4335
0.183026
35.0081
0.181492
35.5829
0.179716
36.1567
0.17769
36.7284
0.175407
37.2971
0.172862
37.8623
0.170051
38.4236
0.166973
38.9805
0.163627
39.533
0.160012
40.0808
0.156129
40.6238
0.151979
41.1622
0.147564
41.6959
0.142887
42.2249
0.137949
42.7493
0.132754
43.2693
0.127305
43.785
0.121605
44.2966
0.11566
44.8041
0.109471
45.3077
0.103044
45.8076
0.096383
46.304
0.0894927
46.797
0.0823775
47.2868
0.0750424
47.7736
0.0674926
48.2575
0.0597329
48.7387
0.051769
49.2173
0.0436057
49.6936
0.035249
50.1676
0.0267045
50.6396
0.0179773
51.1096
0.00907392
51.5779
0
52.0445
-0.00923847
52.5096
-0.0186354
52.9734
-0.0281849
53.4359
-0.0378801
53.8974
-0.0477151
54.3578
-0.0576836
54.8174
-0.0677786
55.2763
-0.0779942
55.7345
-0.0883233
56.1921
-0.0987596
56.6494
-0.109296
57.1062
-0.119926
57.5629
-0.130643
58.0193
-0.141439
58.4757
-0.152309
58.9321
-0.163244
59.3885
-0.174238
59.8451
-0.185284
60.3019
-0.196375
60.7589
-0.207504
61.2163
-0.218663
61.6741
-0.229846
62.1322
-0.241045
62.5909
-0.252254
63.05
-0.263464
63.5097
-0.27467
63.97
-0.285862
64.4308
-0.297036
64.8923
-0.308183
65.3545
-0.319296
65.8172
-0.330368
66.2808
-0.341391
66.7448
-0.352361
67.21
-0.363265
67.6743
-0.374109
68.1444
-0.384849
68.5994
-0.395592
69.1034
-0.405975
-0.417107
69.4607
30.8233
0.252278
-30.3379
31.3272
0.251559
31.8439
0.250657
32.3698
0.249534
32.902
0.248161
33.438
0.246514
33.9759
0.244573
34.5142
0.242324
35.0516
0.239756
35.5872
0.236859
36.1203
0.233627
36.6503
0.230055
37.1768
0.22614
37.6994
0.221881
38.218
0.217278
38.7325
0.212329
39.2427
0.207038
39.7487
0.201405
40.2504
0.195434
40.7479
0.189126
41.2413
0.182487
41.7307
0.175519
42.2161
0.168226
42.6977
0.160614
43.1757
0.152687
43.6502
0.144451
44.1213
0.13591
44.5892
0.12707
45.054
0.117938
45.5158
0.108519
45.9749
0.0988186
46.4315
0.0888445
46.8855
0.0786027
47.3372
0.0681002
47.7868
0.0573433
48.2344
0.0463396
48.6801
0.0350959
49.1241
0.0236199
49.5665
0.0119187
50.0074
0
50.447
-0.0121285
50.8854
-0.0244591
51.3227
-0.0369838
51.7591
-0.0496941
52.1946
-0.0625831
52.6294
-0.0756412
53.0636
-0.0888609
53.4972
-0.102234
53.9305
-0.115751
54.3634
-0.129404
54.796
-0.143184
55.2285
-0.157083
55.661
-0.171091
56.0935
-0.185201
56.526
-0.199402
56.9587
-0.213687
57.3917
-0.228045
57.8249
-0.242468
58.2585
-0.256947
58.6925
-0.271473
59.127
-0.286036
59.562
-0.300628
59.9975
-0.315239
60.4336
-0.32986
60.8704
-0.344481
61.3078
-0.359094
61.7459
-0.373689
62.1847
-0.388257
62.6243
-0.402788
63.0646
-0.417274
63.5057
-0.431705
63.9476
-0.446072
64.3901
-0.460367
64.834
-0.474577
65.277
-0.488706
65.7257
-0.5027
66.1603
-0.516694
66.6413
-0.530225
-0.544711
66.984
30.5183
0.317121
-30.0462
31.0028
0.316072
31.4955
0.314753
31.9938
0.313132
32.4955
0.31118
32.999
0.308875
33.5028
0.306201
34.006
0.303144
34.5076
0.299692
35.007
0.295838
35.5036
0.291576
35.9971
0.286902
36.4873
0.281815
36.9738
0.276312
37.4566
0.270394
37.9355
0.264062
38.4107
0.257318
38.882
0.250165
39.3495
0.242605
39.8132
0.234643
40.2734
0.226283
40.73
0.217529
41.1831
0.208387
41.6329
0.198863
42.0795
0.188961
42.5231
0.178689
42.9637
0.168052
43.4016
0.157058
43.8368
0.145713
44.2695
0.134025
44.6998
0.122001
45.1279
0.109649
45.5539
0.096976
45.978
0.0839913
46.4002
0.0707024
46.8208
0.0571179
47.2399
0.0432468
47.6575
0.0290973
48.0738
0.0146786
48.489
0
48.9031
-0.0149294
49.3163
-0.0301005
49.7286
-0.0455033
50.1403
-0.0611281
50.5513
-0.0769656
50.9618
-0.0930057
51.3719
-0.109238
51.7817
-0.125653
52.1913
-0.142239
52.6007
-0.158988
53.0101
-0.175888
53.4195
-0.192928
53.829
-0.210099
54.2387
-0.227389
54.6486
-0.244787
55.0589
-0.262284
55.4695
-0.279867
55.8805
-0.297527
56.292
-0.315251
56.7041
-0.33303
57.1167
-0.350851
57.53
-0.368704
57.9439
-0.386578
58.3586
-0.404461
58.7739
-0.422342
59.1901
-0.440211
59.607
-0.458055
60.0248
-0.475865
60.4433
-0.493628
60.8628
-0.511333
61.2831
-0.52897
61.7043
-0.546526
62.1262
-0.563993
62.5495
-0.581354
62.9722
-0.598615
63.4003
-0.615711
63.8153
-0.632803
64.2743
-0.649336
-0.667013
64.6024
30.2012
0.382515
-29.7478
30.6628
0.381028
31.1293
0.379189
31.5988
0.376966
32.07
0.374336
32.5414
0.371279
33.0123
0.367779
33.4818
0.363826
33.9494
0.359408
34.4145
0.354521
34.8769
0.349158
35.3362
0.343316
35.7923
0.336995
36.245
0.330194
36.6943
0.322914
37.1402
0.315156
37.5826
0.306923
38.0216
0.298218
38.4572
0.289046
38.8895
0.27941
39.3186
0.269316
39.7446
0.25877
40.1676
0.247777
40.5877
0.236344
41.005
0.224478
41.4196
0.212185
41.8318
0.199473
42.2415
0.186351
42.649
0.172825
43.0544
0.158904
43.4577
0.144598
43.8592
0.129914
44.2589
0.114862
44.657
0.0994516
45.0536
0.0836915
45.4488
0.0675917
45.8428
0.0511626
46.2356
0.0344141
46.6274
0.0173563
47.0183
0
47.4084
-0.0176441
47.7978
-0.0355653
48.1866
-0.0537523
48.5749
-0.0721943
48.9628
-0.0908793
49.3504
-0.109797
49.7377
-0.128934
50.125
-0.14828
50.5122
-0.167823
50.8994
-0.18755
51.2867
-0.20745
51.6742
-0.22751
52.062
-0.247718
52.45
-0.268062
52.8385
-0.288529
53.2274
-0.309106
53.6167
-0.329782
54.0067
-0.350542
54.3972
-0.371376
54.7884
-0.392268
55.1803
-0.413208
55.5729
-0.434181
55.9662
-0.455176
56.3604
-0.476178
56.7554
-0.497175
57.1512
-0.518155
57.5479
-0.539103
57.9456
-0.560007
58.3441
-0.580855
58.7436
-0.601633
59.144
-0.622328
59.5454
-0.642926
59.9476
-0.663418
60.3512
-0.683783
60.7544
-0.70403
61.1628
-0.724081
61.5589
-0.744125
61.9968
-0.763519
-0.78423
62.3108
29.8677
0.448313
-29.4363
30.3044
0.446282
30.7437
0.443818
31.1844
0.440896
31.6255
0.437494
32.0659
0.433596
32.5052
0.429187
32.9427
0.424259
33.3781
0.418803
33.8109
0.412813
34.2411
0.406286
34.6683
0.39922
35.0926
0.391614
35.5138
0.383468
35.9319
0.374785
36.3468
0.365565
36.7587
0.355813
37.1676
0.345533
37.5735
0.334729
37.9764
0.323406
38.3766
0.311571
38.7741
0.29923
39.1689
0.286388
39.5612
0.273055
39.9512
0.259236
40.3388
0.244941
40.7243
0.230178
41.1078
0.214955
41.4894
0.199281
41.8691
0.183166
42.2472
0.166619
42.6237
0.149651
42.9987
0.132271
43.3724
0.11449
43.7449
0.0963192
44.1163
0.0777685
44.4867
0.0588499
44.8562
0.0395744
45.225
0.0199539
45.593
0
45.9604
-0.0202751
46.3274
-0.040859
46.694
-0.0617397
47.0603
-0.082904
47.4263
-0.10434
47.7922
-0.126034
48.1581
-0.147972
48.524
-0.170144
48.89
-0.192533
49.2562
-0.215127
49.6227
-0.237912
49.9894
-0.260875
50.3566
-0.284002
50.7241
-0.307278
51.0922
-0.330689
51.4609
-0.354222
51.8301
-0.377862
52.2
-0.401595
52.5706
-0.425406
52.9419
-0.449281
53.314
-0.473205
53.6869
-0.497164
54.0607
-0.521142
54.4354
-0.545127
54.8109
-0.569102
55.1874
-0.593053
55.5649
-0.616966
55.9433
-0.640826
56.3227
-0.664618
56.7031
-0.688327
57.0845
-0.71194
57.4669
-0.73544
57.8503
-0.758816
58.235
-0.782045
58.6195
-0.805137
59.0091
-0.828004
59.3871
-0.850859
59.8048
-0.872979
-0.896574
60.1052
29.516
0.514364
-29.1084
29.927
0.511687
30.3391
0.508502
30.7514
0.504789
31.1633
0.50053
31.574
0.495709
31.9832
0.490317
32.3904
0.484344
32.7954
0.477784
33.198
0.470633
33.5979
0.462888
33.9952
0.454548
34.3898
0.445612
34.7815
0.436083
35.1705
0.425962
35.5566
0.415252
35.9401
0.403958
36.3209
0.392084
36.699
0.379634
37.0746
0.366616
37.4478
0.353036
37.8186
0.338901
38.1872
0.324217
38.5536
0.308994
38.918
0.29324
39.2804
0.276963
39.641
0.260173
39.9999
0.242879
40.3571
0.225091
40.7129
0.20682
41.0673
0.188076
41.4204
0.16887
41.7723
0.149213
42.1231
0.129117
42.473
0.108594
42.822
0.087656
43.1702
0.0663146
43.5178
0.0445828
43.8648
0.0224736
44.2113
0
44.5574
-0.0228247
44.9033
-0.0459872
45.2489
-0.0694736
45.5944
-0.09327
45.9398
-0.117362
46.2853
-0.141736
46.6309
-0.166377
46.9766
-0.19127
47.3226
-0.216401
47.6689
-0.241755
48.0156
-0.267316
48.3627
-0.29307
48.7103
-0.319
49.0585
-0.345092
49.4072
-0.37133
49.7566
-0.397699
50.1068
-0.424181
50.4576
-0.450762
50.8092
-0.477426
51.1617
-0.504156
51.515
-0.530937
51.8692
-0.557752
52.2244
-0.584586
52.5805
-0.611421
52.9375
-0.638243
53.2956
-0.665033
53.6546
-0.691777
54.0147
-0.718459
54.3759
-0.745061
54.7381
-0.771567
55.1013
-0.797963
55.4657
-0.824229
55.8309
-0.850354
56.1977
-0.876313
56.5643
-0.902116
56.9358
-0.927666
57.2965
-0.953198
57.6949
-0.977915
-1.00425
57.9822
29.1459
0.58052
-28.7627
29.5311
0.577102
29.9164
0.573108
30.3013
0.568522
30.6851
0.563327
31.0675
0.557513
31.4482
0.55107
31.8269
0.543991
32.2034
0.536271
32.5776
0.527907
32.9493
0.518897
33.3186
0.509241
33.6854
0.498939
34.0497
0.487994
34.4115
0.476408
34.7708
0.464186
35.1278
0.451331
35.4823
0.437849
35.8347
0.423746
36.1848
0.409028
36.5328
0.393704
36.8787
0.377779
37.2228
0.361263
37.565
0.344164
37.9054
0.326492
38.2443
0.308256
38.5816
0.289465
38.9174
0.270132
39.252
0.250265
39.5853
0.229877
39.9174
0.208978
40.2485
0.187582
40.5787
0.165699
40.9081
0.143343
41.2367
0.120526
41.5647
0.0972616
41.8921
0.0735629
42.219
0.0494439
42.5456
0.0249181
42.8719
0
43.1979
-0.025296
43.5238
-0.0509553
43.8497
-0.0769626
44.1756
-0.103303
44.5016
-0.129962
44.8277
-0.156922
45.1541
-0.18417
45.4808
-0.211687
45.8079
-0.239459
46.1354
-0.267469
46.4634
-0.295701
46.7919
-0.324138
47.121
-0.352763
47.4507
-0.381559
47.7812
-0.410511
48.1124
-0.439599
48.4443
-0.468808
48.7771
-0.498119
49.1107
-0.527516
49.4453
-0.556981
49.7807
-0.586497
50.1171
-0.616045
50.4545
-0.645609
50.7929
-0.67517
51.1324
-0.704711
51.4729
-0.734215
51.8144
-0.763663
52.157
-0.793038
52.5007
-0.822322
52.8456
-0.851497
53.1915
-0.880546
53.5385
-0.909451
53.8866
-0.938197
54.2361
-0.966757
54.5856
-0.995141
54.9398
-1.02325
55.2839
-1.05133
55.6638
-1.07852
-1.10745
55.9386
28.7579
0.646641
-28.399
29.1178
0.642395
29.4772
0.637513
29.8357
0.631979
30.1929
0.625782
30.5485
0.618911
30.9023
0.611359
31.2542
0.60312
31.604
0.594192
31.9516
0.584571
32.297
0.574256
32.6402
0.563249
32.9811
0.551551
33.3198
0.539164
33.6562
0.526092
33.9906
0.512339
34.3228
0.49791
34.653
0.482812
34.9812
0.467051
35.3075
0.450634
35.632
0.433568
35.9548
0.415863
36.2759
0.397527
36.5955
0.378568
36.9136
0.358999
37.2304
0.338827
37.5459
0.318065
37.8602
0.296723
38.1735
0.274813
38.4857
0.252347
38.7971
0.229338
39.1076
0.205798
39.4174
0.181739
39.7266
0.157176
40.0353
0.132123
40.3435
0.106593
40.6513
0.0806011
40.9588
0.0541615
41.2662
0.0272893
41.5734
0
41.8805
-0.027691
42.1877
-0.0557681
42.4949
-0.0842151
42.8023
-0.113015
43.1099
-0.142153
43.4179
-0.171611
43.7261
-0.201372
44.0348
-0.23142
44.344
-0.261736
44.6537
-0.292304
44.964
-0.323105
45.2749
-0.354122
45.5864
-0.385337
45.8987
-0.416731
46.2118
-0.448287
46.5257
-0.479986
46.8405
-0.511809
47.1561
-0.543738
47.4726
-0.575753
47.7901
-0.607838
48.1086
-0.639971
48.4281
-0.672135
48.7486
-0.70431
49.0702
-0.736477
49.3929
-0.768618
49.7166
-0.800714
50.0415
-0.832744
50.3675
-0.86469
50.6946
-0.896534
51.0228
-0.928256
51.3522
-0.959836
51.6827
-0.991256
52.0143
-1.0225
52.3474
-1.05354
52.6805
-1.08438
53.0182
-1.11492
53.3463
-1.14542
53.7085
-1.17497
-1.20637
53.9713
28.3531
0.712593
-28.018
28.6886
0.707444
29.0231
0.701603
29.3565
0.695057
29.6885
0.687797
30.0189
0.679814
30.3475
0.671104
30.6742
0.66166
30.999
0.651481
31.3218
0.640566
31.6426
0.628915
31.9614
0.616528
32.2781
0.603408
32.593
0.589559
32.9058
0.574984
33.2169
0.559689
33.526
0.543679
33.8335
0.52696
34.1392
0.50954
34.4433
0.491426
34.7459
0.472627
35.0471
0.453152
35.3468
0.43301
35.6453
0.412211
35.9425
0.390766
36.2387
0.368685
36.5338
0.34598
36.828
0.322663
37.1213
0.298747
37.4138
0.274243
37.7057
0.249166
37.9969
0.223528
38.2876
0.197344
38.5779
0.170628
38.8678
0.143394
39.1574
0.115658
39.4468
0.0874348
39.7361
0.0587402
40.0253
0.0295897
40.3146
0
40.6039
-0.0300125
40.8934
-0.0604311
41.183
-0.0912382
41.473
-0.122417
41.7633
-0.15395
42.054
-0.185819
42.3452
-0.218006
42.6369
-0.250492
42.9291
-0.28326
43.222
-0.316291
43.5155
-0.349565
43.8097
-0.383063
44.1047
-0.416767
44.4005
-0.450658
44.6971
-0.484715
44.9946
-0.518918
45.293
-0.553249
45.5923
-0.587687
45.8927
-0.622212
46.194
-0.656805
46.4963
-0.691444
46.7998
-0.726111
47.1042
-0.760785
47.4098
-0.795444
47.7165
-0.83007
48.0243
-0.864641
48.3333
-0.899138
48.6434
-0.933539
48.9546
-0.967825
49.2671
-1.00198
49.5806
-1.03597
49.8954
-1.06979
50.2113
-1.10341
50.5286
-1.13681
50.8461
-1.17
51.168
-1.20285
51.481
-1.23566
51.8262
-1.26746
-1.3012
52.0774
27.9328
0.778255
-27.6208
28.2449
0.772136
28.5559
0.765275
28.8656
0.757661
29.1738
0.749287
29.4804
0.740146
29.7854
0.730233
30.0886
0.719546
30.39
0.708083
30.6897
0.695843
30.9875
0.682828
31.2836
0.669039
31.5779
0.654479
31.8705
0.639152
32.1614
0.623063
32.4507
0.606218
32.7384
0.588621
33.0246
0.570281
33.3094
0.551205
33.5928
0.531402
33.8749
0.51088
34.1559
0.489648
34.4357
0.467717
34.7144
0.445097
34.9922
0.4218
35.269
0.397838
35.545
0.373221
35.8203
0.347963
36.095
0.322076
36.369
0.295575
36.6426
0.268473
36.9157
0.240785
37.1885
0.212524
37.461
0.183707
37.7333
0.154348
38.0055
0.124464
38.2776
0.09407
38.5497
0.0631836
38.8219
0.0318212
39.0942
0
39.3668
-0.0322625
39.6396
-0.0649486
39.9127
-0.0980401
40.1862
-0.131519
40.4602
-0.165366
40.7346
-0.199563
41.0096
-0.23409
41.2852
-0.268929
41.5615
-0.304059
41.8384
-0.339461
42.1161
-0.375115
42.3945
-0.411001
42.6738
-0.447098
42.9539
-0.483386
43.2349
-0.519845
43.5169
-0.556453
43.7998
-0.593189
44.0837
-0.630033
44.3686
-0.666963
44.6546
-0.703959
44.9416
-0.740998
45.2297
-0.77806
45.519
-0.815123
45.8093
-0.852166
46.1008
-0.889166
46.3934
-0.926103
46.6872
-0.962955
46.9822
-0.9997
47.2784
-1.03632
47.5758
-1.07278
47.8743
-1.10908
48.174
-1.14518
48.4749
-1.18108
48.7772
-1.21672
49.0798
-1.25214
49.3865
-1.2872
49.685
-1.32221
50.0139
-1.35614
-1.3921
50.2542
27.4988
0.843516
-27.2087
27.7886
0.83637
28.0773
0.828435
28.3646
0.819705
28.6505
0.810173
28.9349
0.799834
29.2177
0.788684
29.499
0.776722
29.7786
0.763946
30.0567
0.750358
30.3331
0.735958
30.608
0.720749
30.8814
0.704735
31.1533
0.68792
31.4237
0.67031
31.6928
0.65191
31.9605
0.632726
32.2269
0.612768
32.4922
0.592042
32.7563
0.570558
33.0193
0.548325
33.2814
0.525353
33.5425
0.501652
33.8028
0.477235
34.0624
0.452111
34.3212
0.426294
34.5794
0.399797
34.837
0.372632
35.0942
0.344813
35.3509
0.316355
35.6073
0.287271
35.8635
0.257578
36.1194
0.227289
36.3753
0.196422
36.631
0.164992
36.8868
0.133017
37.1426
0.100512
37.3986
0.0674961
37.6548
0.0339859
37.9112
0
38.1679
-0.0344434
38.425
-0.0693258
38.6825
-0.104628
38.9405
-0.140331
39.199
-0.176414
39.4582
-0.212859
39.7179
-0.249645
39.9783
-0.286752
40.2394
-0.324159
40.5013
-0.361845
40.764
-0.39979
41.0275
-0.437972
41.2919
-0.476371
41.5572
-0.514963
41.8234
-0.553728
42.0906
-0.592644
42.3588
-0.631688
42.6281
-0.670839
42.8984
-0.710075
43.1697
-0.749372
43.4422
-0.78871
43.7158
-0.828064
43.9905
-0.867413
44.2664
-0.906734
44.5434
-0.946005
44.8216
-0.985202
45.101
-1.0243
45.3816
-1.06329
45.6634
-1.10213
45.9464
-1.14081
46.2306
-1.1793
46.516
-1.21758
46.8025
-1.25563
47.0905
-1.29342
47.3788
-1.33096
47.6711
-1.36812
47.9556
-1.40521
48.2691
-1.44118
-1.47924
48.4988
27.0525
0.908276
-26.7834
27.3214
0.900053
27.589
0.891001
27.8553
0.881115
28.1203
0.870388
28.3839
0.858818
28.6461
0.846402
28.9069
0.833138
29.1662
0.819028
29.4241
0.804071
29.6807
0.78827
29.9359
0.771629
30.1897
0.754152
30.4423
0.735842
30.6937
0.716707
30.9439
0.696753
31.1929
0.675986
31.441
0.654415
31.688
0.632049
31.9341
0.608896
32.1793
0.584967
32.4238
0.560272
32.6675
0.534822
32.9106
0.50863
33.153
0.481706
33.395
0.454065
33.6365
0.425719
33.8776
0.396682
34.1184
0.366968
34.3589
0.336593
34.5993
0.305571
34.8395
0.273918
35.0796
0.24165
35.3198
0.208783
35.56
0.175336
35.8004
0.141325
36.0409
0.106767
36.2817
0.0716812
36.5228
0.0360859
36.7642
0
37.0061
-0.0365575
37.2484
-0.0735669
37.4912
-0.111009
37.7345
-0.148862
37.9785
-0.187107
38.2231
-0.225724
38.4684
-0.264689
38.7145
-0.303984
38.9613
-0.343585
39.209
-0.383472
39.4574
-0.423622
39.7068
-0.464014
39.9571
-0.504624
40.2084
-0.545431
40.4606
-0.586412
40.7138
-0.627543
40.9681
-0.668802
41.2235
-0.710166
41.4799
-0.751611
41.7374
-0.793114
41.9961
-0.834652
42.2558
-0.876201
42.5168
-0.917737
42.7789
-0.959238
43.0422
-1.00068
43.3066
-1.04204
43.5723
-1.08328
43.8392
-1.1244
44.1073
-1.16537
44.3765
-1.20615
44.647
-1.24674
44.9188
-1.2871
45.1916
-1.32721
45.466
-1.36704
45.7406
-1.4066
46.0192
-1.44576
46.2904
-1.48483
46.5891
-1.52273
-1.56279
46.8087
26.5958
0.972447
-26.3463
26.8448
0.963106
27.0928
0.952899
27.3395
0.941822
27.5849
0.929871
27.8291
0.917043
28.072
0.903337
28.3137
0.888752
28.5541
0.873289
28.7933
0.85695
29.0312
0.839738
29.2681
0.821656
29.5038
0.80271
29.7384
0.782903
29.972
0.762244
30.2046
0.740738
30.4363
0.718393
30.6671
0.695219
30.8972
0.671223
31.1265
0.646416
31.3551
0.620808
31.5831
0.59441
31.8106
0.567233
32.0375
0.539291
32.2641
0.510595
32.4902
0.48116
32.7161
0.450997
32.9417
0.420124
33.1672
0.388553
33.3925
0.356301
33.6178
0.323383
33.8431
0.289815
34.0684
0.255615
34.2939
0.2208
34.5195
0.185386
34.7454
0.149393
34.9715
0.112839
35.198
0.0757426
35.4249
0.0381231
35.6523
0
35.8801
-0.0386066
36.1084
-0.0776765
36.3374
-0.117189
36.5669
-0.157123
36.7972
-0.197457
37.0281
-0.23817
37.2598
-0.27924
37.4923
-0.320645
37.7256
-0.362362
37.9598
-0.404369
38.1949
-0.446642
38.4309
-0.48916
38.6678
-0.531898
38.9058
-0.574834
39.1447
-0.617943
39.3847
-0.661201
39.6258
-0.704585
39.868
-0.748071
40.1112
-0.791635
40.3556
-0.835251
40.6011
-0.878897
40.8478
-0.922546
41.0956
-0.966176
41.3446
-1.00976
41.5948
-1.05327
41.8462
-1.0967
42.0988
-1.14
42.3527
-1.18315
42.6077
-1.22614
42.8639
-1.26894
43.1214
-1.31152
43.3801
-1.35386
43.6399
-1.39593
43.9012
-1.4377
44.1628
-1.47919
44.4282
-1.52025
44.6868
-1.56121
44.9713
-1.60096
-1.64291
45.1812
26.1302
1.03595
-25.8993
26.3607
1.02546
26.5901
1.01406
26.8185
1.00177
27.0457
0.988569
27.2718
0.974462
27.4967
0.959448
27.7206
0.943526
27.9434
0.926698
28.1651
0.908968
28.3858
0.890337
28.6055
0.87081
28.8243
0.850392
29.0422
0.82909
29.2593
0.80691
29.4755
0.783859
29.691
0.759945
29.9059
0.735178
30.1201
0.709566
30.3337
0.683121
30.5468
0.655853
30.7595
0.627773
30.9717
0.598893
31.1836
0.569227
31.3953
0.538787
31.6067
0.507588
31.8179
0.475644
32.0291
0.442968
32.2401
0.409578
32.4512
0.37549
32.6624
0.340718
32.8736
0.305281
33.0851
0.269195
33.2967
0.232479
33.5087
0.195151
33.7209
0.15723
33.9336
0.118734
34.1466
0.0796842
34.3602
0.0400993
34.5742
0
34.7888
-0.040593
35.004
-0.0816585
35.2199
-0.123175
35.4364
-0.165122
35.6537
-0.207475
35.8717
-0.250214
36.0906
-0.293315
36.3103
-0.336755
36.5308
-0.380512
36.7523
-0.424562
36.9746
-0.46888
37.198
-0.513444
37.4223
-0.558229
37.6477
-0.60321
37.8741
-0.648364
38.1015
-0.693666
38.33
-0.739089
38.5597
-0.784611
38.7904
-0.830206
39.0223
-0.875847
39.2554
-0.921512
39.4896
-0.967172
39.725
-1.0128
39.9616
-1.05838
40.1993
-1.10388
40.4383
-1.14927
40.6785
-1.19453
40.9199
-1.23964
41.1625
-1.28456
41.4063
-1.32928
41.6514
-1.37376
41.8976
-1.41798
42.145
-1.46192
42.3938
-1.50555
42.6431
-1.54886
42.8959
-1.59173
43.1424
-1.63449
43.4134
-1.67599
-1.71972
43.6141
25.6573
1.09871
-25.4438
25.8705
1.08704
26.0827
1.07444
26.2939
1.0609
26.5041
1.04644
26.7133
1.03103
26.9215
1.0147
27.1288
0.997429
27.3352
0.979229
27.5407
0.9601
27.7453
0.940047
27.9491
0.919075
28.1522
0.897188
28.3545
0.874394
28.5561
0.850699
28.7571
0.826111
28.9575
0.800639
29.1574
0.774293
29.3569
0.747082
29.5559
0.719016
29.7545
0.690108
29.9528
0.660368
30.1509
0.629811
30.3487
0.598448
30.5464
0.566293
30.744
0.533362
30.9416
0.499668
31.1391
0.465228
31.3368
0.430056
31.5345
0.39417
31.7324
0.357587
31.9305
0.320325
32.1289
0.2824
32.3276
0.243831
32.5267
0.204639
32.7262
0.164841
32.9261
0.124457
33.1265
0.0835093
33.3275
0.0420164
33.529
0
33.7312
-0.0425185
33.934
-0.0855173
34.1375
-0.128974
34.3418
-0.172867
34.5468
-0.217173
34.7527
-0.261868
34.9594
-0.30693
35.167
-0.352335
35.3755
-0.398058
35.5849
-0.444076
35.7953
-0.490364
36.0066
-0.536897
36.219
-0.583651
36.4324
-0.6306
36.6469
-0.677719
36.8625
-0.724982
37.0791
-0.772364
37.2969
-0.819839
37.5158
-0.867381
37.7359
-0.914964
37.9571
-0.962561
38.1795
-1.01015
38.403
-1.0577
38.6278
-1.10518
38.8537
-1.15257
39.0809
-1.19985
39.3093
-1.24698
39.5388
-1.29395
39.7696
-1.34072
40.0016
-1.38726
40.2348
-1.43356
40.4692
-1.47958
40.7047
-1.5253
40.9417
-1.57068
41.1791
-1.61574
41.42
-1.66033
41.655
-1.70479
41.9131
-1.74796
-1.79339
42.1049
25.1786
1.16068
-24.9813
25.3756
1.1478
25.5717
1.13397
25.7669
1.11918
25.9613
1.10343
26.1548
1.08672
26.3475
1.06906
26.5393
1.05043
26.7304
1.03086
26.9208
1.01033
27.1105
0.988853
27.2995
0.966438
27.4879
0.943086
27.6757
0.918807
27.863
0.893606
28.0498
0.867493
28.2361
0.840477
28.4221
0.812566
28.6077
0.783773
28.7931
0.754106
28.9782
0.72358
29.1631
0.692205
29.3479
0.659994
29.5327
0.626963
29.7173
0.593124
29.902
0.558492
30.0868
0.523083
30.2716
0.486913
30.4566
0.449998
30.6419
0.412355
30.8274
0.374002
31.0132
0.334957
31.1993
0.295238
31.3858
0.254864
31.5728
0.213856
31.7602
0.172232
31.9482
0.130014
32.1367
0.0872211
32.3259
0.0438761
32.5156
0
32.7061
-0.0443851
32.8972
-0.0892565
33.0892
-0.134592
33.2818
-0.180368
33.4754
-0.226561
33.6697
-0.273147
33.865
-0.320102
34.0611
-0.367402
34.2582
-0.415022
34.4562
-0.462937
34.6553
-0.511122
34.8553
-0.559551
35.0564
-0.608199
35.2585
-0.65704
35.4617
-0.706047
35.666
-0.755195
35.8714
-0.804456
36.0779
-0.853805
36.2856
-0.903215
36.4944
-0.952658
36.7044
-1.00211
36.9155
-1.05154
37.1279
-1.10092
37.3414
-1.15023
37.5561
-1.19944
37.772
-1.24851
37.9891
-1.29744
38.2074
-1.34617
38.427
-1.3947
38.6477
-1.44299
38.8696
-1.49102
39.0928
-1.53875
39.317
-1.58617
39.5427
-1.63323
39.7688
-1.67994
39.9983
-1.72617
40.2222
-1.77225
40.468
-1.81701
-1.86405
40.6513
24.6956
1.22179
-24.5135
24.8774
1.20769
25.0586
1.19262
25.2389
1.17656
25.4185
1.15952
25.5974
1.1415
25.7756
1.1225
25.9531
1.10252
26.13
1.08156
26.3063
1.05964
26.4821
1.03674
26.6573
1.01289
26.8321
0.988081
27.0064
0.962325
27.1803
0.935631
27.3538
0.908005
27.5271
0.879459
27.7001
0.850002
27.8729
0.819645
28.0455
0.788399
28.218
0.756276
28.3904
0.723291
28.5628
0.689455
28.7353
0.654782
28.9077
0.619289
29.0803
0.582989
29.2531
0.545899
29.4261
0.508035
29.5993
0.469414
29.7728
0.430053
29.9466
0.389971
30.1209
0.349187
30.2955
0.307719
30.4706
0.265586
30.6462
0.22281
30.8224
0.17941
30.9991
0.135407
31.1764
0.0908233
31.3544
0.0456801
31.5331
0
31.7125
-0.0461944
31.8927
-0.0928803
32.0737
-0.140034
32.2554
-0.187631
32.4381
-0.235649
32.6216
-0.284062
32.806
-0.332846
32.9913
-0.381975
33.1776
-0.431424
33.3649
-0.481168
33.5532
-0.53118
33.7425
-0.581435
33.9329
-0.631905
34.1243
-0.682565
34.3169
-0.733387
34.5105
-0.784346
34.7052
-0.835412
34.9011
-0.886559
35.0981
-0.93776
35.2962
-0.988987
35.4955
-1.04021
35.696
-1.09141
35.8977
-1.14255
36.1005
-1.1936
36.3046
-1.24454
36.5098
-1.29534
36.7162
-1.34597
36.9239
-1.3964
37.1327
-1.44661
37.3427
-1.49656
37.5539
-1.54624
37.7662
-1.5956
37.9797
-1.64463
38.1946
-1.69329
38.41
-1.74159
38.6286
-1.78938
38.842
-1.837
39.0761
-1.88326
-1.93182
39.2513
24.2095
1.282
-24.0415
24.3773
1.26668
24.5444
1.25035
24.7109
1.23302
24.8768
1.21468
25.0421
1.19534
25.2068
1.175
25.371
1.15367
25.5347
1.13134
25.698
1.10801
25.8607
1.08371
26.0231
1.05842
26.1852
1.03217
26.3469
1.00495
26.5084
0.976772
26.6696
0.947649
26.8307
0.91759
26.9916
0.886605
27.1523
0.854704
27.3131
0.821901
27.4738
0.788207
27.6346
0.753636
27.7954
0.718201
27.9563
0.681918
28.1174
0.6448
28.2787
0.606865
28.4403
0.568128
28.6021
0.528605
28.7642
0.488316
28.9268
0.447277
29.0897
0.405507
29.2531
0.363025
29.4169
0.319851
29.5813
0.276005
29.7462
0.231508
29.9118
0.18638
30.0779
0.140643
30.2447
0.0943186
30.4123
0.0474302
30.5805
0
30.7495
-0.0479486
30.9193
-0.0963919
31.09
-0.145306
31.2615
-0.194666
31.4338
-0.244448
31.6071
-0.294626
31.7813
-0.345176
31.9564
-0.39607
32.1325
-0.447284
32.3097
-0.498791
32.4878
-0.550564
32.667
-0.602576
32.8472
-0.6548
33.0285
-0.70721
33.2109
-0.759778
33.3944
-0.812475
33.5791
-0.865275
33.7648
-0.918148
33.9517
-0.971067
34.1397
-1.024
34.3289
-1.07693
34.5193
-1.12982
34.7108
-1.18264
34.9035
-1.23536
35.0974
-1.28796
35.2925
-1.3404
35.4888
-1.39266
35.6862
-1.44471
35.8848
-1.49653
36.0846
-1.54807
36.2856
-1.59932
36.4877
-1.65024
36.691
-1.7008
36.8956
-1.75098
37.1008
-1.80078
37.3089
-1.85005
37.5123
-1.89913
37.7352
-1.94683
-1.99682
37.9027
23.7215
1.34128
-23.5667
23.8762
1.32472
24.0304
1.30713
24.184
1.28852
24.3372
1.26888
24.4898
1.24823
24.642
1.22655
24.7938
1.20386
24.9452
1.18016
25.0963
1.15545
25.247
1.12974
25.3975
1.10304
25.5477
1.07534
25.6977
1.04667
25.8476
1.01703
25.9973
0.986428
26.147
0.954874
26.2966
0.922381
26.4462
0.888959
26.5959
0.854621
26.7456
0.81938
26.8955
0.78325
27.0455
0.746245
27.1957
0.708379
27.3461
0.669669
27.4968
0.630131
27.6479
0.589781
27.7993
0.548636
27.951
0.506716
28.1033
0.464036
28.256
0.420619
28.4091
0.376481
28.5629
0.331645
28.7172
0.28613
28.8721
0.239957
29.0276
0.193148
29.1839
0.145725
29.3408
0.0977106
29.4985
0.0491279
29.6569
0
29.8161
-0.0496491
29.9762
-0.0997953
30.1371
-0.150414
30.2988
-0.20148
30.4615
-0.252968
30.6251
-0.304852
30.7896
-0.357107
30.9552
-0.409705
31.1217
-0.462621
31.2892
-0.515827
31.4577
-0.569297
31.6273
-0.623002
31.798
-0.676915
31.9697
-0.731008
32.1425
-0.785254
32.3164
-0.839622
32.4915
-0.894086
32.6676
-0.948616
32.8449
-1.00318
33.0234
-1.05776
33.203
-1.11232
33.3837
-1.16682
33.5656
-1.22125
33.7487
-1.27557
33.933
-1.32976
34.1184
-1.38377
34.305
-1.43759
34.4927
-1.49119
34.6817
-1.54453
34.8718
-1.59759
35.063
-1.65034
35.2554
-1.70274
35.4489
-1.75477
35.6437
-1.8064
35.8391
-1.85762
36.0374
-1.9083
36.2312
-1.95877
36.4434
-2.00784
-2.05919
36.6036
23.2328
1.39958
-23.0903
23.3754
1.38178
23.5174
1.36293
23.6591
1.34304
23.8004
1.32211
23.9413
1.30014
24.0819
1.27713
24.2221
1.2531
24.3621
1.22803
24.5019
1.20194
24.6414
1.17484
24.7808
1.14673
24.92
1.11761
25.0591
1.0875
25.1982
1.05641
25.3372
1.02435
25.4763
0.991319
25.6154
0.957338
25.7545
0.922417
25.8938
0.886568
26.0333
0.849806
26.173
0.812144
26.3129
0.773596