/*--------------------------------*- C++ -*----------------------------------*\
| =========                 |                                                 |
| \\      /  F ield         | OpenFOAM: The Open Source CFD Toolbox           |
|  \\    /   O peration     | Version:  2312                                  |
|   \\  /    A nd           | Website:  www.openfoam.com                      |
|    \\/     M anipulation  |                                                 |
\*---------------------------------------------------------------------------*/
FoamFile
{
    version     2.0;
    format      ascii;
    arch        "LSB;label=32;scalar=64";
    class       volVectorField;
    location    "0.967";
    object      U;
}
// * * * * * * * * * * * * * * * * * * * * * * * * * * * * * * * * * * * * * //

dimensions      [0 1 -1 0 0 0 0];

internalField   nonuniform List<vector> 
31205
(
(281.038 0 0)
(279.786 0 0)
(278.486 0 0)
(277.138 0 0)
(275.739 0 0)
(274.288 0 0)
(272.784 0 0)
(271.224 0 0)
(269.607 0 0)
(267.929 0 0)
(266.189 0 0)
(264.384 0 0)
(262.511 0 0)
(260.566 0 0)
(258.545 0 0)
(256.445 0 0)
(254.261 0 0)
(251.987 0 0)
(249.618 0 0)
(247.147 0 0)
(244.565 0 0)
(241.865 0 0)
(239.034 0 0)
(236.063 0 0)
(232.934 0 0)
(229.632 0 0)
(226.133 0 0)
(222.413 0 0)
(218.436 0 0)
(214.158 0 0)
(209.52 0 0)
(204.442 0 0)
(198.813 0 0)
(192.424 0 0)
(184.818 0 0)
(175.25 0 0)
(163.171 0 0)
(149.191 0 0)
(135.33 0 0)
(123.761 0 0)
(115.438 0 0)
(110.069 0 0)
(106.86 0 0)
(105.073 0 0)
(104.189 0 0)
(103.88 0 0)
(103.946 0 0)
(104.266 0 0)
(104.764 0 0)
(105.391 0 0)
(106.114 0 0)
(106.912 0 0)
(107.767 0 0)
(108.669 0 0)
(109.608 0 0)
(110.578 0 0)
(111.572 0 0)
(112.588 0 0)
(113.62 0 0)
(114.668 0 0)
(115.727 0 0)
(116.796 0 0)
(117.875 0 0)
(118.96 0 0)
(120.051 0 0)
(121.148 0 0)
(122.248 0 0)
(123.352 0 0)
(124.458 0 0)
(125.566 0 0)
(126.676 0 0)
(127.787 0 0)
(128.899 0 0)
(130.009 0 0)
(131.125 0 0)
(132.224 0 0)
(133.375 0 0)
(134.361 0 0)
(135.851 0 0)
(279.906 0 0)
(278.646 0 0)
(277.341 0 0)
(275.987 0 0)
(274.585 0 0)
(273.132 0 0)
(271.627 0 0)
(270.067 0 0)
(268.451 0 0)
(266.776 0 0)
(265.041 0 0)
(263.241 0 0)
(261.375 0 0)
(259.438 0 0)
(257.428 0 0)
(255.339 0 0)
(253.168 0 0)
(250.91 0 0)
(248.557 0 0)
(246.105 0 0)
(243.544 0 0)
(240.866 0 0)
(238.062 0 0)
(235.118 0 0)
(232.02 0 0)
(228.752 0 0)
(225.291 0 0)
(221.613 0 0)
(217.683 0 0)
(213.458 0 0)
(208.88 0 0)
(203.871 0 0)
(198.324 0 0)
(192.035 0 0)
(184.568 0 0)
(175.204 0 0)
(163.386 0 0)
(149.645 0 0)
(135.899 0 0)
(124.297 0 0)
(115.857 0 0)
(110.353 0 0)
(107.026 0 0)
(105.143 0 0)
(104.182 0 0)
(103.808 0 0)
(103.819 0 0)
(104.089 0 0)
(104.541 0 0)
(105.126 0 0)
(105.809 0 0)
(106.567 0 0)
(107.385 0 0)
(108.249 0 0)
(109.152 0 0)
(110.086 0 0)
(111.046 0 0)
(112.027 0 0)
(113.026 0 0)
(114.039 0 0)
(115.065 0 0)
(116.102 0 0)
(117.148 0 0)
(118.201 0 0)
(119.261 0 0)
(120.325 0 0)
(121.394 0 0)
(122.467 0 0)
(123.542 0 0)
(124.619 0 0)
(125.699 0 0)
(126.779 0 0)
(127.861 0 0)
(128.941 0 0)
(130.027 0 0)
(131.096 0 0)
(132.216 0 0)
(133.178 0 0)
(134.621 0 0)
(278.708 0 0)
(277.441 0 0)
(276.129 0 0)
(274.771 0 0)
(273.364 0 0)
(271.909 0 0)
(270.402 0 0)
(268.842 0 0)
(267.227 0 0)
(265.555 0 0)
(263.822 0 0)
(262.027 0 0)
(260.167 0 0)
(258.238 0 0)
(256.236 0 0)
(254.158 0 0)
(251.998 0 0)
(249.753 0 0)
(247.415 0 0)
(244.979 0 0)
(242.436 0 0)
(239.779 0 0)
(236.996 0 0)
(234.077 0 0)
(231.006 0 0)
(227.767 0 0)
(224.339 0 0)
(220.697 0 0)
(216.807 0 0)
(212.626 0 0)
(208.097 0 0)
(203.145 0 0)
(197.663 0 0)
(191.45 0 0)
(184.083 0 0)
(174.867 0 0)
(163.255 0 0)
(149.738 0 0)
(136.153 0 0)
(124.604 0 0)
(116.132 0 0)
(110.556 0 0)
(107.151 0 0)
(105.198 0 0)
(104.175 0 0)
(103.747 0 0)
(103.708 0 0)
(103.933 0 0)
(104.343 0 0)
(104.887 0 0)
(105.531 0 0)
(106.252 0 0)
(107.033 0 0)
(107.862 0 0)
(108.73 0 0)
(109.629 0 0)
(110.555 0 0)
(111.502 0 0)
(112.468 0 0)
(113.449 0 0)
(114.443 0 0)
(115.448 0 0)
(116.462 0 0)
(117.484 0 0)
(118.512 0 0)
(119.546 0 0)
(120.584 0 0)
(121.626 0 0)
(122.672 0 0)
(123.719 0 0)
(124.769 0 0)
(125.819 0 0)
(126.872 0 0)
(127.923 0 0)
(128.979 0 0)
(130.02 0 0)
(131.109 0 0)
(132.048 0 0)
(133.446 0 0)
(277.476 0 0)
(276.203 0 0)
(274.885 0 0)
(273.522 0 0)
(272.112 0 0)
(270.654 0 0)
(269.146 0 0)
(267.586 0 0)
(265.971 0 0)
(264.301 0 0)
(262.571 0 0)
(260.781 0 0)
(258.926 0 0)
(257.003 0 0)
(255.009 0 0)
(252.94 0 0)
(250.791 0 0)
(248.557 0 0)
(246.233 0 0)
(243.811 0 0)
(241.285 0 0)
(238.645 0 0)
(235.882 0 0)
(232.984 0 0)
(229.937 0 0)
(226.724 0 0)
(223.325 0 0)
(219.713 0 0)
(215.857 0 0)
(211.714 0 0)
(207.226 0 0)
(202.32 0 0)
(196.889 0 0)
(190.733 0 0)
(183.435 0 0)
(174.32 0 0)
(162.865 0 0)
(149.548 0 0)
(136.148 0 0)
(124.713 0 0)
(116.275 0 0)
(110.682 0 0)
(107.237 0 0)
(105.236 0 0)
(104.166 0 0)
(103.693 0 0)
(103.613 0 0)
(103.797 0 0)
(104.168 0 0)
(104.674 0 0)
(105.282 0 0)
(105.967 0 0)
(106.713 0 0)
(107.508 0 0)
(108.342 0 0)
(109.208 0 0)
(110.101 0 0)
(111.016 0 0)
(111.95 0 0)
(112.899 0 0)
(113.862 0 0)
(114.836 0 0)
(115.819 0 0)
(116.81 0 0)
(117.809 0 0)
(118.812 0 0)
(119.821 0 0)
(120.833 0 0)
(121.849 0 0)
(122.868 0 0)
(123.888 0 0)
(124.91 0 0)
(125.933 0 0)
(126.956 0 0)
(127.984 0 0)
(128.997 0 0)
(130.056 0 0)
(130.971 0 0)
(132.327 0 0)
(276.23 0 0)
(274.95 0 0)
(273.628 0 0)
(272.261 0 0)
(270.848 0 0)
(269.388 0 0)
(267.879 0 0)
(266.318 0 0)
(264.705 0 0)
(263.037 0 0)
(261.311 0 0)
(259.524 0 0)
(257.674 0 0)
(255.758 0 0)
(253.772 0 0)
(251.712 0 0)
(249.573 0 0)
(247.35 0 0)
(245.038 0 0)
(242.63 0 0)
(240.119 0 0)
(237.497 0 0)
(234.752 0 0)
(231.875 0 0)
(228.85 0 0)
(225.661 0 0)
(222.287 0 0)
(218.704 0 0)
(214.878 0 0)
(210.769 0 0)
(206.319 0 0)
(201.454 0 0)
(196.066 0 0)
(189.957 0 0)
(182.712 0 0)
(173.674 0 0)
(162.348 0 0)
(149.214 0 0)
(136.008 0 0)
(124.715 0 0)
(116.345 0 0)
(110.763 0 0)
(107.298 0 0)
(105.265 0 0)
(104.157 0 0)
(103.645 0 0)
(103.526 0 0)
(103.674 0 0)
(104.009 0 0)
(104.479 0 0)
(105.052 0 0)
(105.703 0 0)
(106.416 0 0)
(107.178 0 0)
(107.979 0 0)
(108.813 0 0)
(109.674 0 0)
(110.558 0 0)
(111.461 0 0)
(112.379 0 0)
(113.312 0 0)
(114.255 0 0)
(115.209 0 0)
(116.17 0 0)
(117.139 0 0)
(118.113 0 0)
(119.093 0 0)
(120.076 0 0)
(121.063 0 0)
(122.053 0 0)
(123.045 0 0)
(124.039 0 0)
(125.034 0 0)
(126.029 0 0)
(127.029 0 0)
(128.014 0 0)
(129.045 0 0)
(129.937 0 0)
(131.253 0 0)
(274.978 0 0)
(273.693 0 0)
(272.366 0 0)
(270.996 0 0)
(269.581 0 0)
(268.12 0 0)
(266.61 0 0)
(265.051 0 0)
(263.439 0 0)
(261.773 0 0)
(260.051 0 0)
(258.269 0 0)
(256.425 0 0)
(254.516 0 0)
(252.537 0 0)
(250.486 0 0)
(248.357 0 0)
(246.145 0 0)
(243.846 0 0)
(241.452 0 0)
(238.956 0 0)
(236.35 0 0)
(233.624 0 0)
(230.765 0 0)
(227.762 0 0)
(224.596 0 0)
(221.247 0 0)
(217.691 0 0)
(213.895 0 0)
(209.817 0 0)
(205.402 0 0)
(200.575 0 0)
(195.228 0 0)
(189.16 0 0)
(181.96 0 0)
(172.988 0 0)
(161.778 0 0)
(148.82 0 0)
(135.807 0 0)
(124.667 0 0)
(116.38 0 0)
(110.823 0 0)
(107.349 0 0)
(105.289 0 0)
(104.148 0 0)
(103.602 0 0)
(103.448 0 0)
(103.56 0 0)
(103.86 0 0)
(104.297 0 0)
(104.837 0 0)
(105.455 0 0)
(106.135 0 0)
(106.865 0 0)
(107.635 0 0)
(108.438 0 0)
(109.268 0 0)
(110.121 0 0)
(110.994 0 0)
(111.882 0 0)
(112.785 0 0)
(113.699 0 0)
(114.623 0 0)
(115.556 0 0)
(116.496 0 0)
(117.442 0 0)
(118.393 0 0)
(119.348 0 0)
(120.307 0 0)
(121.269 0 0)
(122.233 0 0)
(123.199 0 0)
(124.167 0 0)
(125.134 0 0)
(126.107 0 0)
(127.066 0 0)
(128.068 0 0)
(128.937 0 0)
(130.215 0 0)
(273.723 0 0)
(272.434 0 0)
(271.105 0 0)
(269.733 0 0)
(268.317 0 0)
(266.855 0 0)
(265.346 0 0)
(263.788 0 0)
(262.178 0 0)
(260.516 0 0)
(258.798 0 0)
(257.021 0 0)
(255.183 0 0)
(253.281 0 0)
(251.31 0 0)
(249.268 0 0)
(247.149 0 0)
(244.949 0 0)
(242.663 0 0)
(240.283 0 0)
(237.802 0 0)
(235.212 0 0)
(232.504 0 0)
(229.665 0 0)
(226.682 0 0)
(223.539 0 0)
(220.215 0 0)
(216.685 0 0)
(212.918 0 0)
(208.871 0 0)
(204.489 0 0)
(199.699 0 0)
(194.391 0 0)
(188.362 0 0)
(181.203 0 0)
(172.292 0 0)
(161.192 0 0)
(148.404 0 0)
(135.584 0 0)
(124.599 0 0)
(116.401 0 0)
(110.875 0 0)
(107.395 0 0)
(105.313 0 0)
(104.143 0 0)
(103.563 0 0)
(103.375 0 0)
(103.454 0 0)
(103.721 0 0)
(104.125 0 0)
(104.633 0 0)
(105.219 0 0)
(105.868 0 0)
(106.566 0 0)
(107.306 0 0)
(108.078 0 0)
(108.879 0 0)
(109.702 0 0)
(110.545 0 0)
(111.405 0 0)
(112.278 0 0)
(113.164 0 0)
(114.059 0 0)
(114.964 0 0)
(115.876 0 0)
(116.794 0 0)
(117.717 0 0)
(118.645 0 0)
(119.576 0 0)
(120.511 0 0)
(121.448 0 0)
(122.387 0 0)
(123.328 0 0)
(124.269 0 0)
(125.215 0 0)
(126.148 0 0)
(127.122 0 0)
(127.968 0 0)
(129.209 0 0)
(272.469 0 0)
(271.177 0 0)
(269.846 0 0)
(268.472 0 0)
(267.056 0 0)
(265.595 0 0)
(264.087 0 0)
(262.531 0 0)
(260.925 0 0)
(259.266 0 0)
(257.553 0 0)
(255.782 0 0)
(253.951 0 0)
(252.056 0 0)
(250.094 0 0)
(248.061 0 0)
(245.953 0 0)
(243.765 0 0)
(241.491 0 0)
(239.125 0 0)
(236.659 0 0)
(234.086 0 0)
(231.396 0 0)
(228.576 0 0)
(225.614 0 0)
(222.493 0 0)
(219.194 0 0)
(215.69 0 0)
(211.951 0 0)
(207.935 0 0)
(203.586 0 0)
(198.831 0 0)
(193.561 0 0)
(187.57 0 0)
(180.451 0 0)
(171.599 0 0)
(160.606 0 0)
(147.986 0 0)
(135.355 0 0)
(124.524 0 0)
(116.416 0 0)
(110.924 0 0)
(107.442 0 0)
(105.34 0 0)
(104.141 0 0)
(103.53 0 0)
(103.31 0 0)
(103.356 0 0)
(103.591 0 0)
(103.963 0 0)
(104.439 0 0)
(104.995 0 0)
(105.613 0 0)
(106.281 0 0)
(106.991 0 0)
(107.734 0 0)
(108.505 0 0)
(109.299 0 0)
(110.114 0 0)
(110.945 0 0)
(111.79 0 0)
(112.648 0 0)
(113.516 0 0)
(114.392 0 0)
(115.277 0 0)
(116.168 0 0)
(117.064 0 0)
(117.965 0 0)
(118.87 0 0)
(119.778 0 0)
(120.688 0 0)
(121.601 0 0)
(122.516 0 0)
(123.431 0 0)
(124.35 0 0)
(125.258 0 0)
(126.205 0 0)
(127.029 0 0)
(128.234 0 0)
(271.216 0 0)
(269.923 0 0)
(268.59 0 0)
(267.217 0 0)
(265.801 0 0)
(264.341 0 0)
(262.835 0 0)
(261.282 0 0)
(259.68 0 0)
(258.025 0 0)
(256.317 0 0)
(254.553 0 0)
(252.728 0 0)
(250.842 0 0)
(248.889 0 0)
(246.866 0 0)
(244.769 0 0)
(242.593 0 0)
(240.332 0 0)
(237.98 0 0)
(235.53 0 0)
(232.973 0 0)
(230.301 0 0)
(227.501 0 0)
(224.56 0 0)
(221.461 0 0)
(218.186 0 0)
(214.708 0 0)
(210.997 0 0)
(207.011 0 0)
(202.694 0 0)
(197.974 0 0)
(192.741 0 0)
(186.786 0 0)
(179.707 0 0)
(170.913 0 0)
(160.027 0 0)
(147.571 0 0)
(135.127 0 0)
(124.449 0 0)
(116.431 0 0)
(110.973 0 0)
(107.49 0 0)
(105.369 0 0)
(104.143 0 0)
(103.502 0 0)
(103.251 0 0)
(103.265 0 0)
(103.469 0 0)
(103.811 0 0)
(104.256 0 0)
(104.781 0 0)
(105.37 0 0)
(106.009 0 0)
(106.689 0 0)
(107.403 0 0)
(108.146 0 0)
(108.912 0 0)
(109.699 0 0)
(110.502 0 0)
(111.32 0 0)
(112.15 0 0)
(112.991 0 0)
(113.841 0 0)
(114.698 0 0)
(115.563 0 0)
(116.433 0 0)
(117.307 0 0)
(118.186 0 0)
(119.068 0 0)
(119.953 0 0)
(120.84 0 0)
(121.729 0 0)
(122.618 0 0)
(123.513 0 0)
(124.395 0 0)
(125.316 0 0)
(126.118 0 0)
(127.288 0 0)
(269.966 0 0)
(268.672 0 0)
(267.339 0 0)
(265.966 0 0)
(264.551 0 0)
(263.093 0 0)
(261.591 0 0)
(260.041 0 0)
(258.443 0 0)
(256.794 0 0)
(255.092 0 0)
(253.334 0 0)
(251.517 0 0)
(249.639 0 0)
(247.696 0 0)
(245.683 0 0)
(243.597 0 0)
(241.433 0 0)
(239.186 0 0)
(236.848 0 0)
(234.414 0 0)
(231.874 0 0)
(229.219 0 0)
(226.439 0 0)
(223.518 0 0)
(220.442 0 0)
(217.19 0 0)
(213.739 0 0)
(210.055 0 0)
(206.098 0 0)
(201.814 0 0)
(197.129 0 0)
(191.931 0 0)
(186.012 0 0)
(178.972 0 0)
(170.236 0 0)
(159.455 0 0)
(147.161 0 0)
(134.901 0 0)
(124.374 0 0)
(116.446 0 0)
(111.023 0 0)
(107.54 0 0)
(105.402 0 0)
(104.15 0 0)
(103.48 0 0)
(103.198 0 0)
(103.182 0 0)
(103.355 0 0)
(103.667 0 0)
(104.082 0 0)
(104.579 0 0)
(105.138 0 0)
(105.748 0 0)
(106.4 0 0)
(107.087 0 0)
(107.801 0 0)
(108.54 0 0)
(109.299 0 0)
(110.076 0 0)
(110.867 0 0)
(111.67 0 0)
(112.485 0 0)
(113.308 0 0)
(114.14 0 0)
(114.978 0 0)
(115.823 0 0)
(116.672 0 0)
(117.525 0 0)
(118.382 0 0)
(119.241 0 0)
(120.103 0 0)
(120.967 0 0)
(121.832 0 0)
(122.701 0 0)
(123.559 0 0)
(124.454 0 0)
(125.235 0 0)
(126.371 0 0)
(268.719 0 0)
(267.425 0 0)
(266.093 0 0)
(264.721 0 0)
(263.308 0 0)
(261.853 0 0)
(260.354 0 0)
(258.809 0 0)
(257.215 0 0)
(255.572 0 0)
(253.876 0 0)
(252.126 0 0)
(250.317 0 0)
(248.448 0 0)
(246.514 0 0)
(244.512 0 0)
(242.438 0 0)
(240.287 0 0)
(238.053 0 0)
(235.73 0 0)
(233.311 0 0)
(230.788 0 0)
(228.151 0 0)
(225.39 0 0)
(222.49 0 0)
(219.436 0 0)
(216.208 0 0)
(212.782 0 0)
(209.126 0 0)
(205.199 0 0)
(200.946 0 0)
(196.294 0 0)
(191.132 0 0)
(185.248 0 0)
(178.245 0 0)
(169.568 0 0)
(158.891 0 0)
(146.757 0 0)
(134.678 0 0)
(124.3 0 0)
(116.461 0 0)
(111.074 0 0)
(107.593 0 0)
(105.438 0 0)
(104.161 0 0)
(103.463 0 0)
(103.151 0 0)
(103.106 0 0)
(103.25 0 0)
(103.532 0 0)
(103.919 0 0)
(104.386 0 0)
(104.917 0 0)
(105.5 0 0)
(106.124 0 0)
(106.783 0 0)
(107.471 0 0)
(108.183 0 0)
(108.915 0 0)
(109.665 0 0)
(110.43 0 0)
(111.208 0 0)
(111.997 0 0)
(112.795 0 0)
(113.601 0 0)
(114.414 0 0)
(115.233 0 0)
(116.057 0 0)
(116.886 0 0)
(117.718 0 0)
(118.553 0 0)
(119.39 0 0)
(120.23 0 0)
(121.07 0 0)
(121.915 0 0)
(122.749 0 0)
(123.619 0 0)
(124.379 0 0)
(125.482 0 0)
(267.477 0 0)
(266.183 0 0)
(264.852 0 0)
(263.483 0 0)
(262.073 0 0)
(260.621 0 0)
(259.126 0 0)
(257.585 0 0)
(255.997 0 0)
(254.36 0 0)
(252.671 0 0)
(250.928 0 0)
(249.128 0 0)
(247.268 0 0)
(245.345 0 0)
(243.354 0 0)
(241.291 0 0)
(239.153 0 0)
(236.932 0 0)
(234.624 0 0)
(232.221 0 0)
(229.715 0 0)
(227.096 0 0)
(224.354 0 0)
(221.475 0 0)
(218.443 0 0)
(215.239 0 0)
(211.838 0 0)
(208.209 0 0)
(204.311 0 0)
(200.089 0 0)
(195.471 0 0)
(190.343 0 0)
(184.493 0 0)
(177.528 0 0)
(168.907 0 0)
(158.335 0 0)
(146.359 0 0)
(134.458 0 0)
(124.226 0 0)
(116.476 0 0)
(111.125 0 0)
(107.647 0 0)
(105.477 0 0)
(104.176 0 0)
(103.451 0 0)
(103.111 0 0)
(103.037 0 0)
(103.152 0 0)
(103.405 0 0)
(103.764 0 0)
(104.204 0 0)
(104.707 0 0)
(105.263 0 0)
(105.86 0 0)
(106.493 0 0)
(107.154 0 0)
(107.84 0 0)
(108.546 0 0)
(109.271 0 0)
(110.01 0 0)
(110.763 0 0)
(111.526 0 0)
(112.299 0 0)
(113.081 0 0)
(113.869 0 0)
(114.664 0 0)
(115.463 0 0)
(116.268 0 0)
(117.075 0 0)
(117.886 0 0)
(118.7 0 0)
(119.516 0 0)
(120.332 0 0)
(121.153 0 0)
(121.964 0 0)
(122.81 0 0)
(123.55 0 0)
(124.62 0 0)
(266.24 0 0)
(264.947 0 0)
(263.619 0 0)
(262.252 0 0)
(260.845 0 0)
(259.397 0 0)
(257.907 0 0)
(256.371 0 0)
(254.789 0 0)
(253.159 0 0)
(251.477 0 0)
(249.742 0 0)
(247.951 0 0)
(246.101 0 0)
(244.187 0 0)
(242.208 0 0)
(240.157 0 0)
(238.032 0 0)
(235.825 0 0)
(233.532 0 0)
(231.144 0 0)
(228.655 0 0)
(226.055 0 0)
(223.332 0 0)
(220.473 0 0)
(217.463 0 0)
(214.283 0 0)
(210.906 0 0)
(207.304 0 0)
(203.434 0 0)
(199.243 0 0)
(194.658 0 0)
(189.563 0 0)
(183.747 0 0)
(176.819 0 0)
(168.255 0 0)
(157.786 0 0)
(145.965 0 0)
(134.24 0 0)
(124.153 0 0)
(116.491 0 0)
(111.178 0 0)
(107.704 0 0)
(105.519 0 0)
(104.196 0 0)
(103.444 0 0)
(103.076 0 0)
(102.974 0 0)
(103.061 0 0)
(103.287 0 0)
(103.618 0 0)
(104.031 0 0)
(104.508 0 0)
(105.037 0 0)
(105.608 0 0)
(106.214 0 0)
(106.85 0 0)
(107.511 0 0)
(108.192 0 0)
(108.891 0 0)
(109.606 0 0)
(110.334 0 0)
(111.073 0 0)
(111.821 0 0)
(112.579 0 0)
(113.343 0 0)
(114.114 0 0)
(114.89 0 0)
(115.67 0 0)
(116.455 0 0)
(117.242 0 0)
(118.032 0 0)
(118.825 0 0)
(119.618 0 0)
(120.416 0 0)
(121.205 0 0)
(122.027 0 0)
(122.747 0 0)
(123.784 0 0)
(265.008 0 0)
(263.718 0 0)
(262.392 0 0)
(261.028 0 0)
(259.626 0 0)
(258.182 0 0)
(256.697 0 0)
(255.167 0 0)
(253.592 0 0)
(251.968 0 0)
(250.295 0 0)
(248.568 0 0)
(246.786 0 0)
(244.945 0 0)
(243.043 0 0)
(241.074 0 0)
(239.036 0 0)
(236.923 0 0)
(234.731 0 0)
(232.452 0 0)
(230.081 0 0)
(227.609 0 0)
(225.026 0 0)
(222.322 0 0)
(219.484 0 0)
(216.496 0 0)
(213.339 0 0)
(209.987 0 0)
(206.411 0 0)
(202.569 0 0)
(198.409 0 0)
(193.855 0 0)
(188.794 0 0)
(183.01 0 0)
(176.118 0 0)
(167.611 0 0)
(157.243 0 0)
(145.576 0 0)
(134.023 0 0)
(124.08 0 0)
(116.506 0 0)
(111.231 0 0)
(107.761 0 0)
(105.563 0 0)
(104.219 0 0)
(103.441 0 0)
(103.047 0 0)
(102.918 0 0)
(102.978 0 0)
(103.177 0 0)
(103.481 0 0)
(103.868 0 0)
(104.319 0 0)
(104.822 0 0)
(105.367 0 0)
(105.949 0 0)
(106.559 0 0)
(107.195 0 0)
(107.852 0 0)
(108.527 0 0)
(109.217 0 0)
(109.921 0 0)
(110.636 0 0)
(111.361 0 0)
(112.095 0 0)
(112.836 0 0)
(113.583 0 0)
(114.336 0 0)
(115.093 0 0)
(115.855 0 0)
(116.619 0 0)
(117.387 0 0)
(118.157 0 0)
(118.927 0 0)
(119.703 0 0)
(120.469 0 0)
(121.268 0 0)
(121.968 0 0)
(122.975 0 0)
(263.783 0 0)
(262.496 0 0)
(261.173 0 0)
(259.814 0 0)
(258.415 0 0)
(256.977 0 0)
(255.497 0 0)
(253.974 0 0)
(252.405 0 0)
(250.789 0 0)
(249.123 0 0)
(247.406 0 0)
(245.633 0 0)
(243.802 0 0)
(241.91 0 0)
(239.954 0 0)
(237.928 0 0)
(235.828 0 0)
(233.65 0 0)
(231.386 0 0)
(229.031 0 0)
(226.575 0 0)
(224.011 0 0)
(221.326 0 0)
(218.508 0 0)
(215.542 0 0)
(212.407 0 0)
(209.08 0 0)
(205.53 0 0)
(201.716 0 0)
(197.585 0 0)
(193.063 0 0)
(188.034 0 0)
(182.282 0 0)
(175.425 0 0)
(166.975 0 0)
(156.708 0 0)
(145.192 0 0)
(133.809 0 0)
(124.007 0 0)
(116.521 0 0)
(111.284 0 0)
(107.82 0 0)
(105.61 0 0)
(104.245 0 0)
(103.443 0 0)
(103.023 0 0)
(102.868 0 0)
(102.901 0 0)
(103.074 0 0)
(103.353 0 0)
(103.713 0 0)
(104.139 0 0)
(104.617 0 0)
(105.138 0 0)
(105.694 0 0)
(106.281 0 0)
(106.892 0 0)
(107.525 0 0)
(108.176 0 0)
(108.843 0 0)
(109.523 0 0)
(110.215 0 0)
(110.917 0 0)
(111.628 0 0)
(112.346 0 0)
(113.071 0 0)
(113.801 0 0)
(114.536 0 0)
(115.275 0 0)
(116.017 0 0)
(116.762 0 0)
(117.51 0 0)
(118.259 0 0)
(119.012 0 0)
(119.757 0 0)
(120.533 0 0)
(121.215 0 0)
(122.191 0 0)
(262.566 0 0)
(261.282 0 0)
(259.963 0 0)
(258.608 0 0)
(257.214 0 0)
(255.782 0 0)
(254.308 0 0)
(252.791 0 0)
(251.229 0 0)
(249.621 0 0)
(247.964 0 0)
(246.255 0 0)
(244.492 0 0)
(242.672 0 0)
(240.791 0 0)
(238.846 0 0)
(236.833 0 0)
(234.746 0 0)
(232.582 0 0)
(230.333 0 0)
(227.994 0 0)
(225.555 0 0)
(223.009 0 0)
(220.343 0 0)
(217.545 0 0)
(214.6 0 0)
(211.488 0 0)
(208.185 0 0)
(204.661 0 0)
(200.874 0 0)
(196.772 0 0)
(192.281 0 0)
(187.283 0 0)
(181.562 0 0)
(174.741 0 0)
(166.346 0 0)
(156.179 0 0)
(144.813 0 0)
(133.597 0 0)
(123.934 0 0)
(116.536 0 0)
(111.337 0 0)
(107.881 0 0)
(105.66 0 0)
(104.275 0 0)
(103.45 0 0)
(103.005 0 0)
(102.823 0 0)
(102.831 0 0)
(102.979 0 0)
(103.232 0 0)
(103.568 0 0)
(103.969 0 0)
(104.422 0 0)
(104.919 0 0)
(105.452 0 0)
(106.014 0 0)
(106.602 0 0)
(107.212 0 0)
(107.84 0 0)
(108.483 0 0)
(109.141 0 0)
(109.81 0 0)
(110.49 0 0)
(111.178 0 0)
(111.874 0 0)
(112.576 0 0)
(113.284 0 0)
(113.998 0 0)
(114.715 0 0)
(115.435 0 0)
(116.159 0 0)
(116.885 0 0)
(117.613 0 0)
(118.344 0 0)
(119.068 0 0)
(119.822 0 0)
(120.485 0 0)
(121.432 0 0)
(261.356 0 0)
(260.076 0 0)
(258.762 0 0)
(257.411 0 0)
(256.023 0 0)
(254.596 0 0)
(253.129 0 0)
(251.619 0 0)
(250.065 0 0)
(248.465 0 0)
(246.816 0 0)
(245.117 0 0)
(243.364 0 0)
(241.554 0 0)
(239.684 0 0)
(237.751 0 0)
(235.751 0 0)
(233.678 0 0)
(231.528 0 0)
(229.294 0 0)
(226.97 0 0)
(224.549 0 0)
(222.02 0 0)
(219.373 0 0)
(216.595 0 0)
(213.671 0 0)
(210.582 0 0)
(207.303 0 0)
(203.804 0 0)
(200.044 0 0)
(195.971 0 0)
(191.509 0 0)
(186.542 0 0)
(180.851 0 0)
(174.064 0 0)
(165.725 0 0)
(155.657 0 0)
(144.438 0 0)
(133.387 0 0)
(123.862 0 0)
(116.549 0 0)
(111.391 0 0)
(107.942 0 0)
(105.711 0 0)
(104.308 0 0)
(103.46 0 0)
(102.991 0 0)
(102.785 0 0)
(102.768 0 0)
(102.891 0 0)
(103.12 0 0)
(103.431 0 0)
(103.808 0 0)
(104.238 0 0)
(104.711 0 0)
(105.22 0 0)
(105.759 0 0)
(106.324 0 0)
(106.911 0 0)
(107.517 0 0)
(108.138 0 0)
(108.773 0 0)
(109.42 0 0)
(110.078 0 0)
(110.744 0 0)
(111.419 0 0)
(112.1 0 0)
(112.786 0 0)
(113.478 0 0)
(114.174 0 0)
(114.873 0 0)
(115.576 0 0)
(116.281 0 0)
(116.987 0 0)
(117.698 0 0)
(118.401 0 0)
(119.133 0 0)
(119.779 0 0)
(120.697 0 0)
(260.155 0 0)
(258.879 0 0)
(257.57 0 0)
(256.225 0 0)
(254.843 0 0)
(253.422 0 0)
(251.961 0 0)
(250.459 0 0)
(248.913 0 0)
(247.321 0 0)
(245.681 0 0)
(243.991 0 0)
(242.248 0 0)
(240.449 0 0)
(238.591 0 0)
(236.67 0 0)
(234.682 0 0)
(232.622 0 0)
(230.486 0 0)
(228.268 0 0)
(225.96 0 0)
(223.555 0 0)
(221.044 0 0)
(218.416 0 0)
(215.658 0 0)
(212.755 0 0)
(209.688 0 0)
(206.432 0 0)
(202.958 0 0)
(199.225 0 0)
(195.18 0 0)
(190.748 0 0)
(185.81 0 0)
(180.149 0 0)
(173.396 0 0)
(165.111 0 0)
(155.142 0 0)
(144.068 0 0)
(133.179 0 0)
(123.789 0 0)
(116.563 0 0)
(111.444 0 0)
(108.004 0 0)
(105.765 0 0)
(104.344 0 0)
(103.474 0 0)
(102.981 0 0)
(102.752 0 0)
(102.711 0 0)
(102.809 0 0)
(103.014 0 0)
(103.302 0 0)
(103.656 0 0)
(104.062 0 0)
(104.512 0 0)
(104.999 0 0)
(105.516 0 0)
(106.059 0 0)
(106.623 0 0)
(107.207 0 0)
(107.806 0 0)
(108.42 0 0)
(109.045 0 0)
(109.682 0 0)
(110.327 0 0)
(110.98 0 0)
(111.64 0 0)
(112.306 0 0)
(112.976 0 0)
(113.652 0 0)
(114.33 0 0)
(115.012 0 0)
(115.697 0 0)
(116.383 0 0)
(117.073 0 0)
(117.757 0 0)
(118.467 0 0)
(119.095 0 0)
(119.985 0 0)
(258.963 0 0)
(257.692 0 0)
(256.388 0 0)
(255.049 0 0)
(253.673 0 0)
(252.259 0 0)
(250.805 0 0)
(249.31 0 0)
(247.772 0 0)
(246.189 0 0)
(244.559 0 0)
(242.878 0 0)
(241.145 0 0)
(239.357 0 0)
(237.511 0 0)
(235.602 0 0)
(233.626 0 0)
(231.581 0 0)
(229.459 0 0)
(227.255 0 0)
(224.963 0 0)
(222.575 0 0)
(220.082 0 0)
(217.472 0 0)
(214.734 0 0)
(211.852 0 0)
(208.806 0 0)
(205.574 0 0)
(202.124 0 0)
(198.417 0 0)
(194.399 0 0)
(189.996 0 0)
(185.087 0 0)
(179.455 0 0)
(172.735 0 0)
(164.506 0 0)
(154.634 0 0)
(143.703 0 0)
(132.973 0 0)
(123.717 0 0)
(116.576 0 0)
(111.498 0 0)
(108.067 0 0)
(105.82 0 0)
(104.382 0 0)
(103.492 0 0)
(102.977 0 0)
(102.723 0 0)
(102.659 0 0)
(102.734 0 0)
(102.916 0 0)
(103.181 0 0)
(103.512 0 0)
(103.896 0 0)
(104.324 0 0)
(104.788 0 0)
(105.283 0 0)
(105.804 0 0)
(106.347 0 0)
(106.909 0 0)
(107.488 0 0)
(108.08 0 0)
(108.685 0 0)
(109.3 0 0)
(109.925 0 0)
(110.557 0 0)
(111.197 0 0)
(111.842 0 0)
(112.492 0 0)
(113.147 0 0)
(113.806 0 0)
(114.468 0 0)
(115.133 0 0)
(115.799 0 0)
(116.469 0 0)
(117.133 0 0)
(117.823 0 0)
(118.434 0 0)
(119.296 0 0)
(257.781 0 0)
(256.515 0 0)
(255.217 0 0)
(253.883 0 0)
(252.514 0 0)
(251.107 0 0)
(249.661 0 0)
(248.174 0 0)
(246.644 0 0)
(245.07 0 0)
(243.449 0 0)
(241.778 0 0)
(240.056 0 0)
(238.279 0 0)
(236.443 0 0)
(234.547 0 0)
(232.584 0 0)
(230.552 0 0)
(228.445 0 0)
(226.256 0 0)
(223.98 0 0)
(221.608 0 0)
(219.132 0 0)
(216.541 0 0)
(213.823 0 0)
(210.961 0 0)
(207.937 0 0)
(204.728 0 0)
(201.302 0 0)
(197.62 0 0)
(193.63 0 0)
(189.255 0 0)
(184.374 0 0)
(178.77 0 0)
(172.083 0 0)
(163.908 0 0)
(154.132 0 0)
(143.342 0 0)
(132.769 0 0)
(123.644 0 0)
(116.589 0 0)
(111.552 0 0)
(108.131 0 0)
(105.877 0 0)
(104.423 0 0)
(103.513 0 0)
(102.976 0 0)
(102.7 0 0)
(102.613 0 0)
(102.666 0 0)
(102.825 0 0)
(103.068 0 0)
(103.376 0 0)
(103.738 0 0)
(104.145 0 0)
(104.588 0 0)
(105.061 0 0)
(105.561 0 0)
(106.083 0 0)
(106.624 0 0)
(107.182 0 0)
(107.754 0 0)
(108.338 0 0)
(108.933 0 0)
(109.538 0 0)
(110.15 0 0)
(110.769 0 0)
(111.395 0 0)
(112.026 0 0)
(112.661 0 0)
(113.3 0 0)
(113.942 0 0)
(114.588 0 0)
(115.234 0 0)
(115.885 0 0)
(116.53 0 0)
(117.2 0 0)
(117.794 0 0)
(118.63 0 0)
(256.608 0 0)
(255.349 0 0)
(254.056 0 0)
(252.729 0 0)
(251.367 0 0)
(249.967 0 0)
(248.528 0 0)
(247.049 0 0)
(245.528 0 0)
(243.963 0 0)
(242.351 0 0)
(240.691 0 0)
(238.979 0 0)
(237.213 0 0)
(235.39 0 0)
(233.505 0 0)
(231.556 0 0)
(229.537 0 0)
(227.444 0 0)
(225.27 0 0)
(223.01 0 0)
(220.655 0 0)
(218.196 0 0)
(215.623 0 0)
(212.924 0 0)
(210.082 0 0)
(207.08 0 0)
(203.893 0 0)
(200.491 0 0)
(196.835 0 0)
(192.87 0 0)
(188.523 0 0)
(183.67 0 0)
(178.093 0 0)
(171.439 0 0)
(163.317 0 0)
(153.637 0 0)
(142.986 0 0)
(132.567 0 0)
(123.572 0 0)
(116.601 0 0)
(111.605 0 0)
(108.196 0 0)
(105.935 0 0)
(104.467 0 0)
(103.538 0 0)
(102.979 0 0)
(102.682 0 0)
(102.573 0 0)
(102.603 0 0)
(102.741 0 0)
(102.962 0 0)
(103.249 0 0)
(103.59 0 0)
(103.975 0 0)
(104.397 0 0)
(104.85 0 0)
(105.329 0 0)
(105.83 0 0)
(106.351 0 0)
(106.889 0 0)
(107.441 0 0)
(108.005 0 0)
(108.58 0 0)
(109.165 0 0)
(109.758 0 0)
(110.358 0 0)
(110.964 0 0)
(111.575 0 0)
(112.191 0 0)
(112.811 0 0)
(113.435 0 0)
(114.061 0 0)
(114.689 0 0)
(115.321 0 0)
(115.947 0 0)
(116.597 0 0)
(117.175 0 0)
(117.985 0 0)
(255.447 0 0)
(254.193 0 0)
(252.907 0 0)
(251.586 0 0)
(250.231 0 0)
(248.839 0 0)
(247.408 0 0)
(245.938 0 0)
(244.425 0 0)
(242.869 0 0)
(241.267 0 0)
(239.617 0 0)
(237.916 0 0)
(236.161 0 0)
(234.35 0 0)
(232.477 0 0)
(230.541 0 0)
(228.536 0 0)
(226.457 0 0)
(224.298 0 0)
(222.053 0 0)
(219.714 0 0)
(217.273 0 0)
(214.718 0 0)
(212.038 0 0)
(209.216 0 0)
(206.235 0 0)
(203.07 0 0)
(199.692 0 0)
(196.06 0 0)
(192.122 0 0)
(187.801 0 0)
(182.975 0 0)
(177.424 0 0)
(170.802 0 0)
(162.735 0 0)
(153.149 0 0)
(142.635 0 0)
(132.367 0 0)
(123.501 0 0)
(116.613 0 0)
(111.658 0 0)
(108.261 0 0)
(105.995 0 0)
(104.513 0 0)
(103.565 0 0)
(102.987 0 0)
(102.668 0 0)
(102.537 0 0)
(102.547 0 0)
(102.663 0 0)
(102.863 0 0)
(103.129 0 0)
(103.449 0 0)
(103.813 0 0)
(104.215 0 0)
(104.648 0 0)
(105.107 0 0)
(105.589 0 0)
(106.09 0 0)
(106.608 0 0)
(107.14 0 0)
(107.685 0 0)
(108.241 0 0)
(108.807 0 0)
(109.38 0 0)
(109.961 0 0)
(110.549 0 0)
(111.141 0 0)
(111.739 0 0)
(112.34 0 0)
(112.945 0 0)
(113.553 0 0)
(114.162 0 0)
(114.775 0 0)
(115.383 0 0)
(116.015 0 0)
(116.577 0 0)
(117.361 0 0)
(254.296 0 0)
(253.048 0 0)
(251.769 0 0)
(250.455 0 0)
(249.107 0 0)
(247.723 0 0)
(246.3 0 0)
(244.839 0 0)
(243.335 0 0)
(241.789 0 0)
(240.196 0 0)
(238.557 0 0)
(236.866 0 0)
(235.123 0 0)
(233.323 0 0)
(231.463 0 0)
(229.54 0 0)
(227.548 0 0)
(225.483 0 0)
(223.339 0 0)
(221.11 0 0)
(218.787 0 0)
(216.363 0 0)
(213.826 0 0)
(211.165 0 0)
(208.363 0 0)
(205.402 0 0)
(202.26 0 0)
(198.904 0 0)
(195.296 0 0)
(191.383 0 0)
(187.089 0 0)
(182.289 0 0)
(176.764 0 0)
(170.174 0 0)
(162.16 0 0)
(152.668 0 0)
(142.289 0 0)
(132.17 0 0)
(123.429 0 0)
(116.624 0 0)
(111.711 0 0)
(108.327 0 0)
(106.057 0 0)
(104.561 0 0)
(103.596 0 0)
(102.998 0 0)
(102.658 0 0)
(102.507 0 0)
(102.496 0 0)
(102.591 0 0)
(102.77 0 0)
(103.016 0 0)
(103.316 0 0)
(103.661 0 0)
(104.042 0 0)
(104.456 0 0)
(104.895 0 0)
(105.358 0 0)
(105.839 0 0)
(106.338 0 0)
(106.852 0 0)
(107.378 0 0)
(107.915 0 0)
(108.462 0 0)
(109.017 0 0)
(109.58 0 0)
(110.149 0 0)
(110.723 0 0)
(111.302 0 0)
(111.885 0 0)
(112.472 0 0)
(113.062 0 0)
(113.653 0 0)
(114.249 0 0)
(114.839 0 0)
(115.452 0 0)
(115.998 0 0)
(116.758 0 0)
(253.156 0 0)
(251.915 0 0)
(250.642 0 0)
(249.336 0 0)
(247.996 0 0)
(246.619 0 0)
(245.205 0 0)
(243.752 0 0)
(242.258 0 0)
(240.721 0 0)
(239.139 0 0)
(237.509 0 0)
(235.83 0 0)
(234.098 0 0)
(232.31 0 0)
(230.462 0 0)
(228.552 0 0)
(226.573 0 0)
(224.523 0 0)
(222.393 0 0)
(220.18 0 0)
(217.873 0 0)
(215.466 0 0)
(212.947 0 0)
(210.304 0 0)
(207.522 0 0)
(204.582 0 0)
(201.46 0 0)
(198.128 0 0)
(194.544 0 0)
(190.656 0 0)
(186.387 0 0)
(181.612 0 0)
(176.113 0 0)
(169.554 0 0)
(161.592 0 0)
(152.193 0 0)
(141.947 0 0)
(131.975 0 0)
(123.358 0 0)
(116.635 0 0)
(111.763 0 0)
(108.392 0 0)
(106.119 0 0)
(104.611 0 0)
(103.629 0 0)
(103.012 0 0)
(102.653 0 0)
(102.482 0 0)
(102.45 0 0)
(102.526 0 0)
(102.685 0 0)
(102.911 0 0)
(103.191 0 0)
(103.516 0 0)
(103.879 0 0)
(104.273 0 0)
(104.693 0 0)
(105.137 0 0)
(105.6 0 0)
(106.08 0 0)
(106.575 0 0)
(107.083 0 0)
(107.602 0 0)
(108.131 0 0)
(108.668 0 0)
(109.212 0 0)
(109.763 0 0)
(110.32 0 0)
(110.881 0 0)
(111.447 0 0)
(112.016 0 0)
(112.588 0 0)
(113.162 0 0)
(113.74 0 0)
(114.313 0 0)
(114.908 0 0)
(115.439 0 0)
(116.175 0 0)
(252.028 0 0)
(250.793 0 0)
(249.528 0 0)
(248.23 0 0)
(246.897 0 0)
(245.529 0 0)
(244.123 0 0)
(242.679 0 0)
(241.194 0 0)
(239.667 0 0)
(238.095 0 0)
(236.476 0 0)
(234.807 0 0)
(233.086 0 0)
(231.31 0 0)
(229.475 0 0)
(227.577 0 0)
(225.613 0 0)
(223.576 0 0)
(221.461 0 0)
(219.263 0 0)
(216.973 0 0)
(214.582 0 0)
(212.08 0 0)
(209.456 0 0)
(206.693 0 0)
(203.773 0 0)
(200.673 0 0)
(197.362 0 0)
(193.802 0 0)
(189.938 0 0)
(185.694 0 0)
(180.944 0 0)
(175.469 0 0)
(168.941 0 0)
(161.033 0 0)
(151.725 0 0)
(141.611 0 0)
(131.782 0 0)
(123.287 0 0)
(116.645 0 0)
(111.816 0 0)
(108.459 0 0)
(106.183 0 0)
(104.663 0 0)
(103.665 0 0)
(103.029 0 0)
(102.652 0 0)
(102.461 0 0)
(102.41 0 0)
(102.465 0 0)
(102.605 0 0)
(102.812 0 0)
(103.073 0 0)
(103.38 0 0)
(103.723 0 0)
(104.099 0 0)
(104.501 0 0)
(104.926 0 0)
(105.371 0 0)
(105.833 0 0)
(106.31 0 0)
(106.8 0 0)
(107.301 0 0)
(107.812 0 0)
(108.332 0 0)
(108.859 0 0)
(109.392 0 0)
(109.932 0 0)
(110.476 0 0)
(111.024 0 0)
(111.576 0 0)
(112.131 0 0)
(112.688 0 0)
(113.249 0 0)
(113.805 0 0)
(114.382 0 0)
(114.898 0 0)
(115.611 0 0)
(250.911 0 0)
(249.684 0 0)
(248.426 0 0)
(247.136 0 0)
(245.811 0 0)
(244.451 0 0)
(243.054 0 0)
(241.619 0 0)
(240.143 0 0)
(238.626 0 0)
(237.064 0 0)
(235.455 0 0)
(233.798 0 0)
(232.089 0 0)
(230.324 0 0)
(228.502 0 0)
(226.617 0 0)
(224.665 0 0)
(222.643 0 0)
(220.543 0 0)
(218.359 0 0)
(216.085 0 0)
(213.711 0 0)
(211.227 0 0)
(208.62 0 0)
(205.876 0 0)
(202.976 0 0)
(199.897 0 0)
(196.608 0 0)
(193.07 0 0)
(189.23 0 0)
(185.011 0 0)
(180.285 0 0)
(174.834 0 0)
(168.337 0 0)
(160.48 0 0)
(151.264 0 0)
(141.279 0 0)
(131.592 0 0)
(123.217 0 0)
(116.655 0 0)
(111.868 0 0)
(108.525 0 0)
(106.247 0 0)
(104.716 0 0)
(103.703 0 0)
(103.05 0 0)
(102.654 0 0)
(102.444 0 0)
(102.374 0 0)
(102.411 0 0)
(102.532 0 0)
(102.72 0 0)
(102.963 0 0)
(103.25 0 0)
(103.576 0 0)
(103.933 0 0)
(104.317 0 0)
(104.725 0 0)
(105.152 0 0)
(105.596 0 0)
(106.056 0 0)
(106.528 0 0)
(107.012 0 0)
(107.506 0 0)
(108.009 0 0)
(108.519 0 0)
(109.035 0 0)
(109.558 0 0)
(110.085 0 0)
(110.616 0 0)
(111.151 0 0)
(111.69 0 0)
(112.23 0 0)
(112.774 0 0)
(113.315 0 0)
(113.875 0 0)
(114.376 0 0)
(115.067 0 0)
(249.807 0 0)
(248.587 0 0)
(247.337 0 0)
(246.054 0 0)
(244.738 0 0)
(243.386 0 0)
(241.998 0 0)
(240.572 0 0)
(239.106 0 0)
(237.598 0 0)
(236.047 0 0)
(234.449 0 0)
(232.802 0 0)
(231.104 0 0)
(229.352 0 0)
(227.542 0 0)
(225.67 0 0)
(223.732 0 0)
(221.723 0 0)
(219.637 0 0)
(217.469 0 0)
(215.21 0 0)
(212.853 0 0)
(210.386 0 0)
(207.797 0 0)
(205.072 0 0)
(202.191 0 0)
(199.132 0 0)
(195.865 0 0)
(192.35 0 0)
(188.533 0 0)
(184.337 0 0)
(179.634 0 0)
(174.207 0 0)
(167.74 0 0)
(159.936 0 0)
(150.81 0 0)
(140.952 0 0)