/*--------------------------------*- C++ -*----------------------------------*\
| =========                 |                                                 |
| \\      /  F ield         | OpenFOAM: The Open Source CFD Toolbox           |
|  \\    /   O peration     | Version:  2206                                  |
|   \\  /    A nd           | Website:  www.openfoam.com                      |
|    \\/     M anipulation  |                                                 |
\*---------------------------------------------------------------------------*/
FoamFile
{
    version     2.0;
    format      ascii;
    arch        "LSB;label=32;scalar=64";
    class       volScalarField;
    location    "2.6";
    object      wave;
}
// * * * * * * * * * * * * * * * * * * * * * * * * * * * * * * * * * * * * * //

dimensions      [0 0 0 0 0 0 0];

internalField   nonuniform List<scalar> 
100
(
0.445972
0.298951
0.14442
-0.0137389
-0.171553
-0.325057
-0.470395
-0.603916
-0.722264
-0.822468
-0.90201
-0.958891
-0.991683
-0.999562
-0.982329
-0.940418
-0.874882
-0.787366
-0.680071
-0.55569
-0.417349
-0.268524
-0.112952
0.0454569
0.202724
0.354898
0.498157
0.6289
0.743844
0.840102
0.915253
0.967412
0.995267
0.998119
0.975896
0.929156
0.859074
0.76741
0.656467
0.529032
0.388306
0.237826
0.0813704
-0.0771291
-0.233691
-0.384382
-0.525417
-0.653251
-0.764675
-0.856889
-0.927575
-0.974959
-0.997849
-0.995672
-0.968481
-0.916959
-0.842402
-0.746681
-0.632202
-0.501841
-0.358873
-0.206889
-0.0497068
0.108724
0.264423
0.413479
0.552148
0.676945
0.784736
0.872813
0.938963
0.981524
0.999427
0.992222
0.96009
0.903839
0.824881
0.725201
0.607301
0.474145
0.329078
0.175743
0.0179931
-0.140209
-0.294888
-0.442159
-0.578323
-0.699957
-0.804007
-0.887859
-0.949405
-0.987101
-0.999998
-0.987773
-0.950733
-0.889808
-0.80653
-0.70299
-0.581789
-0.445972
)
;

boundaryField
{
    movingWall
    {
        type            calculated;
        value           uniform 0;
    }
    fixedWalls
    {
        type            calculated;
        value           uniform 0;
    }
    frontAndBack
    {
        type            empty;
    }
}


// ************************************************************************* //
