/*--------------------------------*- C++ -*----------------------------------*\
| =========                 |                                                 |
| \\      /  F ield         | OpenFOAM: The Open Source CFD Toolbox           |
|  \\    /   O peration     | Version:  2312                                  |
|   \\  /    A nd           | Website:  www.openfoam.com                      |
|    \\/     M anipulation  |                                                 |
\*---------------------------------------------------------------------------*/
FoamFile
{
    version     2.0;
    format      ascii;
    arch        "LSB;label=32;scalar=64";
    class       surfaceScalarField;
    location    "0.896";
    object      phi;
}
// * * * * * * * * * * * * * * * * * * * * * * * * * * * * * * * * * * * * * //

dimensions      [0 3 -1 0 0 0 0];

oriented        oriented;

internalField   nonuniform List<scalar> 
62015
(
40.1165
0.0783273
-39.2655
40.9563
0.07845
41.7827
0.0784477
42.5948
0.0783185
43.3922
0.0780616
44.1745
0.0776766
44.942
0.0771642
45.6946
0.0765246
46.4329
0.0757596
47.157
0.07487
47.8675
0.0738574
48.5649
0.0727236
49.2495
0.0714702
49.9219
0.070099
50.5825
0.0686119
51.2319
0.0670108
51.8706
0.0652981
52.499
0.0634753
53.1176
0.0615445
53.7268
0.059508
54.327
0.057368
54.9188
0.0551262
55.5025
0.0527852
56.0784
0.0503471
56.6471
0.0478138
57.2087
0.045188
57.7638
0.0424715
58.3126
0.0396671
58.8554
0.0367768
59.3926
0.0338029
59.9245
0.0307477
60.4514
0.0276138
60.9735
0.0244038
61.4911
0.0211194
62.0044
0.0177639
62.5138
0.0143389
63.0194
0.0108477
63.5215
0.00729257
64.0202
0.00367557
64.5158
0
65.0086
-0.0037319
65.4986
-0.00751787
65.986
-0.0113545
66.4711
-0.0152398
66.9539
-0.0191711
67.4347
-0.0231451
67.9136
-0.02716
68.3907
-0.0312121
68.8661
-0.0352995
69.34
-0.0394194
69.8125
-0.0435686
70.2838
-0.0477444
70.7538
-0.0519442
71.2227
-0.0561656
71.6906
-0.060405
72.1576
-0.0646603
72.6237
-0.0689283
73.089
-0.0732063
73.5536
-0.0774918
74.0176
-0.0817813
74.4809
-0.0860726
74.9436
-0.0903629
75.4058
-0.0946488
75.8674
-0.0989278
76.3286
-0.103198
76.7893
-0.107455
77.2496
-0.111697
77.7094
-0.115921
78.1687
-0.120124
78.6276
-0.124304
79.0859
-0.128457
79.5439
-0.132581
80.0011
-0.136674
80.4583
-0.140732
80.9134
-0.144755
81.3725
-0.14873
81.8167
-0.152688
82.3039
-0.156523
-0.160555
82.6555
39.8462
0.158083
-39.0606
40.6208
0.158099
41.3824
0.157872
42.1304
0.157402
42.8647
0.156686
43.5853
0.155726
44.2924
0.154523
44.9862
0.153079
45.6671
0.151395
46.3355
0.149474
46.9917
0.147321
47.6361
0.144936
48.2693
0.142324
48.8917
0.139488
49.5037
0.136431
50.1058
0.133158
50.6984
0.129671
51.2818
0.125975
51.8566
0.122073
52.4231
0.117969
52.9818
0.113668
53.5329
0.109172
54.0769
0.104487
54.6141
0.0996164
55.1448
0.0945641
55.6695
0.0893348
56.1883
0.0839322
56.7016
0.0783612
57.2097
0.0726257
57.7129
0.0667307
58.2114
0.0606801
58.7055
0.0544788
59.1955
0.048131
59.6816
0.0416422
60.164
0.0350161
60.6429
0.028258
61.1187
0.0213724
61.5914
0.0143642
62.0612
0.00723847
62.5284
0
62.9931
-0.00734627
63.4556
-0.0147953
63.9159
-0.0223423
64.3742
-0.0299819
64.8307
-0.0377091
65.2855
-0.0455187
65.7387
-0.0534052
66.1906
-0.0613642
66.6411
-0.0693897
67.0904
-0.0774769
67.5386
-0.0856199
67.9858
-0.0938143
68.4322
-0.102054
68.8777
-0.110334
69.3225
-0.118648
69.7666
-0.126993
70.2102
-0.135361
70.6533
-0.143748
71.0959
-0.152147
71.5381
-0.160555
71.9799
-0.168965
72.4214
-0.177372
72.8626
-0.185771
73.3035
-0.194155
73.7442
-0.20252
74.1847
-0.210861
74.625
-0.219171
75.0651
-0.227446
75.5049
-0.23568
75.9446
-0.243868
76.384
-0.252004
76.8233
-0.260084
77.2621
-0.268102
77.7011
-0.276051
78.1384
-0.283933
78.5797
-0.291722
79.0072
-0.299475
79.4754
-0.306992
-0.314887
79.8169
39.5586
0.239101
-38.8356
40.2711
0.238794
40.9711
0.238136
41.6585
0.237127
42.3335
0.235768
42.9961
0.234059
43.6466
0.232002
44.2853
0.229602
44.9124
0.22686
45.5285
0.223781
46.1338
0.220369
46.7287
0.216627
47.3137
0.212561
47.8892
0.208176
48.4555
0.203475
49.013
0.198465
49.5622
0.193149
50.1034
0.187534
50.637
0.181625
51.1633
0.175427
51.6827
0.168946
52.1955
0.162187
52.7021
0.155156
53.2027
0.147859
53.6976
0.140303
54.1872
0.132491
54.6718
0.124432
55.1515
0.116131
55.6267
0.107594
56.0976
0.0988279
56.5645
0.0898387
57.0275
0.0806332
57.487
0.0712176
57.9432
0.061599
58.3962
0.0517836
58.8462
0.0417787
59.2935
0.031591
59.7382
0.021227
60.1806
0.0106944
60.6207
0
61.0587
-0.0108491
61.4949
-0.0218456
61.9293
-0.0329826
62.362
-0.0442521
62.7933
-0.0556471
63.2233
-0.0671605
63.652
-0.078784
64.0796
-0.0905108
64.5063
-0.102333
64.932
-0.114243
65.3569
-0.126233
65.7811
-0.138296
66.2047
-0.150423
66.6278
-0.162607
67.0504
-0.17484
67.4726
-0.187115
67.8944
-0.199423
68.316
-0.211757
68.7374
-0.22411
69.1586
-0.236471
69.5796
-0.248836
70.0006
-0.261194
70.4215
-0.273539
70.8424
-0.285862
71.2632
-0.298157
71.6841
-0.310414
72.105
-0.322626
72.5259
-0.334786
72.9468
-0.346886
73.3677
-0.358917
73.7886
-0.370872
74.2096
-0.382744
74.6304
-0.394525
75.0516
-0.406206
75.4713
-0.417788
75.8951
-0.429234
76.3061
-0.440627
76.7557
-0.451677
-0.46327
77.0861
39.229
0.321074
-38.5647
39.8833
0.32025
40.5261
0.318977
41.1575
0.317257
41.7776
0.31509
42.3866
0.31248
42.9848
0.309429
43.5725
0.305941
44.15
0.30202
44.7177
0.297671
45.2759
0.2929
45.825
0.28771
46.3654
0.282109
46.8973
0.276102
47.4212
0.269694
47.9375
0.262892
48.4464
0.255703
48.9483
0.248133
49.4435
0.240188
49.9323
0.231875
50.4151
0.223202
50.8921
0.214175
51.3636
0.204802
51.83
0.195089
52.2914
0.185045
52.7482
0.174677
53.2006
0.163992
53.6488
0.152998
54.0931
0.141704
54.5337
0.130118
54.9708
0.118246
55.4047
0.106099
55.8355
0.0936833
56.2634
0.0810087
56.6886
0.0680828
57.1114
0.0549151
57.5318
0.0415139
57.9501
0.0278885
58.3664
0.0140474
58.7809
0
59.1937
-0.0142447
59.6049
-0.0286773
60.0147
-0.0432887
60.4233
-0.0580689
60.8307
-0.0730096
61.237
-0.0880999
61.6424
-0.103331
62.047
-0.118693
62.4509
-0.134176
62.8542
-0.149771
63.2569
-0.165467
63.6591
-0.181254
64.061
-0.197123
64.4626
-0.213064
64.864
-0.229066
65.2651
-0.24512
65.6662
-0.261216
66.0672
-0.277343
66.4682
-0.293491
66.8693
-0.309651
67.2704
-0.325811
67.6716
-0.341963
68.073
-0.358095
68.4745
-0.374198
68.8762
-0.390262
69.2782
-0.406275
69.6803
-0.42223
70.0826
-0.438115
70.4852
-0.453921
70.8879
-0.469637
71.2909
-0.485254
71.6941
-0.500761
72.0973
-0.51615
72.5011
-0.531407
72.9038
-0.546535
73.3104
-0.561487
73.7052
-0.576369
74.1368
-0.590806
-0.605943
74.4554
38.8511
0.403685
-38.2414
39.4515
0.402173
40.0415
0.400125
40.6212
0.397543
41.1908
0.394428
41.7505
0.390785
42.3006
0.386617
42.8415
0.381929
43.3733
0.376726
43.8965
0.371013
44.4113
0.364797
44.9181
0.358083
45.4172
0.350878
45.909
0.343189
46.3937
0.335022
46.8717
0.326386
47.3433
0.317287
47.8087
0.307733
48.2683
0.297732
48.7223
0.287292
49.171
0.276421
49.6147
0.265127
50.0537
0.253419
50.4881
0.241306
50.9183
0.228795
51.3444
0.215897
51.7668
0.202621
52.1855
0.188975
52.6009
0.174969
53.0131
0.160613
53.4223
0.145917
53.8288
0.13089
54.2326
0.115542
54.634
0.0998838
55.0332
0.0839253
55.4303
0.0676771
55.8255
0.05115
56.2189
0.034354
56.6106
0.0173003
57.0009
0
57.3898
-0.0175361
57.7776
-0.0352971
58.1642
-0.0532715
58.5498
-0.0714476
58.9345
-0.0898148
59.3185
-0.108361
59.7018
-0.127075
60.0846
-0.145944
60.4669
-0.164958
60.8488
-0.184104
61.2304
-0.20337
61.6118
-0.222745
61.993
-0.242216
62.3741
-0.261772
62.7552
-0.281399
63.1364
-0.301087
63.5176
-0.320823
63.899
-0.340595
64.2805
-0.36039
64.6623
-0.380196
65.0443
-0.400001
65.4266
-0.419794
65.8092
-0.43956
66.1922
-0.45929
66.5755
-0.478969
66.9592
-0.498586
67.3433
-0.51813
67.7277
-0.537587
68.1126
-0.556945
68.4978
-0.576193
68.8834
-0.595319
69.2694
-0.61431
69.6556
-0.633157
70.0425
-0.651841
70.4286
-0.670367
70.8186
-0.688678
71.1975
-0.706903
71.6117
-0.724587
-0.743116
71.9183
38.4265
0.486646
-37.8673
38.9773
0.484298
39.5187
0.481336
40.0509
0.477761
40.5741
0.473577
41.0886
0.468789
41.5945
0.4634
42.0922
0.457416
42.5821
0.450842
43.0643
0.443686
43.5392
0.435953
44.007
0.427651
44.4681
0.418786
44.9228
0.409367
45.3713
0.399401
45.8139
0.388896
46.2509
0.37786
46.6825
0.366303
47.1091
0.354233
47.5308
0.341659
47.9479
0.32859
48.3606
0.315035
48.7693
0.301005
49.174
0.286509
49.575
0.271557
49.9726
0.25616
50.3669
0.240328
50.7581
0.224071
51.1465
0.207401
51.5321
0.190328
51.9152
0.172864
52.296
0.155019
52.6746
0.136806
53.0511
0.118237
53.4258
0.0993221
53.7988
0.0800743
54.1702
0.0605059
54.5402
0.0406291
54.9089
0.0204562
55.2764
0
55.6428
-0.0207268
56.0083
-0.0417116
56.373
-0.0629408
56.737
-0.0844021
57.1003
-0.106081
57.4631
-0.127966
57.8256
-0.150042
58.1876
-0.172296
58.5495
-0.194715
58.9111
-0.217284
59.2727
-0.239991
59.6342
-0.26282
59.9958
-0.285759
60.3575
-0.308793
60.7193
-0.331908
61.0814
-0.35509
61.4437
-0.378325
61.8063
-0.401598
62.1693
-0.424896
62.5326
-0.448205
62.8964
-0.47151
63.2606
-0.494797
63.6253
-0.518051
63.9904
-0.541259
64.3561
-0.564407
64.7223
-0.58748
65.089
-0.610464
65.4563
-0.633345
65.8241
-0.656109
66.1924
-0.678742
66.5612
-0.701231
66.9306
-0.72356
67.3004
-0.745719
67.671
-0.767687
68.041
-0.789468
68.4149
-0.810996
68.7783
-0.832422
69.1757
-0.853217
-0.874992
69.4705
37.9599
0.569706
-37.4472
38.4651
0.566395
38.9619
0.562398
39.4504
0.557719
39.931
0.552363
40.4039
0.546333
40.8692
0.539634
41.3274
0.532273
41.7786
0.524256
42.2231
0.515589
42.6612
0.506281
43.0931
0.496338
43.5192
0.485768
43.9396
0.474579
44.3546
0.462781
44.7645
0.450382
45.1695
0.43739
45.5698
0.423817
45.9658
0.40967
46.3575
0.394961
46.7452
0.379699
47.1292
0.363895
47.5096
0.347559
47.8867
0.330703
48.2606
0.313337
48.6315
0.295473
48.9996
0.277123
49.3651
0.258299
49.7282
0.239012
50.089
0.219275
50.4477
0.1991
50.8044
0.178501
51.1593
0.15749
51.5126
0.136079
51.8643
0.114284
52.2146
0.092116
52.5637
0.0695899
52.9116
0.046719
53.2586
0.0235178
53.6046
0
53.9499
-0.0238198
54.2944
-0.0479269
54.6384
-0.0723072
54.9819
-0.0969453
55.3251
-0.121827
55.6679
-0.146937
56.0106
-0.172259
56.3531
-0.19778
56.6955
-0.223483
57.038
-0.249352
57.3805
-0.275373
57.7232
-0.30153
58.0662
-0.327807
58.4094
-0.354188
58.7529
-0.380657
59.0967
-0.4072
59.441
-0.433798
59.7858
-0.460437
60.131
-0.4871
60.4768
-0.513772
60.8231
-0.540437
61.1701
-0.567078
61.5176
-0.593679
61.8657
-0.620225
62.2145
-0.646699
62.5639
-0.673085
62.914
-0.699368
63.2647
-0.725532
63.6161
-0.75156
63.9682
-0.777437
64.3209
-0.803147
64.6743
-0.828674
65.0282
-0.854005
65.3831
-0.879118
65.7375
-0.904016
66.0958
-0.928626
66.4443
-0.953117
66.8252
-0.976891
-1.00177
67.1086
37.4566
0.652647
-36.9866
37.9198
0.648263
38.3756
0.643129
38.8241
0.637252
39.2656
0.630634
39.7002
0.623281
40.1283
0.615198
40.5501
0.606392
40.9657
0.59687
41.3755
0.586638
41.7797
0.575705
42.1785
0.564078
42.5722
0.551767
42.961
0.538779
43.3451
0.525124
43.7247
0.510812
44.1001
0.495852
44.4714
0.480255
44.8389
0.464031
45.2028
0.447191
45.5633
0.429745
45.9205
0.411706
46.2747
0.393085
46.626
0.373893
46.9746
0.354143
47.3206
0.333848
47.6643
0.31302
48.0059
0.291672
48.3453
0.269818
48.6829
0.24747
49.0187
0.224643
49.3529
0.20135
49.6856
0.177606
50.017
0.153425
50.3471
0.128822
50.6762
0.103812
51.0043
0.078409
51.3315
0.052629
51.658
0.0264875
51.9838
0
52.3091
-0.0268176
52.6339
-0.0539496
52.9584
-0.0813797
53.2826
-0.109091
53.6067
-0.137068
53.9306
-0.165294
54.2545
-0.193752
54.5785
-0.222424
54.9026
-0.251295
55.2269
-0.280347
55.5514
-0.309562
55.8763
-0.338924
56.2015
-0.368415
56.5271
-0.398017
56.8532
-0.427714
57.1798
-0.457487
57.5069
-0.487319
57.8347
-0.517192
58.163
-0.547089
58.492
-0.576991
58.8217
-0.606881
59.1521
-0.636741
59.4832
-0.666554
59.815
-0.696302
60.1476
-0.725966
60.481
-0.75553
60.8151
-0.784975
61.15
-0.814284
61.4857
-0.84344
61.8221
-0.872425
62.1593
-0.901222
62.4973
-0.929812
62.8359
-0.958181
63.1756
-0.986305
63.5149
-1.01419
63.8582
-1.04175
64.1922
-1.06917
64.5573
-1.0958
-1.12364
64.8296
36.9215
0.735278
-36.4908
37.3462
0.729727
37.7644
0.723371
38.1761
0.716214
38.5817
0.70826
38.9812
0.699515
39.3751
0.689986
39.7633
0.679679
40.1463
0.668601
40.5241
0.656759
40.897
0.644162
41.2653
0.630819
41.6291
0.616737
41.9886
0.601928
42.3441
0.586399
42.6957
0.570163
43.0436
0.553227
43.3881
0.535605
43.7293
0.517307
44.0673
0.498344
44.4024
0.478729
44.7348
0.458472
45.0645
0.437588
45.3918
0.416089
45.7168
0.393987
46.0397
0.371297
46.3606
0.348031
46.6797
0.324205
46.9971
0.299832
47.3129
0.274927
47.6273
0.249505
47.9404
0.22358
48.2523
0.197169
48.5632
0.170286
48.8731
0.142948
49.1822
0.115171
49.4906
0.0869708
49.7983
0.0583645
50.1055
0.0293685
50.4123
0
50.7188
-0.0297239
51.025
-0.0597859
51.3311
-0.090168
51.6371
-0.120853
51.9431
-0.151823
52.2492
-0.183059
52.5554
-0.214544
52.8619
-0.246259
53.1686
-0.278186
53.4756
-0.310306
53.7831
-0.342599
54.091
-0.375049
54.3994
-0.407635
54.7083
-0.440338
55.0178
-0.473139
55.328
-0.50602
55.6388
-0.53896
55.9503
-0.571941
56.2626
-0.604944
56.5756
-0.637949
56.8894
-0.670936
57.204
-0.703886
57.5195
-0.736781
57.8357
-0.7696
58.1528
-0.802324
58.4708
-0.834934
58.7896
-0.867411
59.1093
-0.899735
59.4299
-0.931888
59.7513
-0.963851
60.0736
-0.995603
60.3968
-1.02713
60.7207
-1.0584
61.0457
-1.08941
61.3706
-1.12015
61.6992
-1.15053
62.0193
-1.18076
62.3691
-1.21012
-1.2408
62.6306
36.3594
0.817432
-35.9648
36.7488
0.810636
37.1324
0.802984
37.5104
0.794479
37.8829
0.785128
38.2503
0.774935
38.6125
0.763908
38.97
0.752053
39.3228
0.739378
39.6712
0.725891
40.0153
0.7116
40.3554
0.696514
40.6915
0.680642
41.024
0.663994
41.353
0.646582
41.6787
0.628414
42.0012
0.609502
42.3207
0.589858
42.6374
0.569493
42.9515
0.54842
43.263
0.526651
43.5722
0.504199
43.8792
0.481077
44.1842
0.4573
44.4872
0.43288
44.7885
0.407833
45.0881
0.382172
45.3862
0.355913
45.683
0.329071
45.9785
0.301662
46.2728
0.273702
46.5661
0.245206
46.8586
0.216191
47.1502
0.186674
47.4411
0.156673
47.7314
0.126203
48.0213
0.0952827
48.3107
0.0639303
48.5998
0.0321631
48.8887
0
49.1775
-0.0325409
49.4661
-0.0654413
49.7549
-0.0986818
50.0437
-0.132243
50.3326
-0.166107
50.6218
-0.200253
50.9113
-0.234661
51.2012
-0.269313
51.4914
-0.304188
51.7821
-0.339266
52.0734
-0.374527
52.3652
-0.409951
52.6577
-0.445517
52.9507
-0.481205
53.2445
-0.516994
53.5391
-0.552863
53.8344
-0.588793
54.1305
-0.624762
54.4274
-0.660748
54.7252
-0.696732
55.0238
-0.732693
55.3234
-0.76861
55.6238
-0.804461
55.9252
-0.840227
56.2275
-0.875886
56.5307
-0.911417
56.8349
-0.946799
57.1401
-0.982013
57.4462
-1.01704
57.7532
-1.05185
58.0612
-1.08644
58.3701
-1.12077
58.6798
-1.15483
58.9907
-1.1886
59.3016
-1.22207
59.6163
-1.25515
59.9228
-1.28807
60.2578
-1.32004
-1.35342
60.5089
35.7744
0.898963
-35.4129
36.1314
0.890856
36.4833
0.881847
36.8303
0.871939
37.1725
0.861139
37.5102
0.849452
37.8435
0.836886
38.1726
0.823446
38.4976
0.809142
38.8188
0.793981
39.1364
0.777973
39.4504
0.761125
39.7611
0.743449
40.0686
0.724954
40.373
0.705651
40.6747
0.685551
40.9736
0.664666
41.27
0.643007
41.564
0.620587
41.8557
0.59742
42.1454
0.573517
42.433
0.548893
42.7189
0.523562
43.003
0.497537
43.2855
0.470835
43.5666
0.443469
43.8464
0.415456
44.1249
0.386811
44.4024
0.35755
44.6788
0.327691
44.9544
0.297249
45.2292
0.266242
45.5034
0.234687
45.7769
0.202602
46.05
0.170006
46.3227
0.136916
46.5951
0.103352
46.8673
0.0693316
47.1394
0.0348744
47.4114
0
47.6835
-0.0352721
47.9557
-0.0709219
48.228
-0.106929
48.5005
-0.143274
48.7734
-0.179935
49.0467
-0.216893
49.3203
-0.254126
49.5945
-0.291613
49.8692
-0.329332
50.1444
-0.367264
50.4203
-0.405385
50.6969
-0.443675
50.9742
-0.482111
51.2522
-0.520672
51.5311
-0.559336
51.8108
-0.59808
52.0913
-0.636884
52.3727
-0.675724
52.655
-0.714578
52.9383
-0.753424
53.2225
-0.79224
53.5077
-0.831004
53.7938
-0.869693
54.081
-0.908286
54.3691
-0.946759
54.6583
-0.98509
54.9485
-1.02326
55.2397
-1.06124
55.5319
-1.09902
55.8251
-1.13656
56.1193
-1.17386
56.4145
-1.21088
56.7106
-1.24761
57.008
-1.28401
57.3055
-1.3201
57.6066
-1.35577
57.9001
-1.39125
58.2208
-1.42572
-1.46169
58.4619
35.1705
0.979742
-34.8393
35.4977
0.970271
35.8205
0.959854
36.139
0.948498
36.4534
0.936207
36.7638
0.922989
37.0704
0.908851
37.3733
0.893798
37.6728
0.87784
37.9689
0.860985
38.2619
0.843243
38.5519
0.824622
38.8389
0.805132
39.1233
0.784785
39.4051
0.763592
39.6845
0.741563
39.9616
0.718712
40.2365
0.69505
40.5094
0.67059
40.7804
0.645346
41.0496
0.619333
41.3173
0.592563
41.5834
0.565051
41.8481
0.536813
42.1115
0.507864
42.3738
0.478221
42.635
0.447898
42.8952
0.416914
43.1546
0.385285
43.4133
0.353028
43.6713
0.320161
43.9288
0.286701
44.1858
0.252669
44.4424
0.218082
44.6988
0.182959
44.9549
0.147321
45.211
0.111185
45.467
0.0745728
45.723
0.0375044
45.9791
0
46.2355
-0.0379195
46.492
-0.076233
46.7489
-0.114919
47.0061
-0.153957
47.2638
-0.193325
47.522
-0.232999
47.7807
-0.27296
48.04
-0.313184
48.2999
-0.353649
48.5606
-0.394332
48.8219
-0.435211
49.084
-0.476262
49.3469
-0.517463
49.6107
-0.55879
49.8754
-0.600221
50.1409
-0.641731
50.4074
-0.683298
50.6748
-0.724898
50.9432
-0.766508
51.2127
-0.808103
51.4831
-0.849662
51.7546
-0.891159
52.0271
-0.932571
52.3006
-0.973874
52.5753
-1.01505
52.851
-1.05606
53.1277
-1.0969
53.4056
-1.13754
53.6845
-1.17795
53.9645
-1.21811
54.2455
-1.258
54.5276
-1.2976
54.8106
-1.33687
55.095
-1.37581
55.3795
-1.4144
55.6676
-1.45254
55.9486
-1.49047
56.2555
-1.52734
-1.56577
56.4869
34.5509
1.05966
-34.2476
34.8508
1.04878
35.1469
1.03692
35.4392
1.02407
35.7279
1.01026
36.0132
0.995482
36.2953
0.979746
36.5741
0.963059
36.85
0.945429
37.123
0.926866
37.3933
0.907379
37.6611
0.886977
37.9263
0.865672
38.1893
0.843473
38.4501
0.820393
38.7088
0.796443
38.9656
0.771637
39.2206
0.745986
39.4739
0.719504
39.7257
0.692206
39.976
0.664105
40.2249
0.635217
40.4727
0.605557
40.7193
0.57514
40.9649
0.543983
41.2096
0.512102
41.4534
0.479515
41.6966
0.446238
41.9391
0.41229
42.1811
0.377688
42.4227
0.342452
42.6639
0.306599
42.9048
0.270151
43.1456
0.233125
43.3862
0.195543
43.6268
0.157424
43.8675
0.118789
44.1083
0.0796592
44.3492
0.0400556
44.5904
0
44.8319
-0.0404859
45.0738
-0.0813803
45.3161
-0.122661
45.5588
-0.164304
45.8022
-0.206288
46.0461
-0.24859
46.2907
-0.291186
46.5359
-0.334053
46.7819
-0.377167
47.0286
-0.420504
47.2762
-0.464042
47.5246
-0.507754
47.7739
-0.551618
48.0241
-0.595609
48.2753
-0.639703
48.5274
-0.683874
48.7805
-0.728099
49.0347
-0.772352
49.2899
-0.81661
49.5461
-0.860846
49.8034
-0.905038
50.0618
-0.949158
50.3213
-0.993184
50.5819
-1.03709
50.8436
-1.08085
51.1065
-1.12444
51.3704
-1.16784
51.6355
-1.21102
51.9016
-1.25395
52.1689
-1.29662
52.4373
-1.339
52.7068
-1.38105
52.9773
-1.42277
53.2491
-1.46412
53.5212
-1.50511
53.7968
-1.54561
54.0658
-1.58589
54.3593
-1.62505
-1.66582
54.5814
33.9188
1.13862
-33.6411
34.1937
1.1263
34.4651
1.11295
34.7334
1.0986
34.9986
1.08324
35.2608
1.06687
35.5202
1.04952
35.7768
1.03119
36.031
1.01187
36.2826
0.991593
36.532
0.970356
36.7792
0.948172
37.0243
0.925052
37.2674
0.901006
37.5087
0.876047
37.7483
0.850188
37.9863
0.82344
38.2228
0.795818
38.4579
0.767335
38.6917
0.738005
38.9244
0.707845
39.156
0.676869
39.3866
0.645092
39.6164
0.612532
39.8453
0.579205
40.0736
0.545129
40.3013
0.510321
40.5285
0.474798
40.7552
0.438581
40.9816
0.401687
41.2078
0.364137
41.4338
0.325949
41.6597
0.287144
41.8855
0.247743
42.1114
0.207766
42.3374
0.167235
42.5636
0.12617
42.79
0.0845948
43.0168
0.0425306
43.2439
0
43.4714
-0.0429741
43.6994
-0.0863687
43.928
-0.130161
44.1571
-0.174326
44.3869
-0.218841
44.6174
-0.263682
44.8485
-0.308823
45.0805
-0.354243
45.3133
-0.399913
45.5469
-0.445812
45.7814
-0.491913
46.0168
-0.538191
46.2532
-0.58462
46.4905
-0.631176
46.7289
-0.677832
46.9683
-0.724564
47.2087
-0.771345
47.4502
-0.81815
47.6928
-0.864952
47.9365
-0.911726
48.1813
-0.958445
48.4272
-1.00509
48.6743
-1.05162
48.9225
-1.09802
49.1719
-1.14426
49.4224
-1.19032
49.6741
-1.23617
49.927
-1.28179
50.181
-1.32714
50.4361
-1.37221
50.6924
-1.41696
50.9498
-1.46138
51.2083
-1.50544
51.4681
-1.5491
51.7282
-1.59237
51.9918
-1.63513
52.2491
-1.67766
52.5299
-1.719
-1.76201
52.743
33.277
1.21654
-33.0227
33.5288
1.20274
33.7777
1.1879
34.0238
1.17201
34.2673
1.15508
34.5082
1.13712
34.7468
1.11814
34.983
1.09814
35.217
1.07714
35.449
1.05514
35.679
1.03215
35.9071
1.00819
36.1336
0.983261
36.3584
0.957377
36.5816
0.930551
36.8035
0.902795
37.024
0.874123
37.2433
0.84455
37.4615
0.814088
37.6787
0.782754
37.895
0.750562
38.1104
0.717528
38.3251
0.68367
38.5391
0.649003
38.7525
0.613546
38.9655
0.577316
39.1781
0.540331
39.3903
0.502611
39.6023
0.464174
39.8141
0.42504
40.0258
0.38523
40.2375
0.344764
40.4493
0.303662
40.6612
0.261947
40.8732
0.219639
41.0855
0.176761
41.2981
0.133335
41.511
0.0893841
41.7244
0.0449314
41.9383
0
42.1526
-0.0453863
42.3676
-0.0912035
42.5832
-0.137427
42.7995
-0.184033
43.0164
-0.230996
43.2342
-0.278291
43.4527
-0.325893
43.6721
-0.373777
43.8924
-0.421916
44.1136
-0.470285
44.3357
-0.518858
44.5588
-0.567608
44.7829
-0.616509
45.0081
-0.665535
45.2343
-0.71466
45.4615
-0.763855
45.6899
-0.813095
45.9194
-0.862352
46.15
-0.9116
46.3817
-0.960812
46.6146
-1.00996
46.8487
-1.05902
47.0839
-1.10796
47.3204
-1.15676
47.558
-1.20538
47.7968
-1.25381
48.0367
-1.30201
48.2779
-1.34996
48.5202
-1.39763
48.7637
-1.44499
49.0084
-1.49202
49.2542
-1.5387
49.5012
-1.58499
49.7494
-1.63086
49.9981
-1.67632
50.2501
-1.72125
50.4963
-1.76591
50.7648
-1.80935
-1.8545
50.9693
32.6279
1.29335
-32.3952
32.8585
1.27806
33.0867
1.26169
33.3125
1.24425
33.536
1.22575
33.7573
1.20618
33.9766
1.18556
34.1939
1.16391
34.4094
1.14121
34.6232
1.11749
34.8353
1.09276
35.0459
1.06702
35.255
1.04029
35.4628
1.01258
35.6694
0.983901
35.8748
0.954267
36.0791
0.923691
36.2824
0.892188
36.4849
0.859772
36.6866
0.82646
36.8876
0.792267
37.088
0.757209
37.2878
0.721303
37.4871
0.684567
37.6861
0.64702
37.8848
0.608678
38.0832
0.569562
38.2815
0.52969
38.4797
0.489084
38.6778
0.447762
38.876
0.405746
39.0744
0.363057
39.2729
0.319717
39.4716
0.275747
39.6707
0.231171
39.8701
0.186011
40.0699
0.14029
40.2702
0.0940317
40.471
0.0472604
40.6723
0
40.8743
-0.0477249
41.077
-0.0958892
41.2803
-0.144468
41.4844
-0.193436
41.6893
-0.242767
41.8951
-0.292435
42.1017
-0.342414
42.3092
-0.392678
42.5176
-0.4432
42.7271
-0.493953
42.9375
-0.54491
43.1489
-0.596044
43.3614
-0.647327
43.5749
-0.698732
43.7896
-0.750232
44.0053
-0.801798
44.2222
-0.853403
44.4403
-0.90502
44.6595
-0.956619
44.8799
-1.00817
45.1014
-1.05965
45.3242
-1.11103
45.5481
-1.16229
45.7733
-1.21338
45.9997
-1.26429
46.2273
-1.31498
46.456
-1.36544
46.686
-1.41562
46.9172
-1.46551
47.1496
-1.51508
47.3832
-1.56429
47.6179
-1.61312
47.8538
-1.66155
48.091
-1.70954
48.3287
-1.75709
48.5696
-1.80409
48.8051
-1.8508
49.0618
-1.89624
-1.94341
49.2579
31.9738
1.36899
-31.7609
32.185
1.35219
32.394
1.33429
32.6011
1.31529
32.8062
1.2952
33.0095
1.27402
33.211
1.25177
33.411
1.22845
33.6093
1.20406
33.8063
1.17863
34.0018
1.15216
34.1961
1.12466
34.3893
1.09614
34.5813
1.06662
34.7724
1.0361
34.9625
1.00461
35.1518
0.972149
35.3403
0.938741
35.5282
0.904398
35.7155
0.869137
35.9022
0.832973
36.0886
0.795924
36.2745
0.758007
36.4602
0.71924
36.6457
0.679642
36.831
0.639232
37.0162
0.598029
37.2014
0.556053
37.3867
0.513325
37.5721
0.469866
37.7576
0.425698
37.9434
0.380842
38.1295
0.33532
38.3159
0.289156
38.5028
0.242372
38.6901
0.194992
38.8779
0.147041
39.0662
0.0985416
39.2552
0.0495198
39.4448
0
39.6351
-0.0499922
39.8262
-0.100431
40.018
-0.15129
40.2107
-0.202544
40.4042
-0.254166
40.5986
-0.306129
40.7939
-0.358405
40.9901
-0.410968
41.1874
-0.46379
41.3857
-0.516844
41.585
-0.5701
41.7853
-0.623532
41.9868
-0.67711
42.1894
-0.730808
42.3931
-0.784595
42.5979
-0.838443
42.8039
-0.892324
43.0111
-0.946209
43.2194
-1.00007
43.429
-1.05387
43.6398
-1.1076
43.8518
-1.16121
44.065
-1.21467
44.2794
-1.26797
44.495
-1.32107
44.7119
-1.37394
44.93
-1.42656
45.1493
-1.47889
45.3699
-1.5309
45.5916
-1.58257
45.8146
-1.63387
46.0387
-1.68477
46.264
-1.73525
46.4906
-1.78526
46.7178
-1.83481
46.948
-1.88378
47.1733
-1.93244
47.4186
-1.9798
-2.02891
47.6067
31.3166
1.44341
-31.1219
31.51
1.4251
31.7015
1.40566
31.8913
1.38509
32.0794
1.36341
32.2661
1.34062
32.4513
1.31673
32.6351
1.29175
32.8177
1.26569
32.9991
1.23855
33.1793
1.21035
33.3586
1.1811
33.5369
1.1508
33.7143
1.11949
33.891
1.08715
34.0669
1.05382
34.2423
1.0195
34.417
0.984217
34.5913
0.947976
34.7652
0.910795
34.9387
0.872694
35.112
0.833688
35.2851
0.793796
35.458
0.753037
35.6308
0.71143
35.8037
0.668993
35.9766
0.625748
36.1496
0.581714
36.3228
0.536914
36.4962
0.491369
36.6699
0.4451
36.8439
0.39813
37.0184
0.350483
37.1932
0.302182
37.3686
0.25325
37.5446
0.203712
37.7211
0.153593
37.8982
0.102918
38.0761
0.0517114
38.2546
0
38.4339
-0.0521903
38.614
-0.104833
38.795
-0.157901
38.9768
-0.211368
39.1595
-0.265206
39.3432
-0.319387
39.5279
-0.373884
39.7135
-0.428668
39.9002
-0.483711
40.0879
-0.538984
40.2767
-0.594459
40.4666
-0.650107
40.6576
-0.705897
40.8497
-0.761803
41.043
-0.817792
41.2375
-0.873837
41.4331
-0.929908
41.63
-0.985974
41.828
-1.04201
42.0273
-1.09797
42.2278
-1.15385
42.4295
-1.2096
42.6325
-1.2652
42.8367
-1.32061
43.0421
-1.37581
43.2488
-1.43077
43.4567
-1.48546
43.6658
-1.53984
43.8762
-1.59389
44.0878
-1.64758
44.3005
-1.70088
44.5145
-1.75376
44.7297
-1.80619
44.9462
-1.85814
45.1632
-1.9096
45.3833
-1.96045
45.5986
-2.01098
45.8331
-2.06016
-2.11112
46.0135
30.6583
1.51656
-30.4803
30.8351
1.49673
31.0105
1.47575
31.1844
1.45362
31.3569
1.43036
31.5282
1.40596
31.6984
1.38044
31.8673
1.35381
32.0353
1.32607
32.2023
1.29724
32.3684
1.26732
32.5337
1.23633
32.6983
1.20429
32.8622
1.17119
33.0256
1.13707
33.1884
1.10192
33.3507
1.06577
33.5127
1.02863
33.6743
0.990517
33.8357
0.951449
33.997
0.911443
34.158
0.870516
34.3191
0.828686
34.4801
0.785974
34.6412
0.742397
34.8024
0.697977
34.9637
0.652734
35.1253
0.60669
35.2872
0.559865
35.4494
0.512283
35.612
0.463965
35.7751
0.414936
35.9386
0.365218
36.1026
0.314836
36.2672
0.263815
36.4325
0.212179
36.5984
0.159953
36.765
0.107164
36.9324
0.0538374
37.1005
0
37.2694
-0.0543213
37.4393
-0.1091
37.61
-0.164307
37.7816
-0.219916
37.9541
-0.275898
38.1277
-0.332224
38.3022
-0.388867
38.4778
-0.445797
38.6545
-0.502985
38.8322
-0.560401
39.011
-0.618016
39.191
-0.6758
39.3721
-0.733723
39.5544
-0.791756
39.7378
-0.849866
39.9224
-0.908026
40.1082
-0.966203
40.2953
-1.02437
40.4835
-1.08249
40.673
-1.14054
40.8637
-1.19848
41.0557
-1.25629
41.2489
-1.31393
41.4433
-1.37137
41.639
-1.42859
41.836
-1.48555
42.0341
-1.54222
42.2335
-1.59857
42.4342
-1.65457
42.636
-1.71019
42.8391
-1.76541
43.0434
-1.82018
43.2488
-1.87448
43.4556
-1.92828
43.6629
-1.98157
43.8732
-2.03422
44.0792
-2.08654
44.3032
-2.13747
-2.19018
44.4761
30.0003
1.58842
-29.8376
30.162
1.56708
30.3224
1.54455
30.4817
1.52087
30.6399
1.49602
30.797
1.47002
30.9532
1.44288
31.1085
1.41461
31.263
1.38521
31.4167
1.3547
31.5697
1.32308
31.7221
1.29037
31.874
1.25659
32.0254
1.22174
32.1763
1.18584
32.3269
1.14891
32.4772
1.11095
32.6273
1.07199
32.7772
1.03204
32.927
0.991113
33.0767
0.949236
33.2265
0.906423
33.3763
0.862693
33.5262
0.818066
33.6763
0.772562
33.8266
0.726201
33.9772
0.679005
34.1281
0.630994
34.2794
0.582193
34.4312
0.532623
34.5834
0.482308
34.7361
0.431271
34.8893
0.379536
35.0432
0.327129
35.1977
0.274075
35.353
0.220398
35.5089
0.166126
35.6656
0.111284
35.8231
0.0558998
35.9814
0
36.1406
-0.0563876
36.3007
-0.113235
36.4617
-0.170514
36.6237
-0.228197
36.7867
-0.286253
36.9506
-0.344654
37.1157
-0.403372
37.2818
-0.462374
37.4489
-0.521634
37.6172
-0.581118
37.7866
-0.640798
37.9572
-0.700643
38.1289
-0.760622
38.3018
-0.820704
38.4758
-0.880858
38.6511
-0.941054
38.8276
-1.00126
39.0053
-1.06144
39.1842
-1.12157
39.3644
-1.18162
39.5458
-1.24155
39.7285
-1.30133
39.9124
-1.36094
40.0976
-1.42033
40.284
-1.47948
40.4716
-1.53836
40.6605
-1.59693
40.8506
-1.65517
41.042
-1.71304
41.2345
-1.77051
41.4283
-1.82755
41.6233
-1.88413
41.8194
-1.94023
42.0169
-1.99579
42.215
-2.05083
42.416
-2.10521
42.6128
-2.15923
42.8269
-2.21183
-2.26621
42.9927
29.344
1.65896
-29.1955
29.4918
1.6361
29.6386
1.61204
29.7844
1.5868
29.9293
1.56038
30.0734
1.53279
30.2167
1.50404
30.3593
1.47414
30.5013
1.4431
30.6427
1.41092
30.7836
1.37763
30.9241
1.34322
31.0642
1.30772
31.2039
1.27114
31.3434
1.2335
31.4827
1.1948
31.6218
1.15506
31.7608
1.11431
31.8998
1.07255
32.0388
1.0298
32.1778
0.986087
32.317
0.941425
32.4563
0.895832
32.5959
0.84933
32.7358
0.801939
32.8759
0.753679
33.0165
0.704574
33.1574
0.654644
33.2988
0.603913
33.4407
0.552403
33.5832
0.50014
33.7262
0.447146
33.8699
0.393448
34.0142
0.33907
34.1592
0.284038
34.305
0.228378
34.4516
0.172117
34.5989
0.115282
34.7471
0.0579005
34.8962
0
35.0462
-0.058391
35.1972
-0.117244
35.3491
-0.17653
35.502
-0.236219
35.6559
-0.296283
35.8108
-0.356691
35.9668
-0.417414
36.124
-0.47842
36.2822
-0.539679
36.4415
-0.601161
36.602
-0.662833
36.7636
-0.724665
36.9264
-0.786626
37.0904
-0.848684
37.2556
-0.910806
37.422
-0.972962
37.5896
-1.03512
37.7585
-1.09724
37.9286
-1.15931
38.0999
-1.22127
38.2725
-1.28311
38.4463
-1.34479
38.6213
-1.40628
38.7976
-1.46754
38.9752
-1.52855
39.154
-1.58927
39.334
-1.64967
39.5153
-1.70971
39.6978
-1.76937
39.8815
-1.82861
40.0664
-1.88741
40.2525
-1.94572
40.4397
-2.00353
40.6283
-2.06079
40.8176
-2.1175
41.0095
-2.17352
41.1977
-2.22916
41.4022
-2.28336
-2.33933
41.5612
28.6908
1.72815
-28.5554
28.8258
1.70378
28.96
1.6782
29.0933
1.65142
29.226
1.62344
29.3581
1.59427
29.4895
1.56393
29.6204
1.53241
29.7509
1.49974
29.8809
1.46592
30.0106
1.43096
30.14
1.39488
30.2692
1.35769
30.3981
1.31941
30.527
1.28004
30.6557
1.2396
30.7844
1.19812
30.9132
1.1556
31.042
1.11206
31.1709
1.06753
31.3
1.02201
31.4293
0.975537
31.5589
0.92812
31.6888
0.879782
31.8191
0.830545
31.9498
0.780429
32.0809
0.729457
32.2125
0.677652
32.3447
0.625038
32.4774
0.571637
32.6107
0.517475
32.7447
0.462576
32.8793