/*--------------------------------*- C++ -*----------------------------------*\
| =========                 |                                                 |
| \\      /  F ield         | OpenFOAM: The Open Source CFD Toolbox           |
|  \\    /   O peration     | Version:  2206                                  |
|   \\  /    A nd           | Website:  www.openfoam.com                      |
|    \\/     M anipulation  |                                                 |
\*---------------------------------------------------------------------------*/
FoamFile
{
    version     2.0;
    format      ascii;
    arch        "LSB;label=32;scalar=64";
    class       volScalarField;
    location    "1.35";
    object      wave;
}
// * * * * * * * * * * * * * * * * * * * * * * * * * * * * * * * * * * * * * //

dimensions      [0 0 0 0 0 0 0];

internalField   nonuniform List<scalar> 
100
(
0.990011
0.999852
0.984575
0.944563
0.880821
0.794952
0.689111
0.565959
0.428588
0.28045
0.125267
-0.0330637
-0.190563
-0.343276
-0.487364
-0.619209
-0.735498
-0.833309
-0.910186
-0.964197
-0.993986
-0.998803
-0.978528
-0.93367
-0.865356
-0.775303
-0.665772
-0.539516
-0.399706
-0.249854
-0.0937256
0.0647576
0.221614
0.372903
0.514824
0.643811
0.756624
0.850429
0.92287
0.972126
0.99696
0.996748
0.971496
0.921837
0.84902
0.754874
0.641763
0.51253
0.370421
0.219007
0.0620902
-0.0963863
-0.252441
-0.402154
-0.541765
-0.667764
-0.776988
-0.866693
-0.934624
-0.979075
-0.99893
-0.993689
-0.963485
-0.909076
-0.831829
-0.733684
-0.617108
-0.485029
-0.340764
-0.187939
-0.0303923
0.127918
0.283014
0.431001
0.56816
0.691046
0.79657
0.882084
0.945437
0.985039
0.999894
0.98963
0.954505
0.8954
0.8138
0.711756
0.591831
0.457038
0.310764
0.156682
-0.00133624
-0.159321
-0.313303
-0.459414
-0.593983
-0.713631
-0.81535
-0.896586
-0.955298
-0.990011
)
;

boundaryField
{
    movingWall
    {
        type            calculated;
        value           uniform 0;
    }
    fixedWalls
    {
        type            calculated;
        value           uniform 0;
    }
    frontAndBack
    {
        type            empty;
    }
}


// ************************************************************************* //
