/*--------------------------------*- C++ -*----------------------------------*\
| =========                 |                                                 |
| \\      /  F ield         | OpenFOAM: The Open Source CFD Toolbox           |
|  \\    /   O peration     | Version:  2312                                  |
|   \\  /    A nd           | Website:  www.openfoam.com                      |
|    \\/     M anipulation  |                                                 |
\*---------------------------------------------------------------------------*/
FoamFile
{
    version     2.0;
    format      ascii;
    arch        "LSB;label=32;scalar=64";
    class       volVectorField;
    location    "0.497";
    object      U;
}
// * * * * * * * * * * * * * * * * * * * * * * * * * * * * * * * * * * * * * //

dimensions      [0 1 -1 0 0 0 0];

internalField   nonuniform List<vector> 
31205
(
(114.144 0 0)
(116.722 0 0)
(119.353 0 0)
(122.019 0 0)
(124.702 0 0)
(127.39 0 0)
(130.074 0 0)
(132.746 0 0)
(135.401 0 0)
(138.034 0 0)
(140.643 0 0)
(143.225 0 0)
(145.778 0 0)
(148.302 0 0)
(150.795 0 0)
(153.257 0 0)
(155.689 0 0)
(158.089 0 0)
(160.459 0 0)
(162.798 0 0)
(165.107 0 0)
(167.386 0 0)
(169.636 0 0)
(171.857 0 0)
(174.05 0 0)
(176.214 0 0)
(178.351 0 0)
(180.461 0 0)
(182.545 0 0)
(184.602 0 0)
(186.635 0 0)
(188.642 0 0)
(190.624 0 0)
(192.583 0 0)
(194.518 0 0)
(196.429 0 0)
(198.318 0 0)
(200.184 0 0)
(202.028 0 0)
(203.85 0 0)
(205.651 0 0)
(207.431 0 0)
(209.19 0 0)
(210.929 0 0)
(212.648 0 0)
(214.347 0 0)
(216.026 0 0)
(217.686 0 0)
(219.327 0 0)
(220.949 0 0)
(222.553 0 0)
(224.138 0 0)
(225.706 0 0)
(227.255 0 0)
(228.787 0 0)
(230.301 0 0)
(231.797 0 0)
(233.277 0 0)
(234.74 0 0)
(236.186 0 0)
(237.615 0 0)
(239.027 0 0)
(240.424 0 0)
(241.804 0 0)
(243.167 0 0)
(244.515 0 0)
(245.847 0 0)
(247.163 0 0)
(248.464 0 0)
(249.748 0 0)
(251.018 0 0)
(252.271 0 0)
(253.51 0 0)
(254.732 0 0)
(255.944 0 0)
(257.124 0 0)
(258.342 0 0)
(259.378 0 0)
(260.914 0 0)
(116.477 0 0)
(119.035 0 0)
(121.627 0 0)
(124.237 0 0)
(126.855 0 0)
(129.471 0 0)
(132.077 0 0)
(134.668 0 0)
(137.24 0 0)
(139.789 0 0)
(142.313 0 0)
(144.811 0 0)
(147.282 0 0)
(149.724 0 0)
(152.137 0 0)
(154.52 0 0)
(156.875 0 0)
(159.2 0 0)
(161.496 0 0)
(163.764 0 0)
(166.003 0 0)
(168.213 0 0)
(170.397 0 0)
(172.553 0 0)
(174.682 0 0)
(176.784 0 0)
(178.861 0 0)
(180.913 0 0)
(182.939 0 0)
(184.941 0 0)
(186.918 0 0)
(188.872 0 0)
(190.803 0 0)
(192.711 0 0)
(194.596 0 0)
(196.459 0 0)
(198.3 0 0)
(200.121 0 0)
(201.92 0 0)
(203.698 0 0)
(205.456 0 0)
(207.194 0 0)
(208.912 0 0)
(210.611 0 0)
(212.29 0 0)
(213.951 0 0)
(215.592 0 0)
(217.216 0 0)
(218.821 0 0)
(220.408 0 0)
(221.977 0 0)
(223.529 0 0)
(225.064 0 0)
(226.581 0 0)
(228.082 0 0)
(229.565 0 0)
(231.032 0 0)
(232.483 0 0)
(233.917 0 0)
(235.335 0 0)
(236.737 0 0)
(238.123 0 0)
(239.494 0 0)
(240.849 0 0)
(242.188 0 0)
(243.512 0 0)
(244.821 0 0)
(246.114 0 0)
(247.393 0 0)
(248.656 0 0)
(249.905 0 0)
(251.138 0 0)
(252.358 0 0)
(253.561 0 0)
(254.754 0 0)
(255.917 0 0)
(257.117 0 0)
(258.142 0 0)
(259.645 0 0)
(118.912 0 0)
(121.43 0 0)
(123.968 0 0)
(126.514 0 0)
(129.059 0 0)
(131.596 0 0)
(134.121 0 0)
(136.628 0 0)
(139.115 0 0)
(141.58 0 0)
(144.02 0 0)
(146.434 0 0)
(148.822 0 0)
(151.182 0 0)
(153.516 0 0)
(155.822 0 0)
(158.1 0 0)
(160.35 0 0)
(162.574 0 0)
(164.77 0 0)
(166.94 0 0)
(169.083 0 0)
(171.2 0 0)
(173.292 0 0)
(175.358 0 0)
(177.4 0 0)
(179.417 0 0)
(181.411 0 0)
(183.38 0 0)
(185.327 0 0)
(187.25 0 0)
(189.152 0 0)
(191.031 0 0)
(192.888 0 0)
(194.725 0 0)
(196.54 0 0)
(198.334 0 0)
(200.109 0 0)
(201.863 0 0)
(203.598 0 0)
(205.313 0 0)
(207.01 0 0)
(208.687 0 0)
(210.346 0 0)
(211.986 0 0)
(213.609 0 0)
(215.213 0 0)
(216.8 0 0)
(218.37 0 0)
(219.922 0 0)
(221.458 0 0)
(222.976 0 0)
(224.478 0 0)
(225.964 0 0)
(227.433 0 0)
(228.886 0 0)
(230.323 0 0)
(231.745 0 0)
(233.151 0 0)
(234.541 0 0)
(235.916 0 0)
(237.276 0 0)
(238.62 0 0)
(239.95 0 0)
(241.265 0 0)
(242.565 0 0)
(243.85 0 0)
(245.121 0 0)
(246.377 0 0)
(247.619 0 0)
(248.846 0 0)
(250.06 0 0)
(251.259 0 0)
(252.443 0 0)
(253.618 0 0)
(254.763 0 0)
(255.944 0 0)
(256.957 0 0)
(258.431 0 0)
(121.359 0 0)
(123.826 0 0)
(126.301 0 0)
(128.777 0 0)
(131.246 0 0)
(133.705 0 0)
(136.147 0 0)
(138.572 0 0)
(140.976 0 0)
(143.357 0 0)
(145.715 0 0)
(148.048 0 0)
(150.355 0 0)
(152.637 0 0)
(154.893 0 0)
(157.124 0 0)
(159.328 0 0)
(161.506 0 0)
(163.659 0 0)
(165.786 0 0)
(167.889 0 0)
(169.967 0 0)
(172.02 0 0)
(174.049 0 0)
(176.054 0 0)
(178.037 0 0)
(179.996 0 0)
(181.932 0 0)
(183.847 0 0)
(185.739 0 0)
(187.61 0 0)
(189.46 0 0)
(191.289 0 0)
(193.098 0 0)
(194.886 0 0)
(196.654 0 0)
(198.403 0 0)
(200.133 0 0)
(201.844 0 0)
(203.536 0 0)
(205.209 0 0)
(206.864 0 0)
(208.502 0 0)
(210.122 0 0)
(211.724 0 0)
(213.309 0 0)
(214.877 0 0)
(216.428 0 0)
(217.962 0 0)
(219.48 0 0)
(220.982 0 0)
(222.468 0 0)
(223.938 0 0)
(225.392 0 0)
(226.83 0 0)
(228.253 0 0)
(229.661 0 0)
(231.054 0 0)
(232.431 0 0)
(233.794 0 0)
(235.142 0 0)
(236.475 0 0)
(237.794 0 0)
(239.099 0 0)
(240.389 0 0)
(241.665 0 0)
(242.927 0 0)
(244.175 0 0)
(245.409 0 0)
(246.629 0 0)
(247.835 0 0)
(249.028 0 0)
(250.207 0 0)
(251.372 0 0)
(252.528 0 0)
(253.654 0 0)
(254.817 0 0)
(255.816 0 0)
(257.262 0 0)
(123.772 0 0)
(126.179 0 0)
(128.586 0 0)
(130.989 0 0)
(133.382 0 0)
(135.761 0 0)
(138.124 0 0)
(140.467 0 0)
(142.79 0 0)
(145.091 0 0)
(147.369 0 0)
(149.624 0 0)
(151.855 0 0)
(154.061 0 0)
(156.243 0 0)
(158.4 0 0)
(160.533 0 0)
(162.642 0 0)
(164.727 0 0)
(166.788 0 0)
(168.826 0 0)
(170.84 0 0)
(172.832 0 0)
(174.8 0 0)
(176.747 0 0)
(178.672 0 0)
(180.575 0 0)
(182.457 0 0)
(184.318 0 0)
(186.158 0 0)
(187.978 0 0)
(189.778 0 0)
(191.558 0 0)
(193.319 0 0)
(195.061 0 0)
(196.784 0 0)
(198.488 0 0)
(200.174 0 0)
(201.842 0 0)
(203.492 0 0)
(205.125 0 0)
(206.74 0 0)
(208.339 0 0)
(209.92 0 0)
(211.485 0 0)
(213.033 0 0)
(214.566 0 0)
(216.082 0 0)
(217.582 0 0)
(219.066 0 0)
(220.535 0 0)
(221.988 0 0)
(223.426 0 0)
(224.849 0 0)
(226.258 0 0)
(227.651 0 0)
(229.03 0 0)
(230.394 0 0)
(231.743 0 0)
(233.079 0 0)
(234.4 0 0)
(235.707 0 0)
(237.001 0 0)
(238.28 0 0)
(239.546 0 0)
(240.798 0 0)
(242.037 0 0)
(243.262 0 0)
(244.473 0 0)
(245.672 0 0)
(246.857 0 0)
(248.029 0 0)
(249.188 0 0)
(250.333 0 0)
(251.47 0 0)
(252.578 0 0)
(253.722 0 0)
(254.706 0 0)
(256.127 0 0)
(126.127 0 0)
(128.469 0 0)
(130.806 0 0)
(133.135 0 0)
(135.451 0 0)
(137.752 0 0)
(140.036 0 0)
(142.301 0 0)
(144.546 0 0)
(146.77 0 0)
(148.971 0 0)
(151.15 0 0)
(153.307 0 0)
(155.441 0 0)
(157.551 0 0)
(159.639 0 0)
(161.704 0 0)
(163.746 0 0)
(165.766 0 0)
(167.763 0 0)
(169.738 0 0)
(171.692 0 0)
(173.624 0 0)
(175.535 0 0)
(177.425 0 0)
(179.294 0 0)
(181.143 0 0)
(182.972 0 0)
(184.781 0 0)
(186.571 0 0)
(188.342 0 0)
(190.094 0 0)
(191.827 0 0)
(193.541 0 0)
(195.238 0 0)
(196.917 0 0)
(198.578 0 0)
(200.222 0 0)
(201.848 0 0)
(203.458 0 0)
(205.051 0 0)
(206.628 0 0)
(208.188 0 0)
(209.732 0 0)
(211.261 0 0)
(212.773 0 0)
(214.27 0 0)
(215.752 0 0)
(217.218 0 0)
(218.67 0 0)
(220.106 0 0)
(221.528 0 0)
(222.935 0 0)
(224.328 0 0)
(225.706 0 0)
(227.07 0 0)
(228.42 0 0)
(229.757 0 0)
(231.079 0 0)
(232.387 0 0)
(233.682 0 0)
(234.964 0 0)
(236.232 0 0)
(237.487 0 0)
(238.728 0 0)
(239.956 0 0)
(241.172 0 0)
(242.374 0 0)
(243.564 0 0)
(244.74 0 0)
(245.904 0 0)
(247.056 0 0)
(248.195 0 0)
(249.32 0 0)
(250.437 0 0)
(251.527 0 0)
(252.652 0 0)
(253.621 0 0)
(255.016 0 0)
(128.413 0 0)
(130.687 0 0)
(132.952 0 0)
(135.207 0 0)
(137.448 0 0)
(139.673 0 0)
(141.881 0 0)
(144.07 0 0)
(146.239 0 0)
(148.388 0 0)
(150.516 0 0)
(152.623 0 0)
(154.709 0 0)
(156.773 0 0)
(158.815 0 0)
(160.836 0 0)
(162.835 0 0)
(164.814 0 0)
(166.771 0 0)
(168.707 0 0)
(170.623 0 0)
(172.518 0 0)
(174.393 0 0)
(176.248 0 0)
(178.083 0 0)
(179.899 0 0)
(181.696 0 0)
(183.474 0 0)
(185.234 0 0)
(186.975 0 0)
(188.698 0 0)
(190.403 0 0)
(192.09 0 0)
(193.76 0 0)
(195.413 0 0)
(197.049 0 0)
(198.668 0 0)
(200.271 0 0)
(201.858 0 0)
(203.428 0 0)
(204.982 0 0)
(206.521 0 0)
(208.045 0 0)
(209.553 0 0)
(211.045 0 0)
(212.523 0 0)
(213.986 0 0)
(215.434 0 0)
(216.868 0 0)
(218.287 0 0)
(219.692 0 0)
(221.083 0 0)
(222.46 0 0)
(223.823 0 0)
(225.172 0 0)
(226.507 0 0)
(227.829 0 0)
(229.138 0 0)
(230.433 0 0)
(231.715 0 0)
(232.984 0 0)
(234.24 0 0)
(235.483 0 0)
(236.714 0 0)
(237.931 0 0)
(239.136 0 0)
(240.329 0 0)
(241.509 0 0)
(242.676 0 0)
(243.831 0 0)
(244.974 0 0)
(246.105 0 0)
(247.224 0 0)
(248.329 0 0)
(249.428 0 0)
(250.499 0 0)
(251.604 0 0)
(252.558 0 0)
(253.928 0 0)
(130.626 0 0)
(132.83 0 0)
(135.024 0 0)
(137.205 0 0)
(139.372 0 0)
(141.523 0 0)
(143.657 0 0)
(145.773 0 0)
(147.869 0 0)
(149.947 0 0)
(152.004 0 0)
(154.042 0 0)
(156.059 0 0)
(158.057 0 0)
(160.034 0 0)
(161.99 0 0)
(163.927 0 0)
(165.844 0 0)
(167.741 0 0)
(169.619 0 0)
(171.477 0 0)
(173.316 0 0)
(175.136 0 0)
(176.938 0 0)
(178.72 0 0)
(180.485 0 0)
(182.232 0 0)
(183.961 0 0)
(185.672 0 0)
(187.366 0 0)
(189.043 0 0)
(190.703 0 0)
(192.346 0 0)
(193.973 0 0)
(195.584 0 0)
(197.178 0 0)
(198.757 0 0)
(200.32 0 0)
(201.868 0 0)
(203.4 0 0)
(204.917 0 0)
(206.419 0 0)
(207.906 0 0)
(209.379 0 0)
(210.837 0 0)
(212.281 0 0)
(213.711 0 0)
(215.126 0 0)
(216.528 0 0)
(217.916 0 0)
(219.29 0 0)
(220.65 0 0)
(221.998 0 0)
(223.331 0 0)
(224.652 0 0)
(225.959 0 0)
(227.254 0 0)
(228.536 0 0)
(229.804 0 0)
(231.061 0 0)
(232.304 0 0)
(233.535 0 0)
(234.754 0 0)
(235.96 0 0)
(237.154 0 0)
(238.336 0 0)
(239.506 0 0)
(240.663 0 0)
(241.809 0 0)
(242.943 0 0)
(244.065 0 0)
(245.175 0 0)
(246.274 0 0)
(247.36 0 0)
(248.439 0 0)
(249.492 0 0)
(250.578 0 0)
(251.516 0 0)
(252.862 0 0)
(132.765 0 0)
(134.898 0 0)
(137.021 0 0)
(139.131 0 0)
(141.226 0 0)
(143.305 0 0)
(145.367 0 0)
(147.412 0 0)
(149.439 0 0)
(151.447 0 0)
(153.437 0 0)
(155.408 0 0)
(157.361 0 0)
(159.294 0 0)
(161.208 0 0)
(163.104 0 0)
(164.98 0 0)
(166.838 0 0)
(168.678 0 0)
(170.499 0 0)
(172.302 0 0)
(174.087 0 0)
(175.854 0 0)
(177.604 0 0)
(179.337 0 0)
(181.052 0 0)
(182.75 0 0)
(184.432 0 0)
(186.096 0 0)
(187.745 0 0)
(189.378 0 0)
(190.994 0 0)
(192.595 0 0)
(194.18 0 0)
(195.749 0 0)
(197.304 0 0)
(198.843 0 0)
(200.368 0 0)
(201.877 0 0)
(203.373 0 0)
(204.853 0 0)
(206.32 0 0)
(207.772 0 0)
(209.211 0 0)
(210.635 0 0)
(212.046 0 0)
(213.443 0 0)
(214.827 0 0)
(216.197 0 0)
(217.555 0 0)
(218.899 0 0)
(220.23 0 0)
(221.548 0 0)
(222.853 0 0)
(224.146 0 0)
(225.426 0 0)
(226.694 0 0)
(227.949 0 0)
(229.192 0 0)
(230.422 0 0)
(231.641 0 0)
(232.847 0 0)
(234.042 0 0)
(235.225 0 0)
(236.395 0 0)
(237.554 0 0)
(238.702 0 0)
(239.837 0 0)
(240.962 0 0)
(242.074 0 0)
(243.176 0 0)
(244.266 0 0)
(245.345 0 0)
(246.411 0 0)
(247.471 0 0)
(248.505 0 0)
(249.572 0 0)
(250.495 0 0)
(251.816 0 0)
(134.828 0 0)
(136.893 0 0)
(138.946 0 0)
(140.985 0 0)
(143.01 0 0)
(145.02 0 0)
(147.013 0 0)
(148.99 0 0)
(150.95 0 0)
(152.893 0 0)
(154.818 0 0)
(156.725 0 0)
(158.614 0 0)
(160.486 0 0)
(162.34 0 0)
(164.177 0 0)
(165.996 0 0)
(167.797 0 0)
(169.582 0 0)
(171.349 0 0)
(173.099 0 0)
(174.832 0 0)
(176.548 0 0)
(178.248 0 0)
(179.932 0 0)
(181.6 0 0)
(183.251 0 0)
(184.887 0 0)
(186.507 0 0)
(188.112 0 0)
(189.702 0 0)
(191.276 0 0)
(192.835 0 0)
(194.38 0 0)
(195.91 0 0)
(197.426 0 0)
(198.927 0 0)
(200.414 0 0)
(201.887 0 0)
(203.346 0 0)
(204.792 0 0)
(206.224 0 0)
(207.642 0 0)
(209.047 0 0)
(210.439 0 0)
(211.818 0 0)
(213.184 0 0)
(214.536 0 0)
(215.876 0 0)
(217.204 0 0)
(218.518 0 0)
(219.821 0 0)
(221.111 0 0)
(222.388 0 0)
(223.653 0 0)
(224.907 0 0)
(226.148 0 0)
(227.377 0 0)
(228.595 0 0)
(229.8 0 0)
(230.994 0 0)
(232.177 0 0)
(233.347 0 0)
(234.507 0 0)
(235.655 0 0)
(236.791 0 0)
(237.917 0 0)
(239.031 0 0)
(240.134 0 0)
(241.226 0 0)
(242.306 0 0)
(243.376 0 0)
(244.436 0 0)
(245.483 0 0)
(246.523 0 0)
(247.54 0 0)
(248.587 0 0)
(249.495 0 0)
(250.791 0 0)
(136.819 0 0)
(138.816 0 0)
(140.8 0 0)
(142.772 0 0)
(144.729 0 0)
(146.671 0 0)
(148.599 0 0)
(150.51 0 0)
(152.405 0 0)
(154.284 0 0)
(156.147 0 0)
(157.993 0 0)
(159.823 0 0)
(161.636 0 0)
(163.432 0 0)
(165.212 0 0)
(166.976 0 0)
(168.723 0 0)
(170.454 0 0)
(172.169 0 0)
(173.868 0 0)
(175.551 0 0)
(177.219 0 0)
(178.871 0 0)
(180.508 0 0)
(182.13 0 0)
(183.736 0 0)
(185.328 0 0)
(186.905 0 0)
(188.467 0 0)
(190.015 0 0)
(191.549 0 0)
(193.069 0 0)
(194.574 0 0)
(196.066 0 0)
(197.544 0 0)
(199.008 0 0)
(200.459 0 0)
(201.897 0 0)
(203.321 0 0)
(204.732 0 0)
(206.131 0 0)
(207.516 0 0)
(208.889 0 0)
(210.249 0 0)
(211.596 0 0)
(212.931 0 0)
(214.254 0 0)
(215.564 0 0)
(216.862 0 0)
(218.148 0 0)
(219.423 0 0)
(220.685 0 0)
(221.935 0 0)
(223.174 0 0)
(224.401 0 0)
(225.616 0 0)
(226.82 0 0)
(228.013 0 0)
(229.194 0 0)
(230.364 0 0)
(231.523 0 0)
(232.67 0 0)
(233.807 0 0)
(234.932 0 0)
(236.047 0 0)
(237.15 0 0)
(238.243 0 0)
(239.325 0 0)
(240.396 0 0)
(241.457 0 0)
(242.507 0 0)
(243.547 0 0)
(244.575 0 0)
(245.596 0 0)
(246.595 0 0)
(247.623 0 0)
(248.516 0 0)
(249.786 0 0)
(138.737 0 0)
(140.668 0 0)
(142.586 0 0)
(144.492 0 0)
(146.384 0 0)
(148.262 0 0)
(150.125 0 0)
(151.974 0 0)
(153.807 0 0)
(155.625 0 0)
(157.428 0 0)
(159.216 0 0)
(160.988 0 0)
(162.744 0 0)
(164.485 0 0)
(166.211 0 0)
(167.921 0 0)
(169.616 0 0)
(171.296 0 0)
(172.961 0 0)
(174.611 0 0)
(176.246 0 0)
(177.867 0 0)
(179.473 0 0)
(181.065 0 0)
(182.642 0 0)
(184.205 0 0)
(185.755 0 0)
(187.29 0 0)
(188.811 0 0)
(190.319 0 0)
(191.814 0 0)
(193.295 0 0)
(194.762 0 0)
(196.217 0 0)
(197.658 0 0)
(199.087 0 0)
(200.503 0 0)
(201.906 0 0)
(203.297 0 0)
(204.675 0 0)
(206.04 0 0)
(207.394 0 0)
(208.735 0 0)
(210.064 0 0)
(211.381 0 0)
(212.686 0 0)
(213.979 0 0)
(215.261 0 0)
(216.531 0 0)
(217.789 0 0)
(219.035 0 0)
(220.271 0 0)
(221.495 0 0)
(222.707 0 0)
(223.909 0 0)
(225.099 0 0)
(226.278 0 0)
(227.446 0 0)
(228.603 0 0)
(229.75 0 0)
(230.885 0 0)
(232.01 0 0)
(233.124 0 0)
(234.227 0 0)
(235.32 0 0)
(236.402 0 0)
(237.474 0 0)
(238.535 0 0)
(239.586 0 0)
(240.627 0 0)
(241.657 0 0)
(242.678 0 0)
(243.687 0 0)
(244.69 0 0)
(245.67 0 0)
(246.68 0 0)
(247.557 0 0)
(248.803 0 0)
(140.586 0 0)
(142.452 0 0)
(144.306 0 0)
(146.148 0 0)
(147.977 0 0)
(149.793 0 0)
(151.595 0 0)
(153.384 0 0)
(155.158 0 0)
(156.917 0 0)
(158.663 0 0)
(160.394 0 0)
(162.111 0 0)
(163.813 0 0)
(165.501 0 0)
(167.174 0 0)
(168.834 0 0)
(170.479 0 0)
(172.11 0 0)
(173.726 0 0)
(175.329 0 0)
(176.918 0 0)
(178.494 0 0)
(180.055 0 0)
(181.603 0 0)
(183.138 0 0)
(184.659 0 0)
(186.168 0 0)
(187.663 0 0)
(189.145 0 0)
(190.614 0 0)
(192.07 0 0)
(193.514 0 0)
(194.945 0 0)
(196.364 0 0)
(197.77 0 0)
(199.164 0 0)
(200.546 0 0)
(201.915 0 0)
(203.273 0 0)
(204.619 0 0)
(205.953 0 0)
(207.275 0 0)
(208.585 0 0)
(209.884 0 0)
(211.172 0 0)
(212.448 0 0)
(213.712 0 0)
(214.966 0 0)
(216.208 0 0)
(217.439 0 0)
(218.659 0 0)
(219.868 0 0)
(221.066 0 0)
(222.253 0 0)
(223.429 0 0)
(224.595 0 0)
(225.75 0 0)
(226.894 0 0)
(228.028 0 0)
(229.151 0 0)
(230.264 0 0)
(231.366 0 0)
(232.458 0 0)
(233.539 0 0)
(234.611 0 0)
(235.672 0 0)
(236.723 0 0)
(237.764 0 0)
(238.795 0 0)
(239.816 0 0)
(240.827 0 0)
(241.828 0 0)
(242.819 0 0)
(243.803 0 0)
(244.765 0 0)
(245.757 0 0)
(246.619 0 0)
(247.84 0 0)
(142.366 0 0)
(144.17 0 0)
(145.963 0 0)
(147.744 0 0)
(149.512 0 0)
(151.268 0 0)
(153.011 0 0)
(154.742 0 0)
(156.459 0 0)
(158.163 0 0)
(159.853 0 0)
(161.53 0 0)
(163.194 0 0)
(164.844 0 0)
(166.481 0 0)
(168.104 0 0)
(169.715 0 0)
(171.311 0 0)
(172.895 0 0)
(174.466 0 0)
(176.023 0 0)
(177.568 0 0)
(179.099 0 0)
(180.618 0 0)
(182.124 0 0)
(183.618 0 0)
(185.099 0 0)
(186.567 0 0)
(188.024 0 0)
(189.467 0 0)
(190.899 0 0)
(192.319 0 0)
(193.726 0 0)
(195.122 0 0)
(196.506 0 0)
(197.878 0 0)
(199.238 0 0)
(200.587 0 0)
(201.924 0 0)
(203.25 0 0)
(204.565 0 0)
(205.868 0 0)
(207.16 0 0)
(208.44 0 0)
(209.71 0 0)
(210.969 0 0)
(212.216 0 0)
(213.453 0 0)
(214.679 0 0)
(215.895 0 0)
(217.099 0 0)
(218.293 0 0)
(219.476 0 0)
(220.649 0 0)
(221.811 0 0)
(222.963 0 0)
(224.104 0 0)
(225.236 0 0)
(226.356 0 0)
(227.467 0 0)
(228.568 0 0)
(229.658 0 0)
(230.738 0 0)
(231.809 0 0)
(232.869 0 0)
(233.919 0 0)
(234.96 0 0)
(235.991 0 0)
(237.012 0 0)
(238.023 0 0)
(239.024 0 0)
(240.016 0 0)
(240.999 0 0)
(241.97 0 0)
(242.937 0 0)
(243.881 0 0)
(244.854 0 0)
(245.701 0 0)
(246.898 0 0)
(144.081 0 0)
(145.825 0 0)
(147.558 0 0)
(149.28 0 0)
(150.99 0 0)
(152.689 0 0)
(154.376 0 0)
(156.05 0 0)
(157.713 0 0)
(159.363 0 0)
(161 0 0)
(162.626 0 0)
(164.238 0 0)
(165.839 0 0)
(167.427 0 0)
(169.002 0 0)
(170.565 0 0)
(172.116 0 0)
(173.654 0 0)
(175.18 0 0)
(176.694 0 0)
(178.196 0 0)
(179.685 0 0)
(181.163 0 0)
(182.628 0 0)
(184.082 0 0)
(185.524 0 0)
(186.954 0 0)
(188.373 0 0)
(189.78 0 0)
(191.176 0 0)
(192.56 0 0)
(193.932 0 0)
(195.294 0 0)
(196.644 0 0)
(197.983 0 0)
(199.311 0 0)
(200.627 0 0)
(201.933 0 0)
(203.228 0 0)
(204.512 0 0)
(205.785 0 0)
(207.048 0 0)
(208.3 0 0)
(209.541 0 0)
(210.772 0 0)
(211.992 0 0)
(213.202 0 0)
(214.401 0 0)
(215.59 0 0)
(216.769 0 0)
(217.937 0 0)
(219.095 0 0)
(220.243 0 0)
(221.381 0 0)
(222.509 0 0)
(223.627 0 0)
(224.735 0 0)
(225.833 0 0)
(226.921 0 0)
(227.999 0 0)
(229.068 0 0)
(230.127 0 0)
(231.176 0 0)
(232.215 0 0)
(233.245 0 0)
(234.265 0 0)
(235.276 0 0)
(236.277 0 0)
(237.269 0 0)
(238.251 0 0)
(239.224 0 0)
(240.188 0 0)
(241.142 0 0)
(242.09 0 0)
(243.017 0 0)
(243.971 0 0)
(244.804 0 0)
(245.976 0 0)
(145.733 0 0)
(147.419 0 0)
(149.094 0 0)
(150.759 0 0)
(152.414 0 0)
(154.058 0 0)
(155.69 0 0)
(157.311 0 0)
(158.921 0 0)
(160.52 0 0)
(162.107 0 0)
(163.682 0 0)
(165.246 0 0)
(166.799 0 0)
(168.339 0 0)
(169.869 0 0)
(171.386 0 0)
(172.892 0 0)
(174.387 0 0)
(175.87 0 0)
(177.342 0 0)
(178.803 0 0)
(180.252 0 0)
(181.69 0 0)
(183.116 0 0)
(184.532 0 0)
(185.936 0 0)
(187.329 0 0)
(188.712 0 0)
(190.083 0 0)
(191.444 0 0)
(192.793 0 0)
(194.132 0 0)
(195.46 0 0)
(196.778 0 0)
(198.085 0 0)
(199.381 0 0)
(200.667 0 0)
(201.942 0 0)
(203.207 0 0)
(204.461 0 0)
(205.706 0 0)
(206.94 0 0)
(208.163 0 0)
(209.377 0 0)
(210.581 0 0)
(211.774 0 0)
(212.957 0 0)
(214.131 0 0)
(215.294 0 0)
(216.447 0 0)
(217.591 0 0)
(218.725 0 0)
(219.849 0 0)
(220.963 0 0)
(222.068 0 0)
(223.162 0 0)
(224.248 0 0)
(225.323 0 0)
(226.389 0 0)
(227.446 0 0)
(228.493 0 0)
(229.531 0 0)
(230.559 0 0)
(231.578 0 0)
(232.587 0 0)
(233.588 0 0)
(234.579 0 0)
(235.561 0 0)
(236.533 0 0)
(237.497 0 0)
(238.451 0 0)
(239.397 0 0)
(240.332 0 0)
(241.262 0 0)
(242.172 0 0)
(243.109 0 0)
(243.926 0 0)
(245.074 0 0)
(147.323 0 0)
(148.953 0 0)
(150.574 0 0)
(152.185 0 0)
(153.785 0 0)
(155.376 0 0)
(156.957 0 0)
(158.527 0 0)
(160.086 0 0)
(161.636 0 0)
(163.174 0 0)
(164.702 0 0)
(166.219 0 0)
(167.725 0 0)
(169.221 0 0)
(170.705 0 0)
(172.18 0 0)
(173.643 0 0)
(175.096 0 0)
(176.538 0 0)
(177.969 0 0)
(179.39 0 0)
(180.8 0 0)
(182.199 0 0)
(183.588 0 0)
(184.967 0 0)
(186.335 0 0)
(187.692 0 0)
(189.04 0 0)
(190.377 0 0)
(191.703 0 0)
(193.02 0 0)
(194.326 0 0)
(195.622 0 0)
(196.908 0 0)
(198.183 0 0)
(199.449 0 0)
(200.705 0 0)
(201.951 0 0)
(203.186 0 0)
(204.412 0 0)
(205.628 0 0)
(206.835 0 0)
(208.031 0 0)
(209.218 0 0)
(210.395 0 0)
(211.562 0 0)
(212.72 0 0)
(213.868 0 0)
(215.006 0 0)
(216.135 0 0)
(217.255 0 0)
(218.365 0 0)
(219.465 0 0)
(220.556 0 0)
(221.638 0 0)
(222.71 0 0)
(223.773 0 0)
(224.827 0 0)
(225.872 0 0)
(226.907 0 0)
(227.933 0 0)
(228.95 0 0)
(229.958 0 0)
(230.957 0 0)
(231.946 0 0)
(232.927 0 0)
(233.899 0 0)
(234.862 0 0)
(235.816 0 0)
(236.761 0 0)
(237.697 0 0)
(238.624 0 0)
(239.542 0 0)
(240.454 0 0)
(241.347 0 0)
(242.265 0 0)
(243.068 0 0)
(244.193 0 0)
(148.855 0 0)
(150.432 0 0)
(151.999 0 0)
(153.558 0 0)
(155.107 0 0)
(156.647 0 0)
(158.178 0 0)
(159.699 0 0)
(161.21 0 0)
(162.711 0 0)
(164.203 0 0)
(165.685 0 0)
(167.157 0 0)
(168.619 0 0)
(170.071 0 0)
(171.514 0 0)
(172.946 0 0)
(174.368 0 0)
(175.78 0 0)
(177.182 0 0)
(178.575 0 0)
(179.957 0 0)
(181.33 0 0)
(182.692 0 0)
(184.045 0 0)
(185.388 0 0)
(186.721 0 0)
(188.044 0 0)
(189.357 0 0)
(190.661 0 0)
(191.955 0 0)
(193.239 0 0)
(194.514 0 0)
(195.778 0 0)
(197.034 0 0)
(198.279 0 0)
(199.516 0 0)
(200.742 0 0)
(201.959 0 0)
(203.167 0 0)
(204.365 0 0)
(205.554 0 0)
(206.733 0 0)
(207.903 0 0)
(209.063 0 0)
(210.215 0 0)
(211.357 0 0)
(212.489 0 0)
(213.613 0 0)
(214.727 0 0)
(215.832 0 0)
(216.928 0 0)
(218.015 0 0)
(219.092 0 0)
(220.161 0 0)
(221.22 0 0)
(222.271 0 0)
(223.312 0 0)
(224.344 0 0)
(225.368 0 0)
(226.382 0 0)
(227.388 0 0)
(228.385 0 0)
(229.372 0 0)
(230.351 0 0)
(231.322 0 0)
(232.283 0 0)
(233.236 0 0)
(234.18 0 0)
(235.115 0 0)
(236.042 0 0)
(236.96 0 0)
(237.87 0 0)
(238.77 0 0)
(239.665 0 0)
(240.541 0 0)
(241.442 0 0)
(242.23 0 0)
(243.331 0 0)
(150.331 0 0)
(151.855 0 0)
(153.372 0 0)
(154.88 0 0)
(156.38 0 0)
(157.872 0 0)
(159.354 0 0)
(160.828 0 0)
(162.293 0 0)
(163.749 0 0)
(165.196 0 0)
(166.634 0 0)
(168.063 0 0)
(169.482 0 0)
(170.893 0 0)
(172.294 0 0)
(173.686 0 0)
(175.068 0 0)
(176.442 0 0)
(177.806 0 0)
(179.161 0 0)
(180.506 0 0)
(181.842 0 0)
(183.169 0 0)
(184.487 0 0)
(185.795 0 0)
(187.094 0 0)
(188.384 0 0)
(189.665 0 0)
(190.936 0 0)
(192.199 0 0)
(193.452 0 0)
(194.696 0 0)
(195.931 0 0)
(197.156 0 0)
(198.373 0 0)
(199.58 0 0)
(200.778 0 0)
(201.968 0 0)
(203.148 0 0)
(204.319 0 0)
(205.481 0 0)
(206.634 0 0)
(207.778 0 0)
(208.914 0 0)
(210.04 0 0)
(211.157 0 0)
(212.266 0 0)
(213.365 0 0)
(214.456 0 0)
(215.537 0 0)
(216.61 0 0)
(217.674 0 0)
(218.73 0 0)
(219.776 0 0)
(220.814 0 0)
(221.843 0 0)
(222.863 0 0)
(223.874 0 0)
(224.877 0 0)
(225.871 0 0)
(226.857 0 0)
(227.834 0 0)
(228.802 0 0)
(229.762 0 0)
(230.713 0 0)
(231.655 0 0)
(232.59 0 0)
(233.515 0 0)
(234.432 0 0)
(235.341 0 0)
(236.242 0 0)
(237.134 0 0)
(238.017 0 0)
(238.895 0 0)
(239.754 0 0)
(240.637 0 0)
(241.412 0 0)
(242.489 0 0)
(151.752 0 0)
(153.227 0 0)
(154.695 0 0)
(156.155 0 0)
(157.608 0 0)
(159.052 0 0)
(160.489 0 0)
(161.918 0 0)
(163.338 0 0)
(164.751 0 0)
(166.154 0 0)
(167.55 0 0)
(168.937 0 0)
(170.316 0 0)
(171.686 0 0)
(173.048 0 0)
(174.401 0 0)
(175.745 0 0)
(177.081 0 0)
(178.408 0 0)
(179.727 0 0)
(181.037 0 0)
(182.338 0 0)
(183.631 0 0)
(184.915 0 0)
(186.19 0 0)
(187.456 0 0)
(188.714 0 0)
(189.963 0 0)
(191.203 0 0)
(192.435 0 0)
(193.658 0 0)
(194.872 0 0)
(196.078 0 0)
(197.275 0 0)
(198.463 0 0)
(199.643 0 0)
(200.814 0 0)
(201.976 0 0)
(203.13 0 0)
(204.275 0 0)
(205.411 0 0)
(206.539 0 0)
(207.658 0 0)
(208.768 0 0)
(209.87 0 0)
(210.963 0 0)
(212.048 0 0)
(213.124 0 0)
(214.192 0 0)
(215.251 0 0)
(216.301 0 0)
(217.343 0 0)
(218.377 0 0)
(219.402 0 0)
(220.418 0 0)
(221.426 0 0)
(222.426 0 0)
(223.417 0 0)
(224.4 0 0)
(225.374 0 0)
(226.34 0 0)
(227.297 0 0)
(228.246 0 0)
(229.187 0 0)
(230.12 0 0)
(231.044 0 0)
(231.96 0 0)
(232.867 0 0)
(233.767 0 0)
(234.658 0 0)
(235.541 0 0)
(236.416 0 0)
(237.282 0 0)
(238.143 0 0)
(238.985 0 0)
(239.852 0 0)
(240.612 0 0)
(241.667 0 0)
(153.121 0 0)
(154.549 0 0)
(155.97 0 0)
(157.384 0 0)
(158.791 0 0)
(160.191 0 0)
(161.583 0 0)
(162.968 0 0)
(164.346 0 0)
(165.717 0 0)
(167.079 0 0)
(168.434 0 0)
(169.781 0 0)
(171.121 0 0)
(172.452 0 0)
(173.776 0 0)
(175.092 0 0)
(176.4 0 0)
(177.699 0 0)
(178.991 0 0)
(180.275 0 0)
(181.551 0 0)
(182.818 0 0)
(184.077 0 0)
(185.329 0 0)
(186.572 0 0)
(187.807 0 0)
(189.033 0 0)
(190.252 0 0)
(191.462 0 0)
(192.664 0 0)
(193.858 0 0)
(195.044 0 0)
(196.221 0 0)
(197.39 0 0)
(198.551 0 0)
(199.704 0 0)
(200.848 0 0)
(201.984 0 0)
(203.112 0 0)
(204.232 0 0)
(205.343 0 0)
(206.446 0 0)
(207.541 0 0)
(208.627 0 0)
(209.705 0 0)
(210.775 0 0)
(211.837 0 0)
(212.891 0 0)
(213.936 0 0)
(214.973 0 0)
(216.001 0 0)
(217.022 0 0)
(218.034 0 0)
(219.038 0 0)
(220.034 0 0)
(221.021 0 0)
(222.001 0 0)
(222.972 0 0)
(223.935 0 0)
(224.89 0 0)
(225.836 0 0)
(226.775 0 0)
(227.705 0 0)
(228.627 0 0)
(229.542 0 0)
(230.448 0 0)
(231.346 0 0)
(232.235 0 0)
(233.117 0 0)
(233.991 0 0)
(234.857 0 0)
(235.715 0 0)
(236.564 0 0)
(237.409 0 0)
(238.235 0 0)
(239.085 0 0)
(239.831 0 0)
(240.863 0 0)
(154.44 0 0)
(155.823 0 0)
(157.198 0 0)
(158.568 0 0)
(159.931 0 0)
(161.288 0 0)
(162.638 0 0)
(163.982 0 0)
(165.319 0 0)
(166.649 0 0)
(167.972 0 0)
(169.288 0 0)
(170.597 0 0)
(171.898 0 0)
(173.193 0 0)
(174.48 0 0)
(175.76 0 0)
(177.032 0 0)
(178.297 0 0)
(179.555 0 0)
(180.805 0 0)
(182.047 0 0)
(183.282 0 0)
(184.51 0 0)
(185.729 0 0)
(186.942 0 0)
(188.146 0 0)
(189.343 0 0)
(190.532 0 0)
(191.713 0 0)
(192.886 0 0)
(194.052 0 0)
(195.21 0 0)
(196.36 0 0)
(197.502 0 0)
(198.636 0 0)
(199.763 0 0)
(200.882 0 0)
(201.992 0 0)
(203.095 0 0)
(204.19 0 0)
(205.277 0 0)
(206.356 0 0)
(207.427 0 0)
(208.49 0 0)
(209.546 0 0)
(210.593 0 0)
(211.632 0 0)
(212.664 0 0)
(213.687 0 0)
(214.702 0 0)
(215.71 0 0)
(216.709 0 0)
(217.701 0 0)
(218.684 0 0)
(219.66 0 0)
(220.628 0 0)
(221.587 0 0)
(222.539 0 0)
(223.483 0 0)
(224.418 0 0)
(225.346 0 0)
(226.266 0 0)
(227.178 0 0)
(228.082 0 0)
(228.979 0 0)
(229.867 0 0)
(230.747 0 0)
(231.62 0 0)
(232.484 0 0)
(233.341 0 0)
(234.19 0 0)
(235.032 0 0)
(235.865 0 0)
(236.693 0 0)
(237.503 0 0)
(238.336 0 0)
(239.069 0 0)
(240.079 0 0)
(155.712 0 0)
(157.05 0 0)
(158.383 0 0)
(159.71 0 0)
(161.031 0 0)
(162.347 0 0)
(163.656 0 0)
(164.96 0 0)
(166.257 0 0)
(167.549 0 0)
(168.833 0 0)
(170.112 0 0)
(171.384 0 0)
(172.649 0 0)
(173.908 0 0)
(175.16 0 0)
(176.405 0 0)
(177.644 0 0)
(178.875 0 0)
(180.1 0 0)
(181.317 0 0)
(182.528 0 0)
(183.732 0 0)
(184.928 0 0)
(186.117 0 0)
(187.3 0 0)
(188.475 0 0)
(189.642 0 0)
(190.803 0 0)
(191.956 0 0)
(193.102 0 0)
(194.24 0 0)
(195.371 0 0)
(196.495 0 0)
(197.611 0 0)
(198.719 0 0)
(199.82 0 0)
(200.914 0 0)
(202 0 0)
(203.079 0 0)
(204.15 0 0)
(205.213 0 0)
(206.269 0 0)
(207.317 0 0)
(208.358 0 0)
(209.391 0 0)
(210.416 0 0)
(211.433 0 0)
(212.443 0 0)
(213.445 0 0)
(214.44 0 0)
(215.427 0 0)
(216.406 0 0)
(217.377 0 0)
(218.341 0 0)
(219.297 0 0)
(220.245 0 0)
(221.185 0 0)
(222.118 0 0)
(223.043 0 0)
(223.96 0 0)
(224.869 0 0)
(225.771 0 0)
(226.665 0 0)
(227.551 0 0)
(228.43 0 0)
(229.301 0 0)
(230.164 0 0)
(231.02 0 0)
(231.868 0 0)
(232.708 0 0)
(233.54 0 0)
(234.365 0 0)
(235.182 0 0)
(235.994 0 0)
(236.789 0 0)
(237.605 0 0)
(238.325 0 0)
(239.313 0 0)
(156.937 0 0)
(158.233 0 0)
(159.525 0 0)
(160.811 0 0)
(162.092 0 0)
(163.368 0 0)
(164.639 0 0)
(165.904 0 0)
(167.163 0 0)
(168.417 0 0)
(169.665 0 0)
(170.908 0 0)
(172.144 0 0)
(173.375 0 0)
(174.599 0 0)
(175.817 0 0)
(177.029 0 0)
(178.235 0 0)
(179.434 0 0)
(180.627 0 0)
(181.813 0 0)
(182.993 0 0)
(184.166 0 0)
(185.333 0 0)
(186.493 0 0)
(187.646 0 0)
(188.793 0 0)
(189.933 0 0)
(191.065 0 0)
(192.191 0 0)
(193.31 0 0)
(194.422 0 0)
(195.527 0 0)
(196.625 0 0)
(197.716 0 0)
(198.8 0 0)
(199.876 0 0)
(200.946 0 0)
(202.008 0 0)
(203.063 0 0)
(204.111 0 0)
(205.151 0 0)
(206.185 0 0)
(207.21 0 0)
(208.229 0 0)
(209.24 0 0)
(210.244 0 0)
(211.24 0 0)
(212.229 0 0)
(213.211 0 0)
(214.185 0 0)
(215.151 0 0)
(216.111 0 0)
(217.062 0 0)
(218.006 0 0)
(218.943 0 0)
(219.872 0 0)
(220.794 0 0)
(221.708 0 0)
(222.615 0 0)
(223.514 0 0)
(224.405 0 0)
(225.289 0 0)
(226.166 0 0)
(227.035 0 0)
(227.896 0 0)
(228.75 0 0)
(229.596 0 0)
(230.435 0 0)
(231.266 0 0)
(232.09 0 0)
(232.907 0 0)
(233.716 0 0)
(234.517 0 0)
(235.313 0 0)
(236.092 0 0)
(236.892 0 0)
(237.599 0 0)
(238.565 0 0)
(158.118 0 0)
(159.374 0 0)
(160.626 0 0)
(161.873 0 0)
(163.115 0 0)
(164.353 0 0)
(165.586 0 0)
(166.815 0 0)
(168.038 0 0)
(169.256 0 0)
(170.469 0 0)
(171.677 0 0)
(172.879 0 0)
(174.076 0 0)
(175.267 0 0)
(176.452 0 0)
(177.632 0 0)
(178.806 0 0)
(179.975 0 0)
(181.137 0 0)
(182.293 0 0)
(183.443 0 0)
(184.587 0 0)
(185.725 0 0)
(186.857 0 0)
(187.982 0 0)
(189.101 0 0)
(190.214 0 0)
(191.32 0 0)
(192.419 0 0)
(193.513 0 0)
(194.599 0 0)
(195.679 0 0)
(196.752 0 0)
(197.818 0 0)
(198.878 0 0)
(199.931 0 0)
(200.977 0 0)
(202.016 0 0)
(203.048 0 0)
(204.073 0 0)
(205.091 0 0)
(206.103 0 0)
(207.107 0 0)
(208.104 0 0)
(209.094 0 0)
(210.077 0 0)
(211.053 0 0)
(212.021 0 0)
(212.983 0 0)
(213.937 0 0)
(214.884 0 0)
(215.824 0 0)
(216.756 0 0)
(217.682 0 0)
(218.599 0 0)
(219.51 0 0)
(220.413 0 0)
(221.309 0 0)
(222.198 0 0)
(223.079 0 0)
(223.953 0 0)
(224.82 0 0)
(225.679 0 0)
(226.531 0 0)
(227.376 0 0)
(228.213 0 0)
(229.043 0 0)
(229.866 0 0)
(230.681 0 0)
(231.489 0 0)
(232.289 0 0)
(233.082 0 0)
(233.868 0 0)
(234.648 0 0)
(235.413 0 0)
(236.197 0 0)
(236.891 0 0)
(237.835 0 0)
(159.257 0 0)
(160.474 0 0)
(161.688 0 0)
(162.897 0 0)
(164.102 0 0)
(165.304 0 0)
(166.501 0 0)
(167.694 0 0)
(168.882 0 0)
(170.066 0 0)
(171.245 0 0)
(172.419 0 0)
(173.588 0 0)
(174.753 0 0)
(175.912 0 0)
(177.066 0 0)
(178.215 0 0)
(179.359 0 0)
(180.497 0 0)
(181.63 0 0)
(182.757 0 0)
(183.879 0 0)
(184.995 0 0)
(186.105 0 0)
(187.209 0 0)
(188.307 0 0)
(189.4 0 0)
(190.486 0 0)
(191.566 0 0)
(192.641 0 0)
(193.709 0 0)
(194.77 0 0)
(195.826 0 0)
(196.875 0 0)
(197.918 0 0)
(198.954 0 0)
(199.983 0 0)
(201.007 0 0)
(202.023 0 0)
(203.033 0 0)
(204.037 0 0)
(205.033 0 0)
(206.023 0 0)
(207.006 0 0)
(207.983 0 0)
(208.952 0 0)
(209.915 0 0)
(210.871 0 0)
(211.82 0 0)
(212.761 0 0)
(213.696 0 0)
(214.624 0 0)
(215.545 0 0)
(216.459 0 0)
(217.366 0 0)
(218.265 0 0)
(219.158 0 0)
(220.044 0 0)
(220.922 0 0)
(221.793 0 0)
(222.657 0 0)
(223.514 0 0)
(224.364 0 0)
(225.206 0 0)
(226.042 0 0)
(226.87 0 0)
(227.691 0 0)
(228.504 0 0)
(229.311 0 0)
(230.11 0 0)
(230.902 0 0)
(231.687 0 0)
(232.465 0 0)
(233.235 0 0)
(234 0 0)
(234.75 0 0)
(235.519 0 0)
(236.2 0 0)
(237.124 0 0)
(160.356 0 0)
(161.535 0 0)
(162.712 0 0)
(163.885 0 0)
(165.055 0 0)
(166.221 0 0)
(167.384 0 0)
(168.542 0 0)
(169.697 0 0)
(170.848 0 0)
(171.994 0 0)
(173.136 0 0)
(174.274 0 0)
(175.408 0 0)
(176.536 0 0)
(177.66 0 0)
(178.779 0 0)
(179.894 0 0)
(181.003 0 0)
(182.107 0 0)
(183.206 0 0)
(184.3 0 0)
(185.389 0 0)
(186.472 0 0)
(187.55 0 0)
(188.622 0 0)
(189.689 0 0)
(190.75 0 0)
(191.805 0 0)
(192.855 0 0)
(193.899 0 0)
(194.937 0 0)
(195.968 0 0)
(196.994 0 0)
(198.014 0 0)
(199.027 0 0)
(200.035 0 0)
(201.036 0 0)
(202.031 0 0)
(203.019 0 0)
(204.001 0 0)
(204.977 0 0)