/*--------------------------------*- C++ -*----------------------------------*\
| =========                 |                                                 |
| \\      /  F ield         | OpenFOAM: The Open Source CFD Toolbox           |
|  \\    /   O peration     | Version:  2312                                  |
|   \\  /    A nd           | Website:  www.openfoam.com                      |
|    \\/     M anipulation  |                                                 |
\*---------------------------------------------------------------------------*/
FoamFile
{
    version     2.0;
    format      ascii;
    arch        "LSB;label=32;scalar=64";
    class       volVectorField;
    location    "0.53";
    object      U;
}
// * * * * * * * * * * * * * * * * * * * * * * * * * * * * * * * * * * * * * //

dimensions      [0 1 -1 0 0 0 0];

internalField   nonuniform List<vector> 
31205
(
(147.327 0 0)
(143.814 0 0)
(140.23 0 0)
(136.584 0 0)
(132.889 0 0)
(129.166 0 0)
(125.448 0 0)
(121.782 0 0)
(118.228 0 0)
(114.863 0 0)
(111.768 0 0)
(109.023 0 0)
(106.687 0 0)
(104.798 0 0)
(103.363 0 0)
(102.366 0 0)
(101.772 0 0)
(101.537 0 0)
(101.612 0 0)
(101.951 0 0)
(102.512 0 0)
(103.256 0 0)
(104.153 0 0)
(105.176 0 0)
(106.301 0 0)
(107.511 0 0)
(108.79 0 0)
(110.127 0 0)
(111.51 0 0)
(112.931 0 0)
(114.383 0 0)
(115.861 0 0)
(117.358 0 0)
(118.872 0 0)
(120.399 0 0)
(121.936 0 0)
(123.479 0 0)
(125.029 0 0)
(126.581 0 0)
(128.136 0 0)
(129.692 0 0)
(131.247 0 0)
(132.8 0 0)
(134.352 0 0)
(135.9 0 0)
(137.445 0 0)
(138.986 0 0)
(140.523 0 0)
(142.054 0 0)
(143.58 0 0)
(145.101 0 0)
(146.616 0 0)
(148.124 0 0)
(149.627 0 0)
(151.123 0 0)
(152.612 0 0)
(154.095 0 0)
(155.571 0 0)
(157.04 0 0)
(158.503 0 0)
(159.958 0 0)
(161.406 0 0)
(162.847 0 0)
(164.281 0 0)
(165.708 0 0)
(167.127 0 0)
(168.539 0 0)
(169.945 0 0)
(171.343 0 0)
(172.733 0 0)
(174.117 0 0)
(175.493 0 0)
(176.863 0 0)
(178.223 0 0)
(179.583 0 0)
(180.915 0 0)
(182.304 0 0)
(183.489 0 0)
(185.27 0 0)
(144.147 0 0)
(140.665 0 0)
(137.122 0 0)
(133.53 0 0)
(129.906 0 0)
(126.278 0 0)
(122.686 0 0)
(119.184 0 0)
(115.838 0 0)
(112.724 0 0)
(109.917 0 0)
(107.483 0 0)
(105.463 0 0)
(103.877 0 0)
(102.718 0 0)
(101.961 0 0)
(101.566 0 0)
(101.491 0 0)
(101.69 0 0)
(102.122 0 0)
(102.749 0 0)
(103.538 0 0)
(104.462 0 0)
(105.497 0 0)
(106.624 0 0)
(107.827 0 0)
(109.091 0 0)
(110.408 0 0)
(111.766 0 0)
(113.159 0 0)
(114.581 0 0)
(116.025 0 0)
(117.489 0 0)
(118.967 0 0)
(120.457 0 0)
(121.956 0 0)
(123.462 0 0)
(124.973 0 0)
(126.488 0 0)
(128.004 0 0)
(129.521 0 0)
(131.038 0 0)
(132.553 0 0)
(134.066 0 0)
(135.577 0 0)
(137.084 0 0)
(138.588 0 0)
(140.087 0 0)
(141.581 0 0)
(143.071 0 0)
(144.555 0 0)
(146.034 0 0)
(147.506 0 0)
(148.973 0 0)
(150.434 0 0)
(151.889 0 0)
(153.337 0 0)
(154.779 0 0)
(156.214 0 0)
(157.642 0 0)
(159.064 0 0)
(160.479 0 0)
(161.887 0 0)
(163.288 0 0)
(164.682 0 0)
(166.069 0 0)
(167.45 0 0)
(168.823 0 0)
(170.19 0 0)
(171.55 0 0)
(172.902 0 0)
(174.248 0 0)
(175.587 0 0)
(176.917 0 0)
(178.247 0 0)
(179.55 0 0)
(180.907 0 0)
(182.069 0 0)
(183.8 0 0)
(140.836 0 0)
(137.394 0 0)
(133.903 0 0)
(130.379 0 0)
(126.848 0 0)
(123.342 0 0)
(119.91 0 0)
(116.61 0 0)
(113.511 0 0)
(110.684 0 0)
(108.194 0 0)
(106.086 0 0)
(104.387 0 0)
(103.098 0 0)
(102.203 0 0)
(101.67 0 0)
(101.459 0 0)
(101.529 0 0)
(101.84 0 0)
(102.355 0 0)
(103.04 0 0)
(103.868 0 0)
(104.814 0 0)
(105.858 0 0)
(106.984 0 0)
(108.177 0 0)
(109.426 0 0)
(110.721 0 0)
(112.055 0 0)
(113.42 0 0)
(114.811 0 0)
(116.223 0 0)
(117.652 0 0)
(119.095 0 0)
(120.549 0 0)
(122.012 0 0)
(123.481 0 0)
(124.954 0 0)
(126.431 0 0)
(127.91 0 0)
(129.389 0 0)
(130.868 0 0)
(132.346 0 0)
(133.822 0 0)
(135.295 0 0)
(136.765 0 0)
(138.232 0 0)
(139.694 0 0)
(141.153 0 0)
(142.606 0 0)
(144.055 0 0)
(145.498 0 0)
(146.936 0 0)
(148.368 0 0)
(149.794 0 0)
(151.215 0 0)
(152.629 0 0)
(154.037 0 0)
(155.439 0 0)
(156.834 0 0)
(158.223 0 0)
(159.605 0 0)
(160.981 0 0)
(162.35 0 0)
(163.713 0 0)
(165.069 0 0)
(166.418 0 0)
(167.76 0 0)
(169.096 0 0)
(170.425 0 0)
(171.748 0 0)
(173.063 0 0)
(174.372 0 0)
(175.673 0 0)
(176.973 0 0)
(178.247 0 0)
(179.574 0 0)
(180.713 0 0)
(182.397 0 0)
(137.492 0 0)
(134.099 0 0)
(130.674 0 0)
(127.238 0 0)
(123.821 0 0)
(120.466 0 0)
(117.226 0 0)
(114.161 0 0)
(111.339 0 0)
(108.82 0 0)
(106.655 0 0)
(104.872 0 0)
(103.481 0 0)
(102.471 0 0)
(101.818 0 0)
(101.487 0 0)
(101.44 0 0)
(101.639 0 0)
(102.048 0 0)
(102.634 0 0)
(103.369 0 0)
(104.229 0 0)
(105.193 0 0)
(106.244 0 0)
(107.367 0 0)
(108.549 0 0)
(109.782 0 0)
(111.057 0 0)
(112.366 0 0)
(113.703 0 0)
(115.064 0 0)
(116.445 0 0)
(117.841 0 0)
(119.25 0 0)
(120.669 0 0)
(122.096 0 0)
(123.528 0 0)
(124.966 0 0)
(126.406 0 0)
(127.848 0 0)
(129.29 0 0)
(130.733 0 0)
(132.174 0 0)
(133.613 0 0)
(135.05 0 0)
(136.485 0 0)
(137.916 0 0)
(139.343 0 0)
(140.766 0 0)
(142.184 0 0)
(143.598 0 0)
(145.006 0 0)
(146.41 0 0)
(147.808 0 0)
(149.201 0 0)
(150.588 0 0)
(151.969 0 0)
(153.344 0 0)
(154.713 0 0)
(156.076 0 0)
(157.432 0 0)
(158.783 0 0)
(160.127 0 0)
(161.465 0 0)
(162.796 0 0)
(164.121 0 0)
(165.44 0 0)
(166.752 0 0)
(168.058 0 0)
(169.357 0 0)
(170.649 0 0)
(171.935 0 0)
(173.215 0 0)
(174.487 0 0)
(175.758 0 0)
(177.004 0 0)
(178.3 0 0)
(179.417 0 0)
(181.057 0 0)
(134.173 0 0)
(130.842 0 0)
(127.499 0 0)
(124.172 0 0)
(120.898 0 0)
(117.723 0 0)
(114.704 0 0)
(111.902 0 0)
(109.376 0 0)
(107.175 0 0)
(105.33 0 0)
(103.858 0 0)
(102.753 0 0)
(101.995 0 0)
(101.557 0 0)
(101.403 0 0)
(101.499 0 0)
(101.808 0 0)
(102.3 0 0)
(102.947 0 0)
(103.723 0 0)
(104.609 0 0)
(105.586 0 0)
(106.64 0 0)
(107.758 0 0)
(108.929 0 0)
(110.145 0 0)
(111.399 0 0)
(112.683 0 0)
(113.994 0 0)
(115.326 0 0)
(116.675 0 0)
(118.039 0 0)
(119.415 0 0)
(120.8 0 0)
(122.192 0 0)
(123.59 0 0)
(124.992 0 0)
(126.396 0 0)
(127.803 0 0)
(129.21 0 0)
(130.616 0 0)
(132.022 0 0)
(133.426 0 0)
(134.828 0 0)
(136.227 0 0)
(137.623 0 0)
(139.016 0 0)
(140.404 0 0)
(141.789 0 0)
(143.169 0 0)
(144.544 0 0)
(145.914 0 0)
(147.279 0 0)
(148.638 0 0)
(149.993 0 0)
(151.341 0 0)
(152.684 0 0)
(154.021 0 0)
(155.353 0 0)
(156.678 0 0)
(157.997 0 0)
(159.31 0 0)
(160.618 0 0)
(161.918 0 0)
(163.213 0 0)
(164.502 0 0)
(165.784 0 0)
(167.06 0 0)
(168.33 0 0)
(169.593 0 0)
(170.85 0 0)
(172.101 0 0)
(173.344 0 0)
(174.587 0 0)
(175.805 0 0)
(177.072 0 0)
(178.165 0 0)
(179.764 0 0)
(130.912 0 0)
(127.66 0 0)
(124.421 0 0)
(121.228 0 0)
(118.123 0 0)
(115.158 0 0)
(112.388 0 0)
(109.869 0 0)
(107.648 0 0)
(105.761 0 0)
(104.224 0 0)
(103.039 0 0)
(102.192 0 0)
(101.659 0 0)
(101.408 0 0)
(101.407 0 0)
(101.623 0 0)
(102.026 0 0)
(102.587 0 0)
(103.284 0 0)
(104.094 0 0)
(104.999 0 0)
(105.985 0 0)
(107.039 0 0)
(108.15 0 0)
(109.308 0 0)
(110.507 0 0)
(111.739 0 0)
(112.999 0 0)
(114.283 0 0)
(115.586 0 0)
(116.905 0 0)
(118.238 0 0)
(119.581 0 0)
(120.933 0 0)
(122.292 0 0)
(123.656 0 0)
(125.024 0 0)
(126.394 0 0)
(127.766 0 0)
(129.138 0 0)
(130.51 0 0)
(131.882 0 0)
(133.252 0 0)
(134.619 0 0)
(135.984 0 0)
(137.347 0 0)
(138.705 0 0)
(140.061 0 0)
(141.412 0 0)
(142.758 0 0)
(144.101 0 0)
(145.438 0 0)
(146.771 0 0)
(148.098 0 0)
(149.421 0 0)
(150.738 0 0)
(152.049 0 0)
(153.355 0 0)
(154.656 0 0)
(155.95 0 0)
(157.239 0 0)
(158.522 0 0)
(159.799 0 0)
(161.07 0 0)
(162.335 0 0)
(163.594 0 0)
(164.847 0 0)
(166.094 0 0)
(167.335 0 0)
(168.57 0 0)
(169.798 0 0)
(171.021 0 0)
(172.236 0 0)
(173.451 0 0)
(174.642 0 0)
(175.879 0 0)
(176.949 0 0)
(178.509 0 0)
(127.734 0 0)
(124.582 0 0)
(121.471 0 0)
(118.439 0 0)
(115.533 0 0)
(112.803 0 0)
(110.303 0 0)
(108.077 0 0)
(106.161 0 0)
(104.576 0 0)
(103.326 0 0)
(102.402 0 0)
(101.784 0 0)
(101.445 0 0)
(101.356 0 0)
(101.485 0 0)
(101.803 0 0)
(102.284 0 0)
(102.903 0 0)
(103.639 0 0)
(104.475 0 0)
(105.395 0 0)
(106.386 0 0)
(107.437 0 0)
(108.539 0 0)
(109.683 0 0)
(110.863 0 0)
(112.074 0 0)
(113.31 0 0)
(114.567 0 0)
(115.842 0 0)
(117.132 0 0)
(118.434 0 0)
(119.746 0 0)
(121.066 0 0)
(122.392 0 0)
(123.723 0 0)
(125.057 0 0)
(126.394 0 0)
(127.733 0 0)
(129.072 0 0)
(130.41 0 0)
(131.748 0 0)
(133.085 0 0)
(134.419 0 0)
(135.751 0 0)
(137.081 0 0)
(138.407 0 0)
(139.729 0 0)
(141.048 0 0)
(142.363 0 0)
(143.673 0 0)
(144.979 0 0)
(146.28 0 0)
(147.576 0 0)
(148.868 0 0)
(150.154 0 0)
(151.435 0 0)
(152.71 0 0)
(153.98 0 0)
(155.245 0 0)
(156.504 0 0)
(157.758 0 0)
(159.005 0 0)
(160.247 0 0)
(161.483 0 0)
(162.714 0 0)
(163.938 0 0)
(165.157 0 0)
(166.369 0 0)
(167.576 0 0)
(168.776 0 0)
(169.972 0 0)
(171.159 0 0)
(172.346 0 0)
(173.51 0 0)
(174.719 0 0)
(175.766 0 0)
(177.288 0 0)
(124.662 0 0)
(121.633 0 0)
(118.676 0 0)
(115.832 0 0)
(113.151 0 0)
(110.678 0 0)
(108.459 0 0)
(106.528 0 0)
(104.908 0 0)
(103.606 0 0)
(102.618 0 0)
(101.926 0 0)
(101.509 0 0)
(101.339 0 0)
(101.387 0 0)
(101.626 0 0)
(102.029 0 0)
(102.574 0 0)
(103.24 0 0)
(104.008 0 0)
(104.863 0 0)
(105.793 0 0)
(106.786 0 0)
(107.831 0 0)
(108.922 0 0)
(110.051 0 0)
(111.213 0 0)
(112.401 0 0)
(113.613 0 0)
(114.845 0 0)
(116.092 0 0)
(117.353 0 0)
(118.625 0 0)
(119.907 0 0)
(121.195 0 0)
(122.49 0 0)
(123.789 0 0)
(125.091 0 0)
(126.396 0 0)
(127.702 0 0)
(129.008 0 0)
(130.314 0 0)
(131.62 0 0)
(132.924 0 0)
(134.226 0 0)
(135.526 0 0)
(136.823 0 0)
(138.118 0 0)
(139.409 0 0)
(140.696 0 0)
(141.979 0 0)
(143.259 0 0)
(144.534 0 0)
(145.804 0 0)
(147.07 0 0)
(148.331 0 0)
(149.587 0 0)
(150.838 0 0)
(152.084 0 0)
(153.325 0 0)
(154.56 0 0)
(155.79 0 0)
(157.015 0 0)
(158.234 0 0)
(159.447 0 0)
(160.655 0 0)
(161.857 0 0)
(163.054 0 0)
(164.244 0 0)
(165.429 0 0)
(166.609 0 0)
(167.782 0 0)
(168.95 0 0)
(170.11 0 0)
(171.27 0 0)
(172.408 0 0)
(173.59 0 0)
(174.613 0 0)
(176.099 0 0)
(121.718 0 0)
(118.837 0 0)
(116.06 0 0)
(113.432 0 0)
(110.995 0 0)
(108.793 0 0)
(106.859 0 0)
(105.216 0 0)
(103.875 0 0)
(102.834 0 0)
(102.08 0 0)
(101.593 0 0)
(101.35 0 0)
(101.324 0 0)
(101.488 0 0)
(101.819 0 0)
(102.293 0 0)
(102.891 0 0)
(103.594 0 0)
(104.387 0 0)
(105.257 0 0)
(106.192 0 0)
(107.183 0 0)
(108.221 0 0)
(109.3 0 0)
(110.413 0 0)
(111.555 0 0)
(112.722 0 0)
(113.91 0 0)
(115.115 0 0)
(116.336 0 0)
(117.569 0 0)
(118.812 0 0)
(120.063 0 0)
(121.322 0 0)
(122.585 0 0)
(123.853 0 0)
(125.124 0 0)
(126.397 0 0)
(127.672 0 0)
(128.947 0 0)
(130.221 0 0)
(131.495 0 0)
(132.768 0 0)
(134.039 0 0)
(135.308 0 0)
(136.574 0 0)
(137.838 0 0)
(139.098 0 0)
(140.354 0 0)
(141.607 0 0)
(142.857 0 0)
(144.101 0 0)
(145.342 0 0)
(146.578 0 0)
(147.81 0 0)
(149.037 0 0)
(150.259 0 0)
(151.476 0 0)
(152.688 0 0)
(153.895 0 0)
(155.096 0 0)
(156.293 0 0)
(157.484 0 0)
(158.669 0 0)
(159.85 0 0)
(161.024 0 0)
(162.193 0 0)
(163.357 0 0)
(164.515 0 0)
(165.667 0 0)
(166.814 0 0)
(167.955 0 0)
(169.09 0 0)
(170.223 0 0)
(171.335 0 0)
(172.49 0 0)
(173.491 0 0)
(174.94 0 0)
(118.926 0 0)
(116.218 0 0)
(113.647 0 0)
(111.254 0 0)
(109.077 0 0)
(107.151 0 0)
(105.497 0 0)
(104.128 0 0)
(103.045 0 0)
(102.238 0 0)
(101.692 0 0)
(101.383 0 0)
(101.29 0 0)
(101.386 0 0)
(101.648 0 0)
(102.056 0 0)
(102.589 0 0)
(103.229 0 0)
(103.961 0 0)
(104.773 0 0)
(105.652 0 0)
(106.589 0 0)
(107.576 0 0)
(108.605 0 0)
(109.671 0 0)
(110.767 0 0)
(111.89 0 0)
(113.035 0 0)
(114.199 0 0)
(115.379 0 0)
(116.573 0 0)
(117.778 0 0)
(118.993 0 0)
(120.215 0 0)
(121.444 0 0)
(122.678 0 0)
(123.916 0 0)
(125.157 0 0)
(126.399 0 0)
(127.643 0 0)
(128.887 0 0)
(130.132 0 0)
(131.375 0 0)
(132.617 0 0)
(133.858 0 0)
(135.096 0 0)
(136.332 0 0)
(137.566 0 0)
(138.796 0 0)
(140.023 0 0)
(141.246 0 0)
(142.466 0 0)
(143.682 0 0)
(144.894 0 0)
(146.101 0 0)
(147.304 0 0)
(148.502 0 0)
(149.696 0 0)
(150.885 0 0)
(152.069 0 0)
(153.248 0 0)
(154.422 0 0)
(155.591 0 0)
(156.755 0 0)
(157.913 0 0)
(159.066 0 0)
(160.214 0 0)
(161.357 0 0)
(162.494 0 0)
(163.625 0 0)
(164.751 0 0)
(165.872 0 0)
(166.987 0 0)
(168.096 0 0)
(169.203 0 0)
(170.29 0 0)
(171.418 0 0)
(172.397 0 0)
(173.81 0 0)
(116.309 0 0)
(113.799 0 0)
(111.454 0 0)
(109.311 0 0)
(107.4 0 0)
(105.746 0 0)
(104.36 0 0)
(103.246 0 0)
(102.397 0 0)
(101.799 0 0)
(101.434 0 0)
(101.279 0 0)
(101.313 0 0)
(101.512 0 0)
(101.857 0 0)
(102.328 0 0)
(102.908 0 0)
(103.583 0 0)
(104.338 0 0)
(105.163 0 0)
(106.048 0 0)
(106.985 0 0)
(107.966 0 0)
(108.984 0 0)
(110.035 0 0)
(111.114 0 0)
(112.217 0 0)
(113.34 0 0)
(114.481 0 0)
(115.636 0 0)
(116.804 0 0)
(117.982 0 0)
(119.169 0 0)
(120.364 0 0)
(121.564 0 0)
(122.769 0 0)
(123.977 0 0)
(125.188 0 0)
(126.401 0 0)
(127.615 0 0)
(128.83 0 0)
(130.044 0 0)
(131.258 0 0)
(132.471 0 0)
(133.682 0 0)
(134.891 0 0)
(136.098 0 0)
(137.302 0 0)
(138.503 0 0)
(139.701 0 0)
(140.896 0 0)
(142.087 0 0)
(143.275 0 0)
(144.458 0 0)
(145.637 0 0)
(146.812 0 0)
(147.983 0 0)
(149.149 0 0)
(150.311 0 0)
(151.467 0 0)
(152.619 0 0)
(153.766 0 0)
(154.908 0 0)
(156.046 0 0)
(157.178 0 0)
(158.304 0 0)
(159.426 0 0)
(160.543 0 0)
(161.654 0 0)
(162.759 0 0)
(163.86 0 0)
(164.955 0 0)
(166.045 0 0)
(167.128 0 0)
(168.21 0 0)
(169.273 0 0)
(170.374 0 0)
(171.333 0 0)
(172.711 0 0)
(113.889 0 0)
(111.597 0 0)
(109.494 0 0)
(107.607 0 0)
(105.961 0 0)
(104.568 0 0)
(103.432 0 0)
(102.55 0 0)
(101.91 0 0)
(101.496 0 0)
(101.287 0 0)
(101.264 0 0)
(101.406 0 0)
(101.692 0 0)
(102.106 0 0)
(102.629 0 0)
(103.248 0 0)
(103.949 0 0)
(104.722 0 0)
(105.556 0 0)
(106.444 0 0)
(107.377 0 0)
(108.35 0 0)
(109.356 0 0)
(110.392 0 0)
(111.454 0 0)
(112.537 0 0)
(113.638 0 0)
(114.755 0 0)
(115.886 0 0)
(117.029 0 0)
(118.181 0 0)
(119.341 0 0)
(120.508 0 0)
(121.68 0 0)
(122.856 0 0)
(124.037 0 0)
(125.219 0 0)
(126.403 0 0)
(127.589 0 0)
(128.774 0 0)
(129.96 0 0)
(131.145 0 0)
(132.329 0 0)
(133.511 0 0)
(134.692 0 0)
(135.87 0 0)
(137.046 0 0)
(138.219 0 0)
(139.389 0 0)
(140.556 0 0)
(141.719 0 0)
(142.879 0 0)
(144.035 0 0)
(145.187 0 0)
(146.335 0 0)
(147.479 0 0)
(148.618 0 0)
(149.753 0 0)
(150.883 0 0)
(152.008 0 0)
(153.129 0 0)
(154.245 0 0)
(155.356 0 0)
(156.463 0 0)
(157.564 0 0)
(158.66 0 0)
(159.751 0 0)
(160.837 0 0)
(161.917 0 0)
(162.993 0 0)
(164.063 0 0)
(165.128 0 0)
(166.186 0 0)
(167.244 0 0)
(168.282 0 0)
(169.359 0 0)
(170.296 0 0)
(171.64 0 0)
(111.685 0 0)
(109.626 0 0)
(107.771 0 0)
(106.14 0 0)
(104.748 0 0)
(103.601 0 0)
(102.695 0 0)
(102.021 0 0)
(101.565 0 0)
(101.31 0 0)
(101.236 0 0)
(101.325 0 0)
(101.558 0 0)
(101.917 0 0)
(102.387 0 0)
(102.953 0 0)
(103.603 0 0)
(104.325 0 0)
(105.11 0 0)
(105.95 0 0)
(106.837 0 0)
(107.765 0 0)
(108.728 0 0)
(109.722 0 0)
(110.743 0 0)
(111.786 0 0)
(112.849 0 0)
(113.929 0 0)
(115.023 0 0)
(116.13 0 0)
(117.247 0 0)
(118.374 0 0)
(119.508 0 0)
(120.648 0 0)
(121.793 0 0)
(122.942 0 0)
(124.094 0 0)
(125.249 0 0)
(126.406 0 0)
(127.563 0 0)
(128.721 0 0)
(129.878 0 0)
(131.035 0 0)
(132.191 0 0)
(133.346 0 0)
(134.499 0 0)
(135.65 0 0)
(136.798 0 0)
(137.944 0 0)
(139.086 0 0)
(140.226 0 0)
(141.363 0 0)
(142.495 0 0)
(143.625 0 0)
(144.75 0 0)
(145.871 0 0)
(146.989 0 0)
(148.102 0 0)
(149.211 0 0)
(150.315 0 0)
(151.415 0 0)
(152.51 0 0)
(153.601 0 0)
(154.686 0 0)
(155.767 0 0)
(156.844 0 0)
(157.915 0 0)
(158.981 0 0)
(160.042 0 0)
(161.098 0 0)
(162.149 0 0)
(163.195 0 0)
(164.236 0 0)
(165.27 0 0)
(166.304 0 0)
(167.318 0 0)
(168.37 0 0)
(169.286 0 0)
(170.597 0 0)
(109.709 0 0)
(107.89 0 0)
(106.283 0 0)
(104.901 0 0)
(103.749 0 0)
(102.827 0 0)
(102.128 0 0)
(101.638 0 0)
(101.342 0 0)
(101.224 0 0)
(101.266 0 0)
(101.449 0 0)
(101.758 0 0)
(102.178 0 0)
(102.694 0 0)
(103.294 0 0)
(103.969 0 0)
(104.707 0 0)
(105.501 0 0)
(106.343 0 0)
(107.227 0 0)
(108.148 0 0)
(109.101 0 0)
(110.081 0 0)
(111.086 0 0)
(112.111 0 0)
(113.154 0 0)
(114.212 0 0)
(115.284 0 0)
(116.367 0 0)
(117.46 0 0)
(118.562 0 0)
(119.67 0 0)
(120.784 0 0)
(121.903 0 0)
(123.025 0 0)
(124.151 0 0)
(125.279 0 0)
(126.408 0 0)
(127.538 0 0)
(128.669 0 0)
(129.799 0 0)
(130.929 0 0)
(132.058 0 0)
(133.186 0 0)
(134.312 0 0)
(135.436 0 0)
(136.557 0 0)
(137.676 0 0)
(138.793 0 0)
(139.906 0 0)
(141.016 0 0)
(142.123 0 0)
(143.226 0 0)
(144.326 0 0)
(145.421 0 0)
(146.513 0 0)
(147.601 0 0)
(148.684 0 0)
(149.764 0 0)
(150.838 0 0)
(151.909 0 0)
(152.974 0 0)
(154.035 0 0)
(155.092 0 0)
(156.144 0 0)
(157.19 0 0)
(158.232 0 0)
(159.269 0 0)
(160.301 0 0)
(161.329 0 0)
(162.35 0 0)
(163.368 0 0)
(164.379 0 0)
(165.388 0 0)
(166.38 0 0)
(167.407 0 0)
(168.304 0 0)
(169.581 0 0)
(107.967 0 0)
(106.389 0 0)
(105.023 0 0)
(103.875 0 0)
(102.945 0 0)
(102.227 0 0)
(101.71 0 0)
(101.381 0 0)
(101.225 0 0)
(101.224 0 0)
(101.363 0 0)
(101.626 0 0)
(101.999 0 0)
(102.468 0 0)
(103.022 0 0)
(103.65 0 0)
(104.343 0 0)
(105.093 0 0)
(105.892 0 0)
(106.734 0 0)
(107.613 0 0)
(108.526 0 0)
(109.467 0 0)
(110.433 0 0)
(111.421 0 0)
(112.428 0 0)
(113.451 0 0)
(114.488 0 0)
(115.538 0 0)
(116.598 0 0)
(117.667 0 0)
(118.744 0 0)
(119.828 0 0)
(120.916 0 0)
(122.01 0 0)
(123.106 0 0)
(124.206 0 0)
(125.308 0 0)
(126.411 0 0)
(127.515 0 0)
(128.619 0 0)
(129.723 0 0)
(130.827 0 0)
(131.929 0 0)
(133.031 0 0)
(134.13 0 0)
(135.228 0 0)
(136.324 0 0)
(137.417 0 0)
(138.508 0 0)
(139.596 0 0)
(140.68 0 0)
(141.762 0 0)
(142.84 0 0)
(143.914 0 0)
(144.985 0 0)
(146.051 0 0)
(147.114 0 0)
(148.173 0 0)
(149.228 0 0)
(150.278 0 0)
(151.324 0 0)
(152.366 0 0)
(153.403 0 0)
(154.435 0 0)
(155.463 0 0)
(156.486 0 0)
(157.505 0 0)
(158.518 0 0)
(159.527 0 0)
(160.531 0 0)
(161.529 0 0)
(162.523 0 0)
(163.511 0 0)
(164.498 0 0)
(165.467 0 0)
(166.47 0 0)
(167.347 0 0)
(168.593 0 0)
(106.459 0 0)
(105.115 0 0)
(103.977 0 0)
(103.046 0 0)
(102.316 0 0)
(101.78 0 0)
(101.424 0 0)
(101.234 0 0)
(101.196 0 0)
(101.295 0 0)
(101.516 0 0)
(101.846 0 0)
(102.271 0 0)
(102.782 0 0)
(103.366 0 0)
(104.016 0 0)
(104.723 0 0)
(105.48 0 0)
(106.281 0 0)
(107.121 0 0)
(107.995 0 0)
(108.898 0 0)
(109.826 0 0)
(110.778 0 0)
(111.749 0 0)
(112.738 0 0)
(113.741 0 0)
(114.758 0 0)
(115.785 0 0)
(116.823 0 0)
(117.869 0 0)
(118.922 0 0)
(119.981 0 0)
(121.045 0 0)
(122.114 0 0)
(123.185 0 0)
(124.26 0 0)
(125.336 0 0)
(126.413 0 0)
(127.492 0 0)
(128.57 0 0)
(129.649 0 0)
(130.727 0 0)
(131.804 0 0)
(132.88 0 0)
(133.955 0 0)
(135.027 0 0)
(136.098 0 0)
(137.166 0 0)
(138.231 0 0)
(139.294 0 0)
(140.354 0 0)
(141.411 0 0)
(142.464 0 0)
(143.514 0 0)
(144.56 0 0)
(145.603 0 0)
(146.642 0 0)
(147.677 0 0)
(148.707 0 0)
(149.734 0 0)
(150.756 0 0)
(151.774 0 0)
(152.788 0 0)
(153.797 0 0)
(154.802 0 0)
(155.802 0 0)
(156.797 0 0)
(157.788 0 0)
(158.773 0 0)
(159.755 0 0)
(160.731 0 0)
(161.702 0 0)
(162.667 0 0)
(163.632 0 0)
(164.579 0 0)
(165.559 0 0)
(166.417 0 0)
(167.631 0 0)
(105.176 0 0)
(104.055 0 0)
(103.129 0 0)
(102.394 0 0)
(101.843 0 0)
(101.466 0 0)
(101.249 0 0)
(101.18 0 0)
(101.243 0 0)
(101.426 0 0)
(101.717 0 0)
(102.102 0 0)
(102.571 0 0)
(103.114 0 0)
(103.723 0 0)
(104.389 0 0)
(105.106 0 0)
(105.868 0 0)
(106.669 0 0)
(107.504 0 0)
(108.37 0 0)
(109.263 0 0)
(110.179 0 0)
(111.115 0 0)
(112.07 0 0)
(113.04 0 0)
(114.024 0 0)
(115.02 0 0)
(116.026 0 0)
(117.042 0 0)
(118.065 0 0)
(119.095 0 0)
(120.131 0 0)
(121.171 0 0)
(122.215 0 0)
(123.262 0 0)
(124.312 0 0)
(125.363 0 0)
(126.416 0 0)
(127.47 0 0)
(128.524 0 0)
(129.578 0 0)
(130.631 0 0)
(131.683 0 0)
(132.735 0 0)
(133.784 0 0)
(134.832 0 0)
(135.878 0 0)
(136.922 0 0)
(137.963 0 0)
(139.002 0 0)
(140.038 0 0)
(141.07 0 0)
(142.1 0 0)
(143.126 0 0)
(144.149 0 0)
(145.168 0 0)
(146.183 0 0)
(147.195 0 0)
(148.202 0 0)
(149.206 0 0)
(150.205 0 0)
(151.2 0 0)
(152.191 0 0)
(153.177 0 0)
(154.159 0 0)
(155.137 0 0)
(156.109 0 0)
(157.078 0 0)
(158.041 0 0)
(159 0 0)
(159.954 0 0)
(160.903 0 0)
(161.847 0 0)
(162.789 0 0)
(163.715 0 0)
(164.672 0 0)
(165.511 0 0)
(166.694 0 0)
(104.108 0 0)
(103.192 0 0)
(102.458 0 0)
(101.9 0 0)
(101.507 0 0)
(101.268 0 0)
(101.171 0 0)
(101.204 0 0)
(101.353 0 0)
(101.608 0 0)
(101.955 0 0)
(102.386 0 0)
(102.891 0 0)
(103.461 0 0)
(104.088 0 0)
(104.767 0 0)
(105.491 0 0)
(106.254 0 0)
(107.053 0 0)
(107.883 0 0)
(108.74 0 0)
(109.621 0 0)
(110.524 0 0)
(111.445 0 0)
(112.383 0 0)
(113.335 0 0)
(114.299 0 0)
(115.275 0 0)
(116.261 0 0)
(117.255 0 0)
(118.256 0 0)
(119.263 0 0)
(120.276 0 0)
(121.293 0 0)
(122.313 0 0)
(123.337 0 0)
(124.363 0 0)
(125.39 0 0)
(126.419 0 0)
(127.449 0 0)
(128.479 0 0)
(129.508 0 0)
(130.538 0 0)
(131.566 0 0)
(132.593 0 0)
(133.619 0 0)
(134.643 0 0)
(135.666 0 0)
(136.686 0 0)
(137.703 0 0)
(138.718 0 0)
(139.731 0 0)
(140.74 0 0)
(141.746 0 0)
(142.75 0 0)
(143.749 0 0)
(144.745 0 0)
(145.738 0 0)
(146.727 0 0)
(147.711 0 0)
(148.692 0 0)
(149.669 0 0)
(150.642 0 0)
(151.611 0 0)
(152.575 0 0)
(153.535 0 0)
(154.49 0 0)
(155.441 0 0)
(156.387 0 0)
(157.329 0 0)
(158.266 0 0)
(159.199 0 0)
(160.127 0 0)
(161.048 0 0)
(161.969 0 0)
(162.874 0 0)
(163.809 0 0)
(164.63 0 0)
(165.783 0 0)
(103.236 0 0)
(102.509 0 0)
(101.947 0 0)
(101.544 0 0)
(101.288 0 0)
(101.169 0 0)
(101.175 0 0)
(101.295 0 0)
(101.516 0 0)
(101.83 0 0)
(102.225 0 0)
(102.694 0 0)
(103.227 0 0)
(103.818 0 0)
(104.46 0 0)
(105.148 0 0)
(105.875 0 0)
(106.639 0 0)
(107.433 0 0)
(108.256 0 0)
(109.103 0 0)
(109.973 0 0)
(110.861 0 0)
(111.767 0 0)
(112.688 0 0)
(113.622 0 0)
(114.568 0 0)
(115.524 0 0)
(116.489 0 0)
(117.462 0 0)
(118.441 0 0)
(119.427 0 0)
(120.417 0 0)
(121.411 0 0)
(122.409 0 0)
(123.41 0 0)
(124.412 0 0)
(125.417 0 0)
(126.422 0 0)
(127.428 0 0)
(128.435 0 0)
(129.441 0 0)
(130.447 0 0)
(131.452 0 0)
(132.456 0 0)
(133.459 0 0)
(134.46 0 0)
(135.459 0 0)
(136.456 0 0)
(137.451 0 0)
(138.443 0 0)
(139.433 0 0)
(140.42 0 0)
(141.403 0 0)
(142.384 0 0)
(143.361 0 0)
(144.335 0 0)
(145.305 0 0)
(146.272 0 0)
(147.235 0 0)
(148.194 0 0)
(149.149 0 0)
(150.1 0 0)
(151.047 0 0)
(151.989 0 0)
(152.928 0 0)
(153.862 0 0)
(154.791 0 0)
(155.716 0 0)
(156.637 0 0)
(157.553 0 0)
(158.464 0 0)
(159.371 0 0)
(160.272 0 0)
(161.172 0 0)
(162.056 0 0)
(162.969 0 0)
(163.772 0 0)
(164.897 0 0)
(102.544 0 0)
(101.984 0 0)
(101.575 0 0)
(101.308 0 0)
(101.171 0 0)
(101.154 0 0)
(101.248 0 0)
(101.44 0 0)
(101.723 0 0)
(102.086 0 0)
(102.521 0 0)
(103.02 0 0)
(103.576 0 0)
(104.183 0 0)
(104.836 0 0)
(105.529 0 0)
(106.258 0 0)
(107.019 0 0)
(107.809 0 0)
(108.623 0 0)
(109.46 0 0)
(110.317 0 0)
(111.192 0 0)
(112.082 0 0)
(112.986 0 0)
(113.902 0 0)
(114.83 0 0)
(115.766 0 0)
(116.711 0 0)
(117.663 0 0)
(118.622 0 0)
(119.586 0 0)
(120.554 0 0)
(121.527 0 0)
(122.502 0 0)
(123.48 0 0)
(124.461 0 0)
(125.443 0 0)
(126.425 0 0)
(127.409 0 0)
(128.393 0 0)
(129.377 0 0)
(130.36 0 0)
(131.342 0 0)
(132.324 0 0)
(133.304 0 0)
(134.283 0 0)
(135.259 0 0)
(136.234 0 0)
(137.207 0 0)
(138.177 0 0)
(139.144 0 0)
(140.109 0 0)
(141.071 0 0)
(142.029 0 0)
(142.985 0 0)
(143.937 0 0)
(144.886 0 0)
(145.831 0 0)
(146.772 0 0)
(147.71 0 0)
(148.644 0 0)
(149.573 0 0)
(150.499 0 0)
(151.421 0 0)
(152.338 0 0)
(153.251 0 0)
(154.16 0 0)
(155.064 0 0)
(155.964 0 0)
(156.86 0 0)
(157.75 0 0)
(158.637 0 0)
(159.517 0 0)
(160.397 0 0)
(161.261 0 0)
(162.153 0 0)
(162.939 0 0)
(164.035 0 0)
(102.011 0 0)
(101.601 0 0)
(101.325 0 0)
(101.174 0 0)
(101.139 0 0)
(101.21 0 0)
(101.378 0 0)
(101.632 0 0)
(101.965 0 0)
(102.369 0 0)
(102.836 0 0)
(103.36 0 0)
(103.934 0 0)
(104.554 0 0)
(105.214 0 0)
(105.91 0 0)
(106.638 0 0)
(107.396 0 0)
(108.178 0 0)
(108.984 0 0)
(109.81 0 0)
(110.654 0 0)
(111.515 0 0)
(112.389 0 0)
(113.277 0 0)
(114.175 0 0)
(115.084 0 0)
(116.002 0 0)
(116.927 0 0)
(117.859 0 0)
(118.797 0 0)
(119.74 0 0)
(120.688 0 0)
(121.639 0 0)
(122.593 0 0)
(123.549 0 0)
(124.508 0 0)
(125.468 0 0)
(126.429 0 0)
(127.39 0 0)
(128.352 0 0)
(129.314 0 0)
(130.275 0 0)
(131.236 0 0)
(132.195 0 0)
(133.154 0 0)
(134.11 0 0)
(135.065 0 0)
(136.018 0 0)
(136.969 0 0)
(137.918 0 0)
(138.864 0 0)
(139.807 0 0)
(140.748 0 0)
(141.685 0 0)
(142.619 0 0)
(143.55 0 0)
(144.478 0 0)
(145.402 0 0)
(146.323 0 0)
(147.24 0 0)
(148.153 0 0)
(149.062 0 0)
(149.967 0 0)
(150.868 0 0)
(151.765 0 0)
(152.658 0 0)
(153.547 0 0)
(154.431 0 0)
(155.31 0 0)
(156.186 0 0)
(157.056 0 0)
(157.923 0 0)
(158.784 0 0)
(159.643 0 0)
(160.488 0 0)
(161.359 0 0)
(162.128 0 0)
(163.196 0 0)
(101.619 0 0)
(101.339 0 0)
(101.179 0 0)
(101.129 0 0)
(101.181 0 0)
(101.326 0 0)
(101.556 0 0)
(101.862 0 0)
(102.237 0 0)
(102.674 0 0)
(103.167 0 0)
(103.71 0 0)
(104.299 0 0)
(104.927 0 0)
(105.592 0 0)
(106.289 0 0)
(107.015 0 0)
(107.767 0 0)
(108.542 0 0)
(109.338 0 0)
(110.153 0 0)
(110.984 0 0)
(111.83 0 0)
(112.689 0 0)
(113.56 0 0)
(114.441 0 0)
(115.332 0 0)
(116.231 0 0)
(117.137 0 0)
(118.05 0 0)
(118.968 0 0)
(119.891 0 0)
(120.817 0 0)
(121.748 0 0)
(122.681 0 0)
(123.616 0 0)
(124.554 0 0)
(125.492 0 0)
(126.432 0 0)
(127.372 0 0)
(128.313 0 0)
(129.253 0 0)
(130.193 0 0)
(131.132 0 0)
(132.071 0 0)
(133.008 0 0)
(133.943 0 0)
(134.877 0 0)
(135.809 0 0)
(136.739 0 0)
(137.667 0 0)
(138.592 0 0)
(139.514 0 0)
(140.434 0 0)
(141.351 0 0)
(142.265 0 0)
(143.175 0 0)
(144.083 0 0)
(144.986 0 0)
(145.887 0 0)
(146.783 0 0)
(147.676 0 0)
(148.565 0 0)
(149.451 0 0)
(150.332 0 0)
(151.209 0 0)
(152.082 0 0)
(152.951 0 0)
(153.815 0 0)
(154.675 0 0)
(155.531 0 0)
(156.382 0 0)
(157.229 0 0)
(158.07 0 0)
(158.91 0 0)
(159.736 0 0)
(160.587 0 0)
(161.339 0 0)
(162.38 0 0)
(101.349 0 0)
(101.183 0 0)
(101.121 0 0)
(101.158 0 0)
(101.284 0 0)
(101.491 0 0)
(101.773 0 0)
(102.122 0 0)
(102.532 0 0)
(102.996 0 0)
(103.51 0 0)
(104.069 0 0)
(104.667 0 0)
(105.302 0 0)
(105.969 0 0)
(106.665 0 0)
(107.387 0 0)
(108.133 0 0)
(108.9 0 0)
(109.685 0 0)
(110.488 0 0)
(111.306 0 0)
(112.138 0 0)
(112.981 0 0)
(113.836 0 0)
(114.701 0 0)
(115.574 0 0)
(116.454 0 0)
(117.342 0 0)
(118.235 0 0)
(119.134 0 0)
(120.037 0 0)
(120.943 0 0)
(121.854 0 0)
(122.766 0 0)
(123.681 0 0)
(124.598 0 0)
(125.516 0 0)
(126.435 0 0)
(127.355 0 0)
(128.275 0 0)
(129.195 0 0)
(130.114 0 0)
(131.032 0 0)
(131.95 0 0)
(132.867 0 0)
(133.782 0 0)
(134.695 0 0)
(135.606 0 0)
(136.516 0 0)
(137.423 0 0)
(138.328 0 0)
(139.23 0 0)
(140.13 0 0)
(141.027 0 0)
(141.921 0 0)
(142.811 0 0)
(143.699 0 0)
(144.583 0 0)
(145.463 0 0)
(146.34 0 0)
(147.213 0 0)
(148.083 0 0)
(148.949 0 0)
(149.81 0 0)
(150.668 0 0)
(151.522 0 0)
(152.371 0 0)
(153.217 0 0)
(154.058 0 0)
(154.894 0 0)
(155.726 0 0)
(156.554 0 0)
(157.377 0 0)
(158.197 0 0)
(159.004 0 0)
(159.836 0 0)
(160.572 0 0)
(161.586 0 0)
(101.185 0 0)
(101.116 0 0)
(101.14 0 0)
(101.249 0 0)
(101.438 0 0)
(101.698 0 0)
(102.023 0 0)
(102.407 0 0)
(102.845 0 0)
(103.332 0 0)
(103.862 0 0)
(104.432 0 0)
(105.038 0 0)
(105.676 0 0)
(106.344 0 0)
(107.037 0 0)
(107.754 0 0)
(108.493 0 0)
(109.251 0 0)
(110.026 0 0)
(110.816 0 0)
(111.621 0 0)
(112.438 0 0)
(113.267 0 0)
(114.105 0 0)
(114.953 0 0)
(115.808 0 0)
(116.671 0 0)
(117.54 0 0)
(118.415 0 0)
(119.295 0 0)
(120.179 0 0)
(121.066 0 0)
(121.957 0 0)
(122.85 0 0)
(123.745 0 0)
(124.642 0 0)
(125.54 0 0)
(126.439 0 0)
(127.338 0 0)
(128.238 0 0)
(129.138 0 0)
(130.037 0 0)
(130.936 0 0)
(131.833 0 0)
(132.73 0 0)
(133.625 0 0)
(134.518 0 0)
(135.41 0 0)
(136.3 0 0)
(137.187 0 0)
(138.072 0 0)
(138.955 0 0)
(139.835 0 0)
(140.712 0 0)
(141.586 0 0)
(142.458 0 0)
(143.326 0 0)
(144.191 0 0)
(145.052 0 0)
(145.91 0 0)
(146.764 0 0)
(147.615 0 0)
(148.461 0 0)
(149.304 0 0)
(150.143 0 0)
(150.978 0 0)
(151.809 0 0)
(152.635 0 0)
(153.458 0 0)
(154.276 0 0)
(155.089 0 0)
(155.898 0 0)
(156.702 0 0)
(157.505 0 0)
(158.294 0 0)
(159.106 0 0)
(159.826 0 0)
(160.814 0 0)
(101.111 0 0)
(101.126 0 0)
(101.222 0 0)
(101.393 0 0)
(101.634 0 0)
(101.937 0 0)
(102.299 0 0)
(102.712 0 0)
(103.173 0 0)
(103.677 0 0)
(104.221 0 0)
(104.799 0 0)
(105.41 0 0)
(106.049 0 0)
(106.715 0 0)
(107.405 0 0)
(108.116 0 0)
(108.846 0 0)
(109.595 0 0)
(110.359 0 0)
(111.137 0 0)
(111.928 0 0)
(112.731 0 0)
(113.544 0 0)
(114.367 0 0)
(115.198 0 0)
(116.037 0 0)
(116.882 0 0)
(117.734 0 0)
(118.59 0 0)
(119.451 0 0)
(120.317 0 0)
(121.185 0 0)
(122.057 0 0)
(122.931 0 0)
(123.806 0 0)
(124.684 0 0)
(125.563 0 0)
(126.442 0 0)
(127.322 0 0)
(128.203 0 0)
(129.083 0 0)
(129.963 0 0)
(130.842 0 0)
(131.72 0 0)
(132.597 0 0)
(133.473 0 0)
(134.347 0 0)
(135.219 0 0)
(136.09 0 0)
(136.958 0 0)
(137.824 0 0)
(138.688 0 0)
(139.549 0 0)
(140.407 0 0)
(141.262 0 0)
(142.115 0 0)
(142.964 0 0)
(143.81 0 0)
(144.653 0 0)
(145.492 0 0)
(146.328 0 0)
(147.16 0 0)
(147.988 0 0)
(148.813 0 0)
(149.633 0 0)
(150.45 0 0)
(151.262 0 0)
(152.07 0 0)
(152.875 0 0)
(153.674 0 0)
(154.47 0 0)
(155.261 0 0)
(156.047 0 0)
(156.831 0 0)
(157.603 0 0)
(158.396 0 0)
(159.101 0 0)
(160.064 0 0)
(101.114 0 0)
(101.2 0 0)
(101.357 0 0)
(101.58 0 0)
(101.865 0 0)
(102.205 0 0)
(102.596 0 0)
(103.033 0 0)
(103.512 0 0)
(104.03 0 0)
(104.583 0 0)
(105.167 0 0)
(105.78 0 0)
(106.42 0 0)
(107.083 0 0)
(107.767 0 0)
(108.471 0 0)
(109.193 0 0)
(109.932 0 0)
(110.684 0 0)
(111.45 0 0)
(112.228 0 0)
(113.017 0 0)
(113.815 0 0)
(114.622 0 0)
(115.437 0 0)
(116.259 0 0)
(117.088 0 0)
(117.922 0 0)
(118.76 0 0)
(119.604 0 0)
(120.451 0 0)
(121.301 0 0)
(122.154 0 0)
(123.009 0 0)
(123.866 0 0)
(124.725 0 0)
(125.585 0 0)
(126.446 0 0)
(127.307 0 0)
(128.168 0 0)
(129.03 0 0)
(129.89 0 0)
(130.751 0 0)
(131.61 0 0)
(132.468 0 0)
(133.325 0 0)
(134.181 0 0)
(135.034 0 0)
(135.886 0 0)
(136.736 0 0)
(137.583 0 0)
(138.428 0 0)
(139.271 0 0)
(140.111 0 0)
(140.948 0 0)
(141.782 0 0)
(142.613 0 0)
(143.441 0 0)
(144.265 0 0)
(145.086 0 0)
(145.904 0 0)
(146.718 0 0)
(147.528 0 0)
(148.335 0 0)
(149.138 0 0)
(149.936 0 0)
(150.731 0 0)
(151.522 0 0)
(152.308 0 0)
(153.09 0 0)
(153.868 0 0)
(154.642 0 0)
(155.41 0 0)
(156.177 0 0)
(156.931 0 0)
(157.706 0 0)
(158.396 0 0)
(159.334 0 0)
(101.182 0 0)
(101.327 0 0)
(101.536 0 0)
(101.803 0 0)
(102.124 0 0)
(102.494 0 0)
(102.909 0 0)
(103.366 0 0)
(103.859 0 0)
(104.388 0 0)
(104.947 0 0)
(105.535 0 0)
(106.149 0 0)
(106.786 0 0)
(107.445 0 0)
(108.124 0 0)
(108.821 0 0)
(109.534 0 0)
(110.261 0 0)
(111.003 0 0)
(111.756 0 0)
(112.52 0 0)
(113.295 0 0)
(114.079 0 0)
(114.87 0 0)
(115.67 0 0)
(116.475 0 0)
(117.287 0 0)
(118.104 0 0)
(118.926 0 0)
(119.752 0 0)
(120.581 0 0)
(121.413 0 0)
(122.248 0 0)
(123.086 0 0)
(123.925 0 0)
(124.765 0 0)
(125.607 0 0)
(126.449 0 0)
(127.292 0 0)