/*--------------------------------*- C++ -*----------------------------------*\
| =========                 |                                                 |
| \\      /  F ield         | OpenFOAM: The Open Source CFD Toolbox           |
|  \\    /   O peration     | Version:  2312                                  |
|   \\  /    A nd           | Website:  www.openfoam.com                      |
|    \\/     M anipulation  |                                                 |
\*---------------------------------------------------------------------------*/
FoamFile
{
    version     2.0;
    format      ascii;
    arch        "LSB;label=32;scalar=64";
    class       volVectorField;
    location    "0.158";
    object      U;
}
// * * * * * * * * * * * * * * * * * * * * * * * * * * * * * * * * * * * * * //

dimensions      [0 1 -1 0 0 0 0];

internalField   nonuniform List<vector> 
31205
(
(285.592 0 0)
(284.504 0 0)
(283.371 0 0)
(282.192 0 0)
(280.965 0 0)
(279.69 0 0)
(278.364 0 0)
(276.987 0 0)
(275.556 0 0)
(274.07 0 0)
(272.526 0 0)
(270.923 0 0)
(269.257 0 0)
(267.527 0 0)
(265.729 0 0)
(263.859 0 0)
(261.915 0 0)
(259.892 0 0)
(257.785 0 0)
(255.589 0 0)
(253.298 0 0)
(250.906 0 0)
(248.405 0 0)
(245.785 0 0)
(243.037 0 0)
(240.148 0 0)
(237.103 0 0)
(233.886 0 0)
(230.474 0 0)
(226.841 0 0)
(222.953 0 0)
(218.764 0 0)
(214.213 0 0)
(209.221 0 0)
(203.682 0 0)
(197.379 0 0)
(189.761 0 0)
(179.82 0 0)
(166.713 0 0)
(151.164 0 0)
(135.811 0 0)
(123.361 0 0)
(114.785 0 0)
(109.512 0 0)
(106.512 0 0)
(104.93 0 0)
(104.212 0 0)
(104.027 0 0)
(104.183 0 0)
(104.566 0 0)
(105.109 0 0)
(105.766 0 0)
(106.509 0 0)
(107.317 0 0)
(108.178 0 0)
(109.079 0 0)
(110.014 0 0)
(110.977 0 0)
(111.961 0 0)
(112.965 0 0)
(113.985 0 0)
(115.017 0 0)
(116.061 0 0)
(117.114 0 0)
(118.175 0 0)
(119.242 0 0)
(120.315 0 0)
(121.393 0 0)
(122.474 0 0)
(123.558 0 0)
(124.645 0 0)
(125.734 0 0)
(126.824 0 0)
(127.914 0 0)
(129.01 0 0)
(130.089 0 0)
(131.22 0 0)
(132.192 0 0)
(133.654 0 0)
(284.434 0 0)
(283.334 0 0)
(282.189 0 0)
(281.001 0 0)
(279.766 0 0)
(278.485 0 0)
(277.154 0 0)
(275.774 0 0)
(274.342 0 0)
(272.856 0 0)
(271.314 0 0)
(269.714 0 0)
(268.054 0 0)
(266.331 0 0)
(264.542 0 0)
(262.684 0 0)
(260.753 0 0)
(258.745 0 0)
(256.655 0 0)
(254.479 0 0)
(252.211 0 0)
(249.844 0 0)
(247.371 0 0)
(244.782 0 0)
(242.069 0 0)
(239.218 0 0)
(236.217 0 0)
(233.047 0 0)
(229.688 0 0)
(226.115 0 0)
(222.295 0 0)
(218.184 0 0)
(213.723 0 0)
(208.836 0 0)
(203.423 0 0)
(197.285 0 0)
(189.925 0 0)
(180.395 0 0)
(167.807 0 0)
(152.65 0 0)
(137.34 0 0)
(124.619 0 0)
(115.665 0 0)
(110.06 0 0)
(106.814 0 0)
(105.059 0 0)
(104.215 0 0)
(103.934 0 0)
(104.013 0 0)
(104.331 0 0)
(104.814 0 0)
(105.417 0 0)
(106.11 0 0)
(106.871 0 0)
(107.685 0 0)
(108.543 0 0)
(109.435 0 0)
(110.355 0 0)
(111.299 0 0)
(112.263 0 0)
(113.243 0 0)
(114.237 0 0)
(115.242 0 0)
(116.257 0 0)
(117.281 0 0)
(118.312 0 0)
(119.348 0 0)
(120.39 0 0)
(121.436 0 0)
(122.485 0 0)
(123.537 0 0)
(124.591 0 0)
(125.647 0 0)
(126.703 0 0)
(127.765 0 0)
(128.811 0 0)
(129.908 0 0)
(130.851 0 0)
(132.266 0 0)
(283.203 0 0)
(282.09 0 0)
(280.935 0 0)
(279.737 0 0)
(278.494 0 0)
(277.206 0 0)
(275.87 0 0)
(274.486 0 0)
(273.052 0 0)
(271.565 0 0)
(270.025 0 0)
(268.427 0 0)
(266.772 0 0)
(265.054 0 0)
(263.273 0 0)
(261.424 0 0)
(259.504 0 0)
(257.509 0 0)
(255.434 0 0)
(253.275 0 0)
(251.027 0 0)
(248.681 0 0)
(246.232 0 0)
(243.671 0 0)
(240.987 0 0)
(238.17 0 0)
(235.205 0 0)
(232.077 0 0)
(228.764 0 0)
(225.242 0 0)
(221.479 0 0)
(217.432 0 0)
(213.046 0 0)
(208.247 0 0)
(202.936 0 0)
(196.927 0 0)
(189.757 0 0)
(180.532 0 0)
(168.357 0 0)
(153.572 0 0)
(138.402 0 0)
(125.564 0 0)
(116.369 0 0)
(110.523 0 0)
(107.085 0 0)
(105.186 0 0)
(104.234 0 0)
(103.869 0 0)
(103.877 0 0)
(104.133 0 0)
(104.561 0 0)
(105.113 0 0)
(105.757 0 0)
(106.472 0 0)
(107.242 0 0)
(108.057 0 0)
(108.907 0 0)
(109.787 0 0)
(110.691 0 0)
(111.615 0 0)
(112.556 0 0)
(113.512 0 0)
(114.48 0 0)
(115.459 0 0)
(116.446 0 0)
(117.441 0 0)
(118.442 0 0)
(119.448 0 0)
(120.459 0 0)
(121.474 0 0)
(122.492 0 0)
(123.512 0 0)
(124.534 0 0)
(125.557 0 0)
(126.586 0 0)
(127.6 0 0)
(128.662 0 0)
(129.578 0 0)
(130.944 0 0)
(281.933 0 0)
(280.808 0 0)
(279.643 0 0)
(278.437 0 0)
(277.187 0 0)
(275.893 0 0)
(274.553 0 0)
(273.165 0 0)
(271.729 0 0)
(270.242 0 0)
(268.702 0 0)
(267.108 0 0)
(265.456 0 0)
(263.744 0 0)
(261.97 0 0)
(260.129 0 0)
(258.22 0 0)
(256.237 0 0)
(254.176 0 0)
(252.034 0 0)
(249.803 0 0)
(247.477 0 0)
(245.051 0 0)
(242.514 0 0)
(239.858 0 0)
(237.072 0 0)
(234.141 0 0)
(231.05 0 0)
(227.778 0 0)
(224.302 0 0)
(220.59 0 0)
(216.602 0 0)
(212.282 0 0)
(207.559 0 0)
(202.336 0 0)
(196.435 0 0)
(189.419 0 0)
(180.437 0 0)
(168.603 0 0)
(154.158 0 0)
(139.17 0 0)
(126.302 0 0)
(116.95 0 0)
(110.923 0 0)
(107.329 0 0)
(105.31 0 0)
(104.263 0 0)
(103.821 0 0)
(103.764 0 0)
(103.963 0 0)
(104.339 0 0)
(104.842 0 0)
(105.44 0 0)
(106.11 0 0)
(106.838 0 0)
(107.611 0 0)
(108.421 0 0)
(109.261 0 0)
(110.126 0 0)
(111.012 0 0)
(111.916 0 0)
(112.835 0 0)
(113.767 0 0)
(114.709 0 0)
(115.661 0 0)
(116.621 0 0)
(117.587 0 0)
(118.559 0 0)
(119.536 0 0)
(120.517 0 0)
(121.501 0 0)
(122.488 0 0)
(123.478 0 0)
(124.468 0 0)
(125.464 0 0)
(126.446 0 0)
(127.475 0 0)
(128.364 0 0)
(129.685 0 0)
(280.641 0 0)
(279.507 0 0)
(278.333 0 0)
(277.119 0 0)
(275.863 0 0)
(274.564 0 0)
(273.221 0 0)
(271.831 0 0)
(270.394 0 0)
(268.908 0 0)
(267.37 0 0)
(265.778 0 0)
(264.131 0 0)
(262.425 0 0)
(260.658 0 0)
(258.827 0 0)
(256.928 0 0)
(254.957 0 0)
(252.911 0 0)
(250.784 0 0)
(248.571 0 0)
(246.265 0 0)
(243.861 0 0)
(241.349 0 0)
(238.72 0 0)
(235.963 0 0)
(233.064 0 0)
(230.009 0 0)
(226.777 0 0)
(223.345 0 0)
(219.683 0 0)
(215.75 0 0)
(211.492 0 0)
(206.841 0 0)
(201.701 0 0)
(195.9 0 0)
(189.022 0 0)
(180.256 0 0)
(168.731 0 0)
(154.611 0 0)
(139.82 0 0)
(126.958 0 0)
(117.485 0 0)
(111.303 0 0)
(107.57 0 0)
(105.438 0 0)
(104.302 0 0)
(103.787 0 0)
(103.668 0 0)
(103.812 0 0)
(104.137 0 0)
(104.593 0 0)
(105.146 0 0)
(105.774 0 0)
(106.46 0 0)
(107.193 0 0)
(107.963 0 0)
(108.765 0 0)
(109.592 0 0)
(110.441 0 0)
(111.309 0 0)
(112.192 0 0)
(113.088 0 0)
(113.995 0 0)
(114.912 0 0)
(115.837 0 0)
(116.769 0 0)
(117.708 0 0)
(118.651 0 0)
(119.599 0 0)
(120.551 0 0)
(121.505 0 0)
(122.463 0 0)
(123.421 0 0)
(124.385 0 0)
(125.337 0 0)
(126.333 0 0)
(127.195 0 0)
(128.473 0 0)
(279.335 0 0)
(278.193 0 0)
(277.012 0 0)
(275.792 0 0)
(274.532 0 0)
(273.229 0 0)
(271.884 0 0)
(270.493 0 0)
(269.056 0 0)
(267.571 0 0)
(266.036 0 0)
(264.448 0 0)
(262.806 0 0)
(261.107 0 0)
(259.349 0 0)
(257.527 0 0)
(255.639 0 0)
(253.682 0 0)
(251.65 0 0)
(249.539 0 0)
(247.344 0 0)
(245.059 0 0)
(242.676 0 0)
(240.189 0 0)
(237.586 0 0)
(234.859 0 0)
(231.993 0 0)
(228.973 0 0)
(225.781 0 0)
(222.392 0 0)
(218.778 0 0)
(214.899 0 0)
(210.703 0 0)
(206.122 0 0)
(201.063 0 0)
(195.359 0 0)
(188.613 0 0)
(180.052 0 0)
(168.823 0 0)
(155.021 0 0)
(140.434 0 0)
(127.596 0 0)
(118.016 0 0)
(111.687 0 0)
(107.819 0 0)
(105.577 0 0)
(104.354 0 0)
(103.767 0 0)
(103.587 0 0)
(103.676 0 0)
(103.952 0 0)
(104.362 0 0)
(104.872 0 0)
(105.458 0 0)
(106.103 0 0)
(106.796 0 0)
(107.528 0 0)
(108.292 0 0)
(109.083 0 0)
(109.896 0 0)
(110.727 0 0)
(111.575 0 0)
(112.436 0 0)
(113.309 0 0)
(114.192 0 0)
(115.084 0 0)
(115.983 0 0)
(116.888 0 0)
(117.799 0 0)
(118.715 0 0)
(119.634 0 0)
(120.557 0 0)
(121.483 0 0)
(122.41 0 0)
(123.343 0 0)
(124.264 0 0)
(125.228 0 0)
(126.064 0 0)
(127.301 0 0)
(278.019 0 0)
(276.87 0 0)
(275.684 0 0)
(274.46 0 0)
(273.196 0 0)
(271.891 0 0)
(270.544 0 0)
(269.154 0 0)
(267.718 0 0)
(266.236 0 0)
(264.704 0 0)
(263.122 0 0)
(261.486 0 0)
(259.795 0 0)
(258.045 0 0)
(256.234 0 0)
(254.358 0 0)
(252.414 0 0)
(250.397 0 0)
(248.303 0 0)
(246.127 0 0)
(243.862 0 0)
(241.502 0 0)
(239.039 0 0)
(236.464 0 0)
(233.766 0 0)
(230.933 0 0)
(227.949 0 0)
(224.795 0 0)
(221.45 0 0)
(217.884 0 0)
(214.059 0 0)
(209.923 0 0)
(205.411 0 0)
(200.432 0 0)
(194.824 0 0)
(188.208 0 0)
(179.847 0 0)
(168.908 0 0)
(155.422 0 0)
(141.046 0 0)
(128.24 0 0)
(118.562 0 0)
(112.088 0 0)
(108.085 0 0)
(105.732 0 0)
(104.421 0 0)
(103.762 0 0)
(103.521 0 0)
(103.557 0 0)
(103.784 0 0)
(104.149 0 0)
(104.615 0 0)
(105.16 0 0)
(105.765 0 0)
(106.42 0 0)
(107.114 0 0)
(107.841 0 0)
(108.596 0 0)
(109.373 0 0)
(110.17 0 0)
(110.983 0 0)
(111.81 0 0)
(112.649 0 0)
(113.499 0 0)
(114.358 0 0)
(115.224 0 0)
(116.097 0 0)
(116.976 0 0)
(117.86 0 0)
(118.748 0 0)
(119.64 0 0)
(120.535 0 0)
(121.432 0 0)
(122.334 0 0)
(123.226 0 0)
(124.159 0 0)
(124.968 0 0)
(126.165 0 0)
(276.694 0 0)
(275.54 0 0)
(274.35 0 0)
(273.123 0 0)
(271.857 0 0)
(270.552 0 0)
(269.205 0 0)
(267.816 0 0)
(266.383 0 0)
(264.904 0 0)
(263.377 0 0)
(261.8 0 0)
(260.172 0 0)
(258.489 0 0)
(256.749 0 0)
(254.949 0 0)
(253.086 0 0)
(251.156 0 0)
(249.155 0 0)
(247.078 0 0)
(244.921 0 0)
(242.677 0 0)
(240.34 0 0)
(237.902 0 0)
(235.354 0 0)
(232.686 0 0)
(229.885 0 0)
(226.937 0 0)
(223.823 0 0)
(220.521 0 0)
(217.002 0 0)
(213.23 0 0)
(209.155 0 0)
(204.712 0 0)
(199.812 0 0)
(194.299 0 0)
(187.811 0 0)
(179.646 0 0)
(168.992 0 0)
(155.822 0 0)
(141.664 0 0)
(128.9 0 0)
(119.127 0 0)
(112.51 0 0)
(108.37 0 0)
(105.905 0 0)
(104.504 0 0)
(103.773 0 0)
(103.471 0 0)
(103.453 0 0)
(103.632 0 0)
(103.951 0 0)
(104.375 0 0)
(104.879 0 0)
(105.446 0 0)
(106.063 0 0)
(106.72 0 0)
(107.411 0 0)
(108.13 0 0)
(108.872 0 0)
(109.634 0 0)
(110.414 0 0)
(111.208 0 0)
(112.014 0 0)
(112.831 0 0)
(113.658 0 0)
(114.493 0 0)
(115.334 0 0)
(116.182 0 0)
(117.035 0 0)
(117.892 0 0)
(118.754 0 0)
(119.619 0 0)
(120.485 0 0)
(121.358 0 0)
(122.22 0 0)
(123.123 0 0)
(123.906 0 0)
(125.064 0 0)
(275.364 0 0)
(274.206 0 0)
(273.013 0 0)
(271.784 0 0)
(270.517 0 0)
(269.212 0 0)
(267.867 0 0)
(266.48 0 0)
(265.05 0 0)
(263.575 0 0)
(262.054 0 0)
(260.485 0 0)
(258.864 0 0)
(257.19 0 0)
(255.461 0 0)
(253.673 0 0)
(251.823 0 0)
(249.907 0 0)
(247.922 0 0)
(245.864 0 0)
(243.726 0 0)
(241.503 0 0)
(239.189 0 0)
(236.776 0 0)
(234.256 0 0)
(231.618 0 0)
(228.85 0 0)
(225.937 0 0)
(222.863 0 0)
(219.604 0 0)
(216.133 0 0)
(212.414 0 0)
(208.399 0 0)
(204.024 0 0)
(199.203 0 0)
(193.784 0 0)
(187.423 0 0)
(179.451 0 0)
(169.078 0 0)
(156.223 0 0)
(142.289 0 0)
(129.575 0 0)
(119.714 0 0)
(112.954 0 0)
(108.675 0 0)
(106.096 0 0)
(104.605 0 0)
(103.8 0 0)
(103.436 0 0)
(103.365 0 0)
(103.496 0 0)
(103.771 0 0)
(104.153 0 0)
(104.617 0 0)
(105.145 0 0)
(105.724 0 0)
(106.345 0 0)
(107.001 0 0)
(107.685 0 0)
(108.393 0 0)
(109.122 0 0)
(109.868 0 0)
(110.629 0 0)
(111.403 0 0)
(112.189 0 0)
(112.984 0 0)
(113.787 0 0)
(114.598 0 0)
(115.415 0 0)
(116.238 0 0)
(117.066 0 0)
(117.897 0 0)
(118.732 0 0)
(119.569 0 0)
(120.413 0 0)
(121.247 0 0)
(122.12 0 0)
(122.878 0 0)
(123.997 0 0)
(274.027 0 0)
(272.867 0 0)
(271.673 0 0)
(270.443 0 0)
(269.177 0 0)
(267.873 0 0)
(266.53 0 0)
(265.146 0 0)
(263.721 0 0)
(262.252 0 0)
(260.737 0 0)
(259.175 0 0)
(257.563 0 0)
(255.899 0 0)
(254.181 0 0)
(252.406 0 0)
(250.569 0 0)
(248.669 0 0)
(246.701 0 0)
(244.66 0 0)
(242.542 0 0)
(240.341 0 0)
(238.051 0 0)
(235.663 0 0)
(233.171 0 0)
(230.563 0 0)
(227.828 0 0)
(224.951 0 0)
(221.915 0 0)
(218.7 0 0)
(215.276 0 0)
(211.611 0 0)
(207.655 0 0)
(203.348 0 0)
(198.605 0 0)
(193.279 0 0)
(187.043 0 0)
(179.261 0 0)
(169.165 0 0)
(156.624 0 0)
(142.92 0 0)
(130.266 0 0)
(120.322 0 0)
(113.421 0 0)
(109.002 0 0)
(106.306 0 0)
(104.722 0 0)
(103.843 0 0)
(103.418 0 0)
(103.293 0 0)
(103.375 0 0)
(103.606 0 0)
(103.947 0 0)
(104.371 0 0)
(104.862 0 0)
(105.404 0 0)
(105.99 0 0)
(106.61 0 0)
(107.26 0 0)
(107.935 0 0)
(108.631 0 0)
(109.345 0 0)
(110.074 0 0)
(110.817 0 0)
(111.571 0 0)
(112.335 0 0)
(113.108 0 0)
(113.889 0 0)
(114.676 0 0)
(115.469 0 0)
(116.267 0 0)
(117.069 0 0)
(117.876 0 0)
(118.684 0 0)
(119.499 0 0)
(120.305 0 0)
(121.149 0 0)
(121.883 0 0)
(122.964 0 0)
(272.688 0 0)
(271.526 0 0)
(270.331 0 0)
(269.102 0 0)
(267.837 0 0)
(266.535 0 0)
(265.195 0 0)
(263.816 0 0)
(262.396 0 0)
(260.933 0 0)
(259.426 0 0)
(257.872 0 0)
(256.27 0 0)
(254.617 0 0)
(252.91 0 0)
(251.147 0 0)
(249.326 0 0)
(247.441 0 0)
(245.49 0 0)
(243.468 0 0)
(241.37 0 0)
(239.191 0 0)
(236.924 0 0)
(234.563 0 0)
(232.098 0 0)
(229.52 0 0)
(226.818 0 0)
(223.977 0 0)
(220.981 0 0)
(217.808 0 0)
(214.432 0 0)
(210.819 0 0)
(206.922 0 0)
(202.682 0 0)
(198.017 0 0)
(192.783 0 0)
(186.671 0 0)
(179.075 0 0)
(169.251 0 0)
(157.023 0 0)
(143.555 0 0)
(130.972 0 0)
(120.952 0 0)
(113.91 0 0)
(109.349 0 0)
(106.535 0 0)
(104.857 0 0)
(103.903 0 0)
(103.415 0 0)
(103.236 0 0)
(103.271 0 0)
(103.458 0 0)
(103.757 0 0)
(104.143 0 0)
(104.596 0 0)
(105.102 0 0)
(105.653 0 0)
(106.239 0 0)
(106.856 0 0)
(107.498 0 0)
(108.161 0 0)
(108.843 0 0)
(109.541 0 0)
(110.253 0 0)
(110.977 0 0)
(111.711 0 0)
(112.454 0 0)
(113.205 0 0)
(113.963 0 0)
(114.727 0 0)
(115.496 0 0)
(116.27 0 0)
(117.048 0 0)
(117.829 0 0)
(118.616 0 0)
(119.394 0 0)
(120.209 0 0)
(120.919 0 0)
(121.963 0 0)
(271.345 0 0)
(270.183 0 0)
(268.989 0 0)
(267.761 0 0)
(266.499 0 0)
(265.2 0 0)
(263.865 0 0)
(262.49 0 0)
(261.076 0 0)
(259.62 0 0)
(258.121 0 0)
(256.576 0 0)
(254.984 0 0)
(253.342 0 0)
(251.648 0 0)
(249.899 0 0)
(248.092 0 0)
(246.223 0 0)
(244.29 0 0)
(242.287 0 0)
(240.209 0 0)
(238.052 0 0)
(235.81 0 0)
(233.474 0 0)
(231.038 0 0)
(228.49 0 0)
(225.821 0 0)
(223.016 0 0)
(220.058 0 0)
(216.928 0 0)
(213.599 0 0)
(210.038 0 0)
(206.201 0 0)
(202.028 0 0)
(197.439 0 0)
(192.297 0 0)
(186.306 0 0)
(178.893 0 0)
(169.336 0 0)
(157.42 0 0)
(144.194 0 0)
(131.691 0 0)
(121.601 0 0)
(114.421 0 0)
(109.718 0 0)
(106.783 0 0)
(105.009 0 0)
(103.979 0 0)
(103.428 0 0)
(103.195 0 0)
(103.182 0 0)
(103.325 0 0)
(103.584 0 0)
(103.932 0 0)
(104.348 0 0)
(104.819 0 0)
(105.335 0 0)
(105.887 0 0)
(106.471 0 0)
(107.081 0 0)
(107.713 0 0)
(108.364 0 0)
(109.031 0 0)
(109.713 0 0)
(110.407 0 0)
(111.111 0 0)
(111.825 0 0)
(112.547 0 0)
(113.276 0 0)
(114.012 0 0)
(114.753 0 0)
(115.499 0 0)
(116.249 0 0)
(117.002 0 0)
(117.762 0 0)
(118.514 0 0)
(119.301 0 0)
(119.987 0 0)
(120.995 0 0)
(270.001 0 0)
(268.84 0 0)
(267.648 0 0)
(266.422 0 0)
(265.163 0 0)
(263.869 0 0)
(262.538 0 0)
(261.17 0 0)
(259.762 0 0)
(258.314 0 0)
(256.823 0 0)
(255.288 0 0)
(253.707 0 0)
(252.077 0 0)
(250.395 0 0)
(248.66 0 0)
(246.868 0 0)
(245.016 0 0)
(243.101 0 0)
(241.117 0 0)
(239.06 0 0)
(236.926 0 0)
(234.708 0 0)
(232.398 0 0)
(229.99 0 0)
(227.473 0 0)
(224.836 0 0)
(222.067 0 0)
(219.148 0 0)
(216.061 0 0)
(212.779 0 0)
(209.27 0 0)
(205.49 0 0)
(201.384 0 0)
(196.871 0 0)
(191.819 0 0)
(185.948 0 0)
(178.715 0 0)
(169.42 0 0)
(157.814 0 0)
(144.836 0 0)
(132.422 0 0)
(122.272 0 0)
(114.956 0 0)
(110.109 0 0)
(107.051 0 0)
(105.179 0 0)
(104.071 0 0)
(103.456 0 0)
(103.17 0 0)
(103.109 0 0)
(103.209 0 0)
(103.427 0 0)
(103.737 0 0)
(104.116 0 0)
(104.552 0 0)
(105.035 0 0)
(105.554 0 0)
(106.106 0 0)
(106.684 0 0)
(107.285 0 0)
(107.906 0 0)
(108.543 0 0)
(109.195 0 0)
(109.859 0 0)
(110.535 0 0)
(111.22 0 0)
(111.914 0 0)
(112.615 0 0)
(113.323 0 0)
(114.037 0 0)
(114.755 0 0)
(115.478 0 0)
(116.204 0 0)
(116.937 0 0)
(117.663 0 0)
(118.422 0 0)
(119.085 0 0)
(120.058 0 0)
(268.658 0 0)
(267.498 0 0)
(266.308 0 0)
(265.086 0 0)
(263.831 0 0)
(262.541 0 0)
(261.216 0 0)
(259.855 0 0)
(258.454 0 0)
(257.015 0 0)
(255.533 0 0)
(254.008 0 0)
(252.438 0 0)
(250.82 0 0)
(249.152 0 0)
(247.432 0 0)
(245.656 0 0)
(243.821 0 0)
(241.923 0 0)
(239.959 0 0)
(237.923 0 0)
(235.812 0 0)
(233.618 0 0)
(231.334 0 0)
(228.954 0 0)
(226.468 0 0)
(223.864 0 0)
(221.13 0 0)
(218.251 0 0)
(215.205 0 0)
(211.97 0 0)
(208.512 0 0)
(204.791 0 0)
(200.75 0 0)
(196.312 0 0)
(191.351 0 0)
(185.598 0 0)
(178.541 0 0)
(169.503 0 0)
(158.205 0 0)
(145.48 0 0)
(133.166 0 0)
(122.963 0 0)
(115.513 0 0)
(110.522 0 0)
(107.339 0 0)
(105.367 0 0)
(104.18 0 0)
(103.501 0 0)
(103.16 0 0)
(103.051 0 0)
(103.108 0 0)
(103.286 0 0)
(103.558 0 0)
(103.902 0 0)
(104.304 0 0)
(104.752 0 0)
(105.24 0 0)
(105.76 0 0)
(106.307 0 0)
(106.877 0 0)
(107.468 0 0)
(108.076 0 0)
(108.699 0 0)
(109.334 0 0)
(109.982 0 0)
(110.639 0 0)
(111.305 0 0)
(111.979 0 0)
(112.659 0 0)
(113.346 0 0)
(114.038 0 0)
(114.735 0 0)
(115.434 0 0)
(116.141 0 0)
(116.841 0 0)
(117.574 0 0)
(118.214 0 0)
(119.152 0 0)
(267.315 0 0)
(266.158 0 0)
(264.971 0 0)
(263.753 0 0)
(262.503 0 0)
(261.219 0 0)
(259.9 0 0)
(258.546 0 0)
(257.154 0 0)
(255.723 0 0)
(254.251 0 0)
(252.737 0 0)
(251.179 0 0)
(249.574 0 0)
(247.92 0 0)
(246.214 0 0)
(244.454 0 0)
(242.636 0 0)
(240.757 0 0)
(238.813 0 0)
(236.798 0 0)
(234.71 0 0)
(232.54 0 0)
(230.283 0 0)
(227.931 0 0)
(225.475 0 0)
(222.905 0 0)
(220.206 0 0)
(217.365 0 0)
(214.362 0 0)
(211.173 0 0)
(207.767 0 0)
(204.103 0 0)
(200.127 0 0)
(195.764 0 0)
(190.891 0 0)
(185.255 0 0)
(178.37 0 0)
(169.585 0 0)
(158.592 0 0)
(146.125 0 0)
(133.922 0 0)
(123.674 0 0)
(116.094 0 0)
(110.957 0 0)
(107.647 0 0)
(105.574 0 0)
(104.305 0 0)
(103.561 0 0)
(103.165 0 0)
(103.008 0 0)
(103.022 0 0)
(103.161 0 0)
(103.395 0 0)
(103.704 0 0)
(104.072 0 0)
(104.487 0 0)
(104.943 0 0)
(105.432 0 0)
(105.949 0 0)
(106.49 0 0)
(107.051 0 0)
(107.63 0 0)
(108.224 0 0)
(108.832 0 0)
(109.451 0 0)
(110.081 0 0)
(110.72 0 0)
(111.367 0 0)
(112.021 0 0)
(112.681 0 0)
(113.347 0 0)
(114.018 0 0)
(114.692 0 0)
(115.372 0 0)
(116.047 0 0)
(116.754 0 0)
(117.372 0 0)
(118.277 0 0)
(265.973 0 0)
(264.82 0 0)
(263.637 0 0)
(262.424 0 0)
(261.179 0 0)
(259.902 0 0)
(258.59 0 0)
(257.244 0 0)
(255.861 0 0)
(254.439 0 0)
(252.978 0 0)
(251.475 0 0)
(249.929 0 0)
(248.337 0 0)
(246.697 0 0)
(245.007 0 0)
(243.263 0 0)
(241.463 0 0)
(239.602 0 0)
(237.678 0 0)
(235.686 0 0)
(233.62 0 0)
(231.475 0 0)
(229.244 0 0)
(226.921 0 0)
(224.495 0 0)
(221.957 0 0)
(219.295 0 0)
(216.492 0 0)
(213.531 0 0)
(210.388 0 0)
(207.033 0 0)
(203.425 0 0)
(199.514 0 0)
(195.225 0 0)
(190.44 0 0)
(184.919 0 0)
(178.202 0 0)
(169.664 0 0)
(158.975 0 0)
(146.771 0 0)
(134.688 0 0)
(124.404 0 0)
(116.699 0 0)
(111.416 0 0)
(107.976 0 0)
(105.799 0 0)
(104.448 0 0)
(103.637 0 0)
(103.186 0 0)
(102.981 0 0)
(102.951 0 0)
(103.051 0 0)
(103.248 0 0)
(103.522 0 0)
(103.856 0 0)
(104.24 0 0)
(104.664 0 0)
(105.122 0 0)
(105.609 0 0)
(106.121 0 0)
(106.653 0 0)
(107.204 0 0)
(107.771 0 0)
(108.351 0 0)
(108.943 0 0)
(109.546 0 0)
(110.159 0 0)
(110.779 0 0)
(111.407 0 0)
(112.041 0 0)
(112.681 0 0)
(113.327 0 0)
(113.976 0 0)
(114.631 0 0)
(115.282 0 0)
(115.963 0 0)
(116.559 0 0)
(117.431 0 0)
(264.635 0 0)
(263.486 0 0)
(262.308 0 0)
(261.1 0 0)
(259.862 0 0)
(258.591 0 0)
(257.288 0 0)
(255.949 0 0)
(254.575 0 0)
(253.164 0 0)
(251.714 0 0)
(250.223 0 0)
(248.689 0 0)
(247.111 0 0)
(245.485 0 0)
(243.811 0 0)
(242.084 0 0)
(240.301 0 0)
(238.46 0 0)
(236.556 0 0)
(234.585 0 0)
(232.542 0 0)
(230.422 0 0)
(228.218 0 0)
(225.923 0 0)
(223.528 0 0)
(221.023 0 0)
(218.395 0 0)
(215.631 0 0)
(212.712 0 0)
(209.614 0 0)
(206.31 0 0)
(202.759 0 0)
(198.911 0 0)
(194.696 0 0)
(189.998 0 0)
(184.59 0 0)
(178.038 0 0)
(169.742 0 0)
(159.353 0 0)
(147.415 0 0)
(135.464 0 0)
(125.155 0 0)
(117.328 0 0)
(111.898 0 0)
(108.327 0 0)
(106.043 0 0)
(104.608 0 0)
(103.729 0 0)
(103.222 0 0)
(102.969 0 0)
(102.896 0 0)
(102.956 0 0)
(103.117 0 0)
(103.356 0 0)
(103.657 0 0)
(104.009 0 0)
(104.403 0 0)
(104.831 0 0)
(105.289 0 0)
(105.771 0 0)
(106.276 0 0)
(106.799 0 0)
(107.338 0 0)
(107.891 0 0)
(108.457 0 0)
(109.034 0 0)
(109.62 0 0)
(110.215 0 0)
(110.817 0 0)
(111.426 0 0)
(112.041 0 0)
(112.662 0 0)
(113.286 0 0)
(113.917 0 0)
(114.543 0 0)
(115.199 0 0)
(115.774 0 0)
(116.614 0 0)
(263.3 0 0)
(262.156 0 0)
(260.984 0 0)
(259.782 0 0)
(258.551 0 0)
(257.288 0 0)
(255.992 0 0)
(254.663 0 0)
(253.299 0 0)
(251.898 0 0)
(250.459 0 0)
(248.98 0 0)
(247.459 0 0)
(245.895 0 0)
(244.285 0 0)
(242.626 0 0)
(240.916 0 0)
(239.151 0 0)
(237.329 0 0)
(235.446 0 0)
(233.497 0 0)
(231.477 0 0)
(229.382 0 0)
(227.204 0 0)
(224.938 0 0)
(222.573 0 0)
(220.101 0 0)
(217.509 0 0)
(214.782 0 0)
(211.904 0 0)
(208.852 0 0)
(205.598 0 0)
(202.103 0 0)
(198.319 0 0)
(194.176 0 0)
(189.564 0 0)
(184.268 0 0)
(177.877 0 0)
(169.819 0 0)
(159.726 0 0)
(148.059 0 0)
(136.249 0 0)
(125.924 0 0)
(117.981 0 0)
(112.404 0 0)
(108.699 0 0)
(106.306 0 0)
(104.785 0 0)
(103.838 0 0)
(103.273 0 0)
(102.971 0 0)
(102.856 0 0)
(102.877 0 0)
(103.001 0 0)
(103.206 0 0)
(103.475 0 0)
(103.795 0 0)
(104.158 0 0)
(104.557 0 0)
(104.986 0 0)
(105.44 0 0)
(105.917 0 0)
(106.413 0 0)
(106.925 0 0)
(107.452 0 0)
(107.992 0 0)
(108.543 0 0)
(109.104 0 0)
(109.673 0 0)
(110.251 0 0)
(110.835 0 0)
(111.425 0 0)
(112.021 0 0)
(112.622 0 0)
(113.229 0 0)
(113.831 0 0)
(114.463 0 0)
(115.017 0 0)
(115.825 0 0)
(261.97 0 0)
(260.831 0 0)
(259.665 0 0)
(258.47 0 0)
(257.246 0 0)
(255.991 0 0)
(254.705 0 0)
(253.385 0 0)
(252.031 0 0)
(250.641 0 0)
(249.214 0 0)
(247.748 0 0)
(246.24 0 0)
(244.69 0 0)
(243.095 0 0)
(241.452 0 0)
(239.759 0 0)
(238.013 0 0)
(236.211 0 0)
(234.348 0 0)
(232.421 0 0)
(230.425 0 0)
(228.354 0 0)
(226.203 0 0)
(223.965 0 0)
(221.631 0 0)
(219.191 0 0)
(216.634 0 0)
(213.946 0 0)
(211.109 0 0)
(208.102 0 0)
(204.897 0 0)
(201.458 0 0)
(197.736 0 0)
(193.665 0 0)
(189.139 0 0)
(183.952 0 0)
(177.72 0 0)
(169.893 0 0)
(160.093 0 0)
(148.7 0 0)
(137.041 0 0)
(126.712 0 0)
(118.658 0 0)
(112.935 0 0)
(109.094 0 0)
(106.589 0 0)
(104.98 0 0)
(103.962 0 0)
(103.34 0 0)
(102.989 0 0)
(102.83 0 0)
(102.812 0 0)
(102.901 0 0)
(103.071 0 0)
(103.308 0 0)
(103.597 0 0)
(103.93 0 0)
(104.3 0 0)
(104.701 0 0)
(105.128 0 0)
(105.577 0 0)
(106.046 0 0)
(106.532 0 0)
(107.033 0 0)
(107.547 0 0)
(108.073 0 0)
(108.609 0 0)
(109.154 0 0)
(109.707 0 0)
(110.267 0 0)
(110.834 0 0)
(111.406 0 0)
(111.982 0 0)
(112.566 0 0)
(113.145 0 0)
(113.753 0 0)
(114.287 0 0)
(115.064 0 0)
(260.645 0 0)
(259.512 0 0)
(258.353 0 0)
(257.165 0 0)
(255.949 0 0)
(254.703 0 0)
(253.426 0 0)
(252.116 0 0)
(250.772 0 0)
(249.394 0 0)
(247.979 0 0)
(246.525 0 0)
(245.032 0 0)
(243.496 0 0)
(241.917 0 0)
(240.29 0 0)
(238.615 0 0)
(236.887 0 0)
(235.104 0 0)
(233.262 0 0)
(231.357 0 0)
(229.385 0 0)
(227.339 0 0)
(225.215 0 0)
(223.005 0 0)
(220.701 0 0)
(218.294 0 0)
(215.772 0 0)
(213.121 0 0)
(210.325 0 0)
(207.363 0 0)
(204.208 0 0)
(200.824 0 0)
(197.164 0 0)
(193.164 0 0)
(188.722 0 0)
(183.643 0 0)
(177.566 0 0)
(169.965 0 0)
(160.454 0 0)
(149.337 0 0)
(137.841 0 0)
(127.519 0 0)
(119.359 0 0)
(113.492 0 0)
(109.512 0 0)
(106.893 0 0)
(105.193 0 0)
(104.104 0 0)
(103.423 0 0)
(103.022 0 0)
(102.82 0 0)
(102.763 0 0)
(102.815 0 0)
(102.952 0 0)
(103.157 0 0)
(103.416 0 0)
(103.719 0 0)
(104.06 0 0)
(104.433 0 0)
(104.833 0 0)
(105.256 0 0)
(105.698 0 0)
(106.159 0 0)
(106.635 0 0)
(107.124 0 0)
(107.625 0 0)
(108.136 0 0)
(108.657 0 0)
(109.186 0 0)
(109.722 0 0)
(110.265 0 0)
(110.814 0 0)
(111.368 0 0)
(111.928 0 0)
(112.485 0 0)
(113.069 0 0)
(113.584 0 0)
(114.33 0 0)
(259.326 0 0)
(258.199 0 0)
(257.047 0 0)
(255.868 0 0)
(254.66 0 0)
(253.423 0 0)
(252.155 0 0)
(250.856 0 0)
(249.524 0 0)
(248.157 0 0)
(246.754 0 0)
(245.314 0 0)
(243.835 0 0)
(242.314 0 0)
(240.75 0 0)
(239.14 0 0)
(237.482 0 0)
(235.773 0 0)
(234.01 0 0)
(232.189 0 0)
(230.306 0 0)
(228.357 0 0)
(226.337 0 0)
(224.239 0 0)
(222.057 0 0)
(219.784 0 0)
(217.409 0 0)
(214.921 0 0)
(212.308 0 0)
(209.553 0 0)
(206.636 0 0)
(203.53 0 0)
(200.2 0 0)
(196.602 0 0)
(192.672 0 0)
(188.313 0 0)
(183.341 0 0)
(177.415 0 0)
(170.035 0 0)
(160.808 0 0)
(149.971 0 0)
(138.647 0 0)
(128.342 0 0)
(120.085 0 0)
(114.073 0 0)
(109.954 0 0)
(107.218 0 0)
(105.425 0 0)
(104.262 0 0)
(103.521 0 0)
(103.07 0 0)
(102.824 0 0)
(102.728 0 0)
(102.745 0 0)
(102.848 0 0)
(103.021 0 0)
(103.25 0 0)
(103.524 0 0)
(103.837 0 0)
(104.183 0 0)
(104.555 0 0)
(104.952 0 0)
(105.369 0 0)
(105.804 0 0)
(106.255 0 0)
(106.72 0 0)
(107.197 0 0)
(107.684 0 0)
(108.181 0 0)
(108.687 0 0)
(109.2 0 0)
(109.72 0 0)
(110.246 0 0)
(110.777 0 0)
(111.315 0 0)
(111.85 0 0)
(112.411 0 0)
(112.906 0 0)
(113.623 0 0)
(258.013 0 0)
(256.894 0 0)
(255.749 0 0)
(254.578 0 0)
(253.379 0 0)
(252.152 0 0)
(250.894 0 0)
(249.606 0 0)
(248.285 0 0)
(246.93 0 0)
(245.54 0 0)
(244.114 0 0)
(242.648 0 0)
(241.143 0 0)
(239.595 0 0)
(238.002 0 0)
(236.362 0 0)
(234.672 0 0)
(232.929 0 0)
(231.129 0 0)
(229.268 0 0)
(227.342 0 0)
(225.347 0 0)
(223.276 0 0)
(221.122 0 0)
(218.879 0 0)
(216.536 0 0)
(214.083 0 0)
(211.508 0 0)
(208.793 0 0)
(205.92 0 0)
(202.862 0 0)
(199.587 0 0)
(196.049 0 0)
(192.189 0 0)
(187.912 0 0)
(183.045 0 0)
(177.267 0 0)
(170.102 0 0)
(161.156 0 0)
(150.6 0 0)
(139.457 0 0)
(129.183 0 0)
(120.835 0 0)
(114.681 0 0)
(110.42 0 0)
(107.564 0 0)
(105.676 0 0)
(104.437 0 0)
(103.636 0 0)
(103.134 0 0)
(102.844 0 0)
(102.708 0 0)
(102.689 0 0)
(102.759 0 0)
(102.901 0 0)
(103.099 0 0)
(103.345 0 0)
(103.63 0 0)
(103.949 0 0)
(104.295 0 0)
(104.666 0 0)
(105.058 0 0)
(105.469 0 0)
(105.895 0 0)
(106.336 0 0)
(106.789 0 0)
(107.253 0 0)
(107.727 0 0)
(108.209 0 0)
(108.7 0 0)
(109.197 0 0)
(109.701 0 0)
(110.21 0 0)
(110.725 0 0)
(111.239 0 0)
(111.778 0 0)
(112.253 0 0)
(112.942 0 0)
(256.707 0 0)
(255.595 0 0)
(254.459 0 0)
(253.297 0 0)
(252.108 0 0)
(250.89 0 0)
(249.643 0 0)
(248.365 0 0)
(247.056 0 0)
(245.714 0 0)
(244.337 0 0)
(242.924 0 0)
(241.474 0 0)
(239.984 0 0)
(238.452 0 0)
(236.876 0 0)
(235.254 0 0)
(233.583 0 0)
(231.859 0 0)
(230.08 0 0)
(228.242 0 0)
(226.34 0 0)
(224.37 0 0)
(222.325 0 0)
(220.2 0 0)
(217.986 0 0)
(215.676 0 0)
(213.257 0 0)
(210.719 0 0)
(208.045 0 0)
(205.215 0 0)
(202.205 0 0)
(198.983 0 0)
(195.506 0 0)
(191.715 0 0)
(187.52 0 0)
(182.756 0 0)
(177.122 0 0)
(170.168 0 0)
(161.497 0 0)
(151.222 0 0)
(140.271 0 0)
(130.039 0 0)
(121.609 0 0)
(115.316 0 0)
(110.912 0 0)
(107.933 0 0)
(105.947 0 0)
(104.63 0 0)
(103.766 0 0)
(103.212 0 0)
(102.878 0 0)
(102.703 0 0)
(102.648 0 0)
(102.685 0 0)
(102.795 0 0)
(102.964 0 0)
(103.182 0 0)
(103.44 0 0)
(103.732 0 0)
(104.052 0 0)
(104.398 0 0)
(104.765 0 0)
(105.151 0 0)
(105.554 0 0)
(105.97 0 0)
(106.4 0 0)
(106.841 0 0)
(107.293 0 0)
(107.753 0 0)
(108.221 0 0)
(108.696 0 0)
(109.178 0 0)
(109.665 0 0)
(110.16 0 0)
(110.652 0 0)
(111.169 0 0)
(111.626 0 0)
(112.286 0 0)
(255.408 0 0)
(254.305 0 0)
(253.178 0 0)
(252.025 0 0)
(250.845 0 0)
(249.638 0 0)
(248.401 0 0)
(247.135 0 0)
(245.838 0 0)
(244.509 0 0)
(243.145 0 0)
(241.746 0 0)
(240.311 0 0)
(238.836 0 0)
(237.321 0 0)
(235.762 0 0)
(234.158 0 0)
(232.506 0 0)
(230.803 0 0)
(229.045 0 0)
(227.229 0 0)
(225.351 0 0)
(223.405 0 0)
(221.387 0 0)
(219.29 0 0)
(217.106 0 0)
(214.827 0 0)
(212.444 0 0)
(209.942 0 0)
(207.308 0 0)
(204.521 0 0)
(201.559 0 0)
(198.391 0 0)
(194.973 0 0)
(191.25 0 0)
(187.135 0 0)
(182.472 0 0)
(176.98 0 0)
(170.23 0 0)
(161.83 0 0)
(151.838 0 0)
(141.087 0 0)
(130.91 0 0)
(122.407 0 0)
(115.977 0 0)
(111.428 0 0)
(108.324 0 0)
(106.237 0 0)
(104.841 0 0)
(103.913 0 0)
(103.307 0 0)
(102.927 0 0)
(102.712 0 0)
(102.621 0 0)
(102.626 0 0)
(102.705 0 0)
(102.845 0 0)
(103.034 0 0)
(103.265 0 0)
(103.531 0 0)
(103.826 0 0)
(104.147 0 0)
(104.489 0 0)
(104.852 0 0)
(105.23 0 0)
(105.624 0 0)
(106.031 0 0)
(106.45 0 0)
(106.879 0 0)
(107.317 0 0)
(107.763 0 0)
(108.217 0 0)
(108.678 0 0)
(109.144 0 0)
(109.617 0 0)
(110.089 0 0)
(110.584 0 0)
(111.022 0 0)
(111.656 0 0)
(254.118 0 0)
(253.023 0 0)
(251.905 0 0)
(250.762 0 0)
(249.592 0 0)
(248.395 0 0)
(247.17 0 0)
(245.916 0 0)
(244.631 0 0)
(243.314 0 0)
(241.965 0 0)
(240.58 0 0)
(239.159 0 0)
(237.701 0 0)
(236.202 0 0)
(234.66 0 0)
(233.075 0 0)
(231.442 0 0)
(229.758 0 0)
(228.022 0 0)
(226.228 0 0)
(224.374 0 0)
(222.453 0 0)
(220.461 0 0)
(218.392 0 0)
(216.238 0 0)
(213.991 0 0)
(211.642 0 0)
(209.177 0 0)
(206.582 0 0)
(203.839 0 0)
(200.924 0 0)
(197.808 0 0)
(194.449 0 0)
(190.794 0 0)
(186.758 0 0)
(182.195 0 0)
(176.841 0 0)
(170.291 0 0)
(162.156 0 0)
(152.447 0 0)
(141.904 0 0)
(131.795 0 0)
(123.228 0 0)
(116.666 0 0)
(111.972 0 0)
(108.739 0 0)
(106.548 0 0)
(105.071 0 0)
(104.077 0 0)
(103.416 0 0)
(102.991 0 0)
(102.736 0 0)
(102.609 0 0)
(102.581 0 0)
(102.629 0 0)
(102.74 0 0)
(102.902 0 0)
(103.106 0 0)
(103.346 0 0)
(103.616 0 0)
(103.912 0 0)
(104.231 0 0)
(104.57 0 0)
(104.925 0 0)
(105.297 0 0)
(105.681 0 0)
(106.078 0 0)
(106.485 0 0)
(106.901 0 0)
(107.326 0 0)
(107.759 0 0)
(108.199 0 0)
(108.644 0 0)
(109.096 0 0)
(109.548 0 0)
(110.022 0 0)
(110.443 0 0)
(111.049 0 0)
(252.836 0 0)
(251.751 0 0)
(250.642 0 0)
(249.508 0 0)
(248.349 0 0)
(247.163 0 0)
(245.949 0 0)
(244.707 0 0)
(243.435 0 0)
(242.132 0 0)
(240.796 0 0)
(239.426 0 0)
(238.02 0 0)
(236.577 0 0)
(235.095 0 0)
(233.571 0 0)
(232.004 0 0)
(230.39 0 0)
(228.727 0 0)
(227.012 0 0)
(225.24 0 0)
(223.409 0 0)
(221.514 0 0)
(219.548 0 0)
(217.507 0 0)
(215.383 0 0)
(213.168 0 0)
(210.852 0 0)
(208.423 0 0)
(205.867 0 0)
(203.167 0 0)
(200.3 0 0)
(197.235 0 0)
(193.935 0 0)
(190.346 0 0)
(186.389 0 0)
(181.925 0 0)
(176.705 0 0)
(170.349 0 0)
(162.473 0 0)
(153.046 0 0)
(142.721 0 0)
(132.692 0 0)
(124.073 0 0)
(117.382 0 0)
(112.542 0 0)
(109.178 0 0)
(106.881 0 0)
(105.319 0 0)
(104.257 0 0)
(103.542 0 0)
(103.07 0 0)
(102.775 0 0)
(102.612 0 0)
(102.55 0 0)
(102.568 0 0)
(102.65 0 0)
(102.784 0 0)
(102.962 0 0)
(103.176 0 0)
(103.422 0 0)
(103.694 0 0)
(103.989 0 0)
(104.305 0 0)
(104.638 0 0)
(104.987 0 0)
(105.349 0 0)
(105.724 0 0)
(106.11 0 0)
(106.506 0 0)
(106.91 0 0)
(107.322 0 0)
(107.741 0 0)
(108.166 0 0)
(108.598 0 0)
(109.03 0 0)
(109.483 0 0)
(109.887 0 0)
(110.467 0 0)
(251.563 0 0)
(250.487 0 0)
(249.388 0 0)
(248.265 0 0)
(247.116 0 0)
(245.941 0 0)
(244.74 0 0)
(243.51 0 0)
(242.25 0 0)
(240.96 0 0)
(239.638 0 0)
(238.283 0 0)
(236.893 0 0)
(235.466 0 0)
(234 0 0)
(232.494 0 0)
(230.945 0 0)
(229.351 0 0)
(227.708 0 0)
(226.014 0 0)
(224.265 0 0)
(222.458 0 0)
(220.587 0 0)
(218.647 0 0)
(216.634 0 0)
(214.539 0 0)
(212.356 0 0)
(210.073 0 0)
(207.681 0 0)
(205.164 0 0)
(202.506 0 0)
(199.685 0 0)
(196.672 0 0)
(193.43 0 0)
(189.907 0 0)
(186.027 0 0)
(181.66 0 0)
(176.572 0 0)
(170.404 0 0)
(162.782 0 0)