/*--------------------------------*- C++ -*----------------------------------*\
| =========                 |                                                 |
| \\      /  F ield         | OpenFOAM: The Open Source CFD Toolbox           |
|  \\    /   O peration     | Version:  2312                                  |
|   \\  /    A nd           | Website:  www.openfoam.com                      |
|    \\/     M anipulation  |                                                 |
\*---------------------------------------------------------------------------*/
FoamFile
{
    version     2.0;
    format      ascii;
    arch        "LSB;label=32;scalar=64";
    class       surfaceScalarField;
    location    "0.087";
    object      phi;
}
// * * * * * * * * * * * * * * * * * * * * * * * * * * * * * * * * * * * * * //

dimensions      [0 3 -1 0 0 0 0];

oriented        oriented;

internalField   nonuniform List<scalar> 
62015
(
33.1358
0.174142
-32.5295
33.7351
0.174512
34.325
0.174621
34.9039
0.174458
35.4709
0.174017
36.0258
0.173294
36.5683
0.172287
37.0985
0.170995
37.6168
0.169418
38.1234
0.167558
38.619
0.165418
39.1039
0.163
39.5788
0.160308
40.0442
0.157344
40.5008
0.154113
40.9492
0.150619
41.39
0.146865
41.8238
0.142856
42.2512
0.138597
42.6728
0.134092
43.0892
0.129345
43.5009
0.124362
43.9085
0.119147
44.3125
0.113705
44.7135
0.108041
45.1119
0.10216
45.5082
0.0960667
45.903
0.0897668
46.2966
0.0832656
46.6895
0.0765681
47.0822
0.0696796
47.475
0.0626052
47.8684
0.0553513
48.2627
0.0479224
48.6584
0.0403248
49.0557
0.0325635
49.455
0.0246449
49.8567
0.016574
50.261
0.00835713
50.6683
0
51.0789
-0.00849174
51.493
-0.0171113
51.911
-0.0258541
52.3329
-0.0347126
52.7592
-0.0436819
53.1901
-0.052755
53.6256
-0.0619264
54.0662
-0.0711891
54.5119
-0.080538
54.9629
-0.0899656
55.4194
-0.0994662
55.8817
-0.109033
56.3497
-0.118661
56.8237
-0.128342
57.3038
-0.138071
57.7901
-0.14784
58.2827
-0.157644
58.7817
-0.167476
59.2873
-0.17733
59.7994
-0.187198
60.3181
-0.197075
60.8435
-0.206955
61.3756
-0.216829
61.9145
-0.226693
62.4602
-0.23654
63.0127
-0.246363
63.572
-0.256155
64.138
-0.265911
64.7109
-0.275623
65.2905
-0.285286
65.8767
-0.294893
66.4697
-0.304438
67.0691
-0.313914
67.6754
-0.323315
68.2869
-0.332639
68.9088
-0.341858
69.524
-0.351044
70.1858
-0.359937
-0.369336
70.7289
32.8131
0.350419
-32.2517
33.3669
0.350742
33.9106
0.350546
34.4434
0.349819
34.9649
0.348551
35.4749
0.346737
35.9735
0.344376
36.4609
0.341468
36.9375
0.338016
37.4036
0.334021
37.8598
0.32949
38.3065
0.324428
38.7444
0.31884
39.1739
0.312733
39.5956
0.306115
40.0102
0.298993
40.4181
0.291374
40.82
0.283267
41.2163
0.27468
41.6076
0.265622
41.9946
0.256101
42.3776
0.246126
42.7571
0.235707
43.1338
0.224852
43.5079
0.21357
43.8801
0.201872
44.2508
0.189767
44.6204
0.177265
44.9893
0.164376
45.3579
0.151109
45.7267
0.137475
46.0959
0.123485
46.4661
0.109148
46.8375
0.0944757
47.2105
0.0794784
47.5854
0.0641669
47.9625
0.0485522
48.3422
0.0326453
48.7247
0.0164576
49.1104
0
49.4994
-0.0167159
49.8921
-0.0336786
50.2887
-0.0508768
50.6895
-0.0682987
51.0946
-0.085932
51.5043
-0.103766
51.9188
-0.121788
52.3382
-0.139985
52.7628
-0.158347
53.1928
-0.17686
53.6282
-0.195513
54.0693
-0.214294
54.5162
-0.233189
54.969
-0.252187
55.4278
-0.271275
55.8928
-0.290441
56.364
-0.309671
56.8416
-0.328955
57.3255
-0.348278
57.816
-0.36763
58.313
-0.386995
58.8166
-0.406364
59.3268
-0.425722
59.8437
-0.445058
60.3672
-0.464358
60.8975
-0.48361
61.4345
-0.502802
61.9781
-0.521921
62.5284
-0.540955
63.0854
-0.559891
63.649
-0.578718
64.2192
-0.597421
64.7957
-0.615992
65.3791
-0.634413
65.9676
-0.652686
66.5663
-0.670751
67.1591
-0.688751
67.7953
-0.706189
-0.724578
68.3228
32.4901
0.528665
-31.9729
32.9991
0.528525
33.498
0.527623
33.9865
0.525946
34.4643
0.523484
34.9316
0.520234
35.3884
0.516195
35.8352
0.511371
36.2722
0.505763
36.7
0.499379
37.119
0.492225
37.5296
0.484308
37.9324
0.475637
38.3279
0.466223
38.7167
0.456074
39.0992
0.445202
39.476
0.433617
39.8477
0.42133
40.2146
0.408354
40.5773
0.394701
40.9363
0.380381
41.2921
0.365409
41.6451
0.349798
41.9958
0.333558
42.3445
0.316706
42.6919
0.299253
43.0382
0.281214
43.3838
0.262603
43.7292
0.243434
44.0747
0.223721
44.4208
0.203479
44.7676
0.182722
45.1157
0.161467
45.4652
0.139727
45.8166
0.117519
46.1702
0.0948573
46.5262
0.0717589
46.8849
0.0482388
47.2466
0.0243141
47.6116
0
47.9801
-0.0246865
48.3524
-0.0497286
48.7286
-0.0751097
49.109
-0.100813
49.4939
-0.126822
49.8834
-0.153118
50.2777
-0.179685
50.677
-0.206505
51.0815
-0.233561
51.4912
-0.260835
51.9065
-0.288309
52.3273
-0.315966
52.7539
-0.343787
53.1864
-0.371754
53.6248
-0.39985
54.0693
-0.428056
54.52
-0.456354
54.9769
-0.484727
55.4401
-0.513155
55.9098
-0.54162
56.3859
-0.570105
56.8685
-0.59859
57.3576
-0.627058
57.8533
-0.65549
58.3555
-0.683868
58.8644
-0.712174
59.3798
-0.74039
59.9019
-0.768497
60.4305
-0.796478
60.9656
-0.824314
61.5072
-0.851988
62.0554
-0.879481
62.6098
-0.906777
63.1709
-0.933853
63.7372
-0.960712
64.3133
-0.987267
64.8842
-1.01372
65.4962
-1.03936
-1.06636
66.0064
32.1472
0.708392
-31.6725
32.6135
0.707407
33.0702
0.705432
33.517
0.702455
33.954
0.698469
34.3814
0.693475
34.7994
0.687471
35.2084
0.680463
35.6087
0.672455
36.0008
0.663456
36.3851
0.653475
36.7622
0.642521
37.1324
0.630606
37.4963
0.617741
37.8543
0.603939
38.207
0.589213
38.5548
0.573577
38.8981
0.557045
39.2376
0.539631
39.5735
0.521351
39.9064
0.50222
40.2367
0.482254
40.5647
0.461468
40.8911
0.43988
41.216
0.417507
41.54
0.394365
41.8633
0.370472
42.1865
0.345846
42.5097
0.320505
42.8335
0.294467
43.158
0.26775
43.4838
0.240375
43.8109
0.21236
44.1399
0.183724
44.4709
0.154487
44.8042
0.124669
45.1402
0.0942913
45.479
0.0633733
45.821
0.0319359
46.1664
0
46.5153
-0.0324131
46.8682
-0.065282
47.2251
-0.0985854
47.5862
-0.132301
47.9518
-0.166407
48.3221
-0.200882
48.6971
-0.235702
49.0772
-0.270847
49.4624
-0.306291
49.8529
-0.342015
50.2488
-0.377993
50.6504
-0.414204
51.0575
-0.450623
51.4705
-0.487228
51.8894
-0.523996
52.3143
-0.560903
52.7453
-0.597925
53.1825
-0.635039
53.6259
-0.672222
54.0755
-0.709449
54.5316
-0.746698
54.994
-0.783943
55.4628
-0.821163
55.9381
-0.858333
56.4199
-0.89543
56.9081
-0.932429
57.4028
-0.969309
57.904
-1.00604
58.4116
-1.04261
58.9257
-1.07899
59.4461
-1.11515
59.973
-1.15108
60.506
-1.18675
61.0456
-1.22213
61.5904
-1.25722
62.1446
-1.29192
62.6942
-1.32649
63.2829
-1.36
-1.39525
63.7757
31.7771
0.889044
-31.3428
32.2034
0.886867
32.6206
0.88349
33.0287
0.878903
33.4279
0.873105
33.8184
0.866094
34.2005
0.857874
34.5745
0.84845
34.9409
0.83783
35.3001
0.826024
35.6524
0.813042
35.9984
0.798895
36.3384
0.783598
36.673
0.767164
37.0025
0.749608
37.3275
0.730945
37.6484
0.711191
37.9655
0.690363
38.2794
0.668478
38.5904
0.645554
38.8989
0.621609
39.2054
0.596661
39.5103
0.570731
39.8138
0.543837
40.1165
0.515999
40.4186
0.487238
40.7205
0.457575
41.0225
0.427031
41.325
0.395628
41.6283
0.363387
41.9328
0.33033
42.2386
0.296482
42.5461
0.261864
42.8556
0.2265
43.1673
0.190413
43.4816
0.153628
43.7987
0.11617
44.1187
0.0780626
44.4421
0.0393306
44.7689
0
45.0994
-0.039904
45.4338
-0.0803558
45.7723
-0.121329
46.1152
-0.162797
46.4625
-0.204734
46.8145
-0.247113
47.1712
-0.289906
47.533
-0.333087
47.8999
-0.376628
48.272
-0.420501
48.6496
-0.46468
49.0326
-0.509135
49.4213
-0.553839
49.8157
-0.598763
50.2159
-0.64388
50.6221
-0.689161
51.0342
-0.734577
51.4524
-0.780101
51.8768
-0.825702
52.3073
-0.871353
52.7441
-0.917025
53.1872
-0.96269
53.6365
-1.00832
54.0922
-1.05388
54.5543
-1.09935
55.0227
-1.1447
55.4974
-1.18989
55.9786
-1.23491
56.466
-1.27972
56.9598
-1.32429
57.4598
-1.3686
57.9661
-1.41262
58.4784
-1.45632
58.9973
-1.49966
59.5212
-1.54266
60.0544
-1.58517
60.5833
-1.62751
61.1495
-1.66858
-1.71173
61.625
31.379
1.07009
-30.9824
31.768
1.06641
32.1486
1.06134
32.5209
1.05488
32.8851
1.04701
33.2416
1.03775
33.5905
1.02709
33.9324
1.01505
34.2675
1.00164
34.5962
0.986862
34.9191
0.970732
35.2364
0.953264
35.5485
0.934471
35.8561
0.914371
36.1593
0.89298
36.4586
0.870314
36.7545
0.846393
37.0473
0.821235
37.3375
0.794859
37.6253
0.767285
37.9113
0.738535
38.1957
0.70863
38.4789
0.677591
38.7612
0.64544
39.0431
0.612201
39.3247
0.577897
39.6066
0.542552
39.8889
0.50619
40.1719
0.468836
40.4561
0.430515
40.7416
0.391253
41.0287
0.351076
41.3178
0.310011
41.609
0.268084
41.9027
0.225324
42.199
0.181757
42.4982
0.137413
42.8006
0.0923191
43.1063
0.0465051
43.4156
0
43.7286
-0.0471665
44.0456
-0.0949645
44.3667
-0.143364
44.6922
-0.192333
45.0221
-0.241843
45.3567
-0.291861
45.6962
-0.342357
46.0405
-0.393298
46.39
-0.444652
46.7446
-0.496388
47.1046
-0.548474
47.4701
-0.600876
47.8411
-0.653562
48.2178
-0.7065
48.6002
-0.759656
48.9884
-0.812998
49.3826
-0.866491
49.7827
-0.920104
50.1888
-0.973802
50.601
-1.02755
51.0194
-1.08132
51.4439
-1.13508
51.8746
-1.18878
52.3115
-1.24241
52.7546
-1.29592
53.204
-1.34928
53.6595
-1.40246
54.1213
-1.45543
54.5894
-1.50814
55.0636
-1.56058
55.5439
-1.61271
56.0304
-1.66449
56.5229
-1.71589
57.0217
-1.76687
57.5254
-1.81744
58.0382
-1.86744
58.5471
-1.91724
59.0917
-1.96555
-2.01627
59.5502
30.9547
1.25106
-30.5934
31.3091
1.24561
31.6558
1.23859
31.9951
1.23001
32.3271
1.21985
32.6521
1.20813
32.9706
1.19486
33.2828
1.18003
33.5891
1.16367
33.8898
1.14578
34.1855
1.12638
34.4763
1.10548
34.7628
1.0831
35.0453
1.05926
35.3242
1.03397
35.5998
1.00725
35.8726
0.979128
36.1429
0.949619
36.4111
0.918745
36.6774
0.886528
36.9423
0.852992
37.2062
0.818161
37.4692
0.782057
37.7318
0.744707
37.9943
0.706135
38.2569
0.666367
38.52
0.625431
38.7838
0.583354
39.0487
0.540162
39.3149
0.495885
39.5827
0.450551
39.8523
0.40419
40.1241
0.356832
40.3981
0.308506
40.6747
0.259244
40.9541
0.209077
41.2366
0.158036
41.5222
0.106155
41.8113
0.0534654
42.104
0
42.4005
-0.0542074
42.701
-0.109122
43.0057
-0.164712
43.3147
-0.220941
43.6282
-0.277774
43.9463
-0.335176
44.2693
-0.393113
44.5971
-0.451547
44.93
-0.510443
45.268
-0.569765
45.6113
-0.629476
45.96
-0.689539
46.3142
-0.749917
46.674
-0.810574
47.0394
-0.871471
47.4105
-0.932572
47.7874
-0.993838
48.1702
-1.05523
48.5589
-1.11672
48.9536
-1.17826
49.3543
-1.23981
49.761
-1.30134
50.1738
-1.3628
50.5927
-1.42417
51.0177
-1.48541
51.4487
-1.54646
51.8859
-1.60731
52.3292
-1.6679
52.7785
-1.72821
53.2339
-1.7882
53.6953
-1.84782
54.1627
-1.90704
54.636
-1.96583
55.1155
-2.02414
55.5998
-2.08198
56.0929
-2.13916
56.5826
-2.1961
57.1063
-2.25136
-2.30931
57.5483
30.5072
1.43153
-30.1784
30.8295
1.42407
31.145
1.41488
31.4537
1.40397
31.756
1.39134
32.0522
1.37699
32.3426
1.36094
32.6275
1.34318
32.9072
1.32374
33.1822
1.30262
33.4527
1.27985
33.7192
1.25543
33.982
1.22939
34.2414
1.20174
34.4978
1.17251
34.7515
1.1417
35.0029
1.10936
35.2523
1.07549
35.5
1.04012
35.7465
1.00327
35.9919
0.964981
36.2366
0.925262
36.4809
0.884145
36.725
0.841657
36.9694
0.797825
37.2143
0.752678
37.4599
0.706245
37.7065
0.658556
37.9543
0.609642
38.2037
0.559533
38.4549
0.508261
38.7081
0.455858
38.9635
0.402358
39.2215
0.347794
39.482
0.292199
39.7455
0.235609
40.0121
0.178058
40.282
0.119582
40.5554
0.0602173
40.8325
0
41.1134
-0.0610328
41.3983
-0.122844
41.6874
-0.185395
41.9808
-0.248648
42.2787
-0.312564
42.5812
-0.377105
42.8885
-0.44223
43.2006
-0.507901
43.5178
-0.574077
43.84
-0.640718
44.1674
-0.707783
44.5002
-0.775232
44.8383
-0.843023
45.1819
-0.911115
45.5311
-0.979467
45.8859
-1.04804
46.2464
-1.11679
46.6127
-1.18567
46.9848
-1.25464
47.3627
-1.32367
47.7465
-1.3927
48.1362
-1.4617
48.5318
-1.53063
48.9334
-1.59944
49.3409
-1.66808
49.7545
-1.73653
50.174
-1.80473
50.5994
-1.87265
51.0308
-1.94024
51.4681
-2.00747
51.9113
-2.07428
52.3604
-2.14064
52.8152
-2.20652
53.276
-2.27185
53.7417
-2.33665
54.2158
-2.40071
54.6868
-2.4645
55.1903
-2.52642
-2.5913
55.6165
30.0394
1.61114
-29.7409
30.3322
1.60146
30.6188
1.58991
30.8995
1.5765
31.1745
1.56123
31.444
1.5441
31.7086
1.52513
31.9683
1.50432
32.2236
1.48169
32.4748
1.45725
32.7223
1.43102
32.9662
1.40301
33.2071
1.37325
33.4452
1.34175
33.6807
1.30854
33.9142
1.27363
34.1458
1.23705
34.3758
1.19882
34.6047
1.15897
34.8326
1.11753
35.0598
1.07451
35.2867
1.02995
35.5136
0.983875
35.7406
0.936315
35.9682
0.8873
36.1964
0.83686
36.4257
0.785027
36.6561
0.731832
36.8881
0.67731
37.1218
0.621493
37.3574
0.564415
37.5951
0.506113
37.8353
0.446621
38.078
0.385976
38.3236
0.324215
38.5721
0.261375
38.8238
0.197495
39.0788
0.132612
39.3374
0.0667677
39.5997
0
39.8658
-0.0676501
40.136
-0.136142
40.4104
-0.205434
40.689
-0.275485
40.9721
-0.346252
41.2598
-0.417693
41.5522
-0.489765
41.8494
-0.562425
42.1516
-0.635628
42.4588
-0.709331
42.7711
-0.78349
43.0887
-0.858059
43.4115
-0.932995
43.7398
-1.00825
44.0735
-1.08378
44.4127
-1.15955
44.7575
-1.23549
45.108
-1.31158
45.4641
-1.38776
45.826
-1.46398
46.1936
-1.54021
46.567
-1.61639
46.9462
-1.69248
47.3313
-1.76844
47.7221
-1.84421
48.1188
-1.91975
48.5214
-1.99502
48.9297
-2.06996
49.3439
-2.14454
49.7638
-2.21871
50.1895
-2.29243
50.6209
-2.36564
51.0579
-2.4383
51.5009
-2.51037
51.9485
-2.58184
52.4044
-2.65251
52.8574
-2.72285
53.3415
-2.79116
-2.86266
53.7523
29.5544
1.78956
-29.2838
29.82
1.77749
30.0801
1.76342
30.3349
1.74735
30.5847
1.7293
30.8298
1.70926
31.0705
1.68726
31.3072
1.6633
31.54
1.63739
31.7693
1.60955
31.9954
1.5798
32.2186
1.54815
32.4392
1.51463
32.6576
1.47925
32.8739
1.44203
33.0886
1.40301
33.3018
1.36219
33.5139
1.31962
33.7252
1.27531
33.9359
1.22929
34.1463
1.18159
34.3567
1.13224
34.5673
1.08127
34.7784
1.02871
34.9902
0.974592
35.203
0.918948
35.4169
0.861812
35.6323
0.803219
35.8494
0.743204
36.0683
0.681802
36.2893
0.619052
36.5126
0.554989
36.7384
0.489653
36.9669
0.423082
37.1983
0.355317
37.4327
0.286396
37.6703
0.216363
37.9114
0.145257
38.156
0.0731219
38.4043
0
38.6565
-0.0740653
38.9128
-0.14903
39.1731
-0.22485
39.4378
-0.301479
39.7069
-0.378873
39.9806
-0.456986
40.2589
-0.53577
40.5419
-0.61518
40.8298
-0.695168
41.1227
-0.775687
41.4207
-0.856688
41.7238
-0.938124
42.0321
-1.01995
42.3457
-1.10211
42.6646
-1.18455
42.989
-1.26724
43.3188
-1.35012
43.6542
-1.43314
43.9951
-1.51624
44.3416
-1.5994
44.6938
-1.68254
45.0516
-1.76562
45.4151
-1.8486
45.7843
-1.93142
46.1591
-2.01403
46.5397
-2.09638
46.9259
-2.17843
47.3179
-2.26012
47.7155
-2.34141
48.1187
-2.42224
48.5276
-2.50257
48.942
-2.58235
49.362
-2.66153
49.7877
-2.74005
50.218
-2.81792
50.6562
-2.89491
51.092
-2.97154
51.5573
-3.04597
-3.1238
51.9532
29.0551
1.96652
-28.8101
29.2956
1.9519
29.5312
1.93516
29.7622
1.91631
29.9889
1.89536
30.2115
1.87232
30.4303
1.84719
30.6456
1.81999
30.8577
1.79073
31.0668
1.75943
31.2733
1.72611
31.4773
1.69078
31.6793
1.65346
31.8794
1.61418
32.078
1.57295
32.2752
1.52981
32.4715
1.48477
32.667
1.43787
32.862
1.38913
33.0567
1.33858
33.2515
1.28624
33.4464
1.23216
33.6419
1.17636
33.8381
1.11887
34.0353
1.05973
34.2336
0.998977
34.4333
0.936638
34.6346
0.872754
34.8377
0.807361
35.0428
0.740498
35.2501
0.672204
35.4599
0.602519
35.6722
0.531484
35.8873
0.459139
36.1053
0.385528
36.3264
0.310693
36.5508
0.234678
36.7787
0.157528
37.0101
0.0792861
37.2453
0
37.4843
-0.0802848
37.7273
-0.161521
37.9745
-0.243662
38.2259
-0.326659
38.4818
-0.410463
38.7421
-0.495026
39.007
-0.580298
39.2766
-0.666228
39.551
-0.752767
39.8303
-0.839863
40.1145
-0.927465
40.4039
-1.01552
40.6983
-1.10398
40.9979
-1.19279
41.3028
-1.2819
41.613
-1.37126
41.9285
-1.46081
42.2495
-1.5505
42.5758
-1.64028
42.9077
-1.73009
43.2451
-1.81988
43.5879
-1.9096
43.9364
-1.99919
44.2904
-2.0886
44.6499
-2.17778
45.015
-2.26668
45.3856
-2.35524
45.7618
-2.4434
46.1435
-2.53112
46.5308
-2.61835
46.9234
-2.70503
47.3216
-2.7911
47.7251
-2.87653
48.1342
-2.96124
48.5478
-3.04524
48.9691
-3.12828
49.3882
-3.21093
49.8354
-3.29124
-3.37512
50.2171
28.5438
2.14176
-28.3225
28.7612
2.12446
28.9744
2.10494
29.1835
2.0832
29.3889
2.05926
29.5908
2.03312
29.7895
2.00479
29.9852
1.97429
30.1782
1.94162
30.3687
1.90682
30.557
1.86988
30.7434
1.83084
30.9281
1.78971
31.1114
1.74651
31.2935
1.70128
31.4747
1.65403
31.6552
1.60479
31.8352
1.55358
32.0151
1.50045
32.195
1.44541
32.3752
1.38849
32.5559
1.32974
32.7373
1.26917
32.9196
1.20684
33.1031
1.14276
33.2879
1.07698
33.4742
1.00954
33.6624
0.940474
33.8524
0.869819
34.0446
0.797617
34.2391
0.723909
34.4361
0.648737
34.6358
0.572145
34.8382
0.494176
35.0437
0.414874
35.2524
0.334286
35.4643
0.252458
35.6797
0.169435
35.8987
0.0852663
36.1214
0
36.348
-0.0863149
36.5785
-0.173629
36.8132
-0.26189
37.0521
-0.35105
37.2953
-0.441056
37.543
-0.531856
37.7952
-0.623397
38.052
-0.715627
38.3136
-0.808491
38.5799
-0.901936
38.8512
-0.995908
39.1274
-1.09035
39.4086
-1.18521
39.6949
-1.28043
39.9864
-1.37596
40.283
-1.47174
40.5849
-1.56771
40.8921
-1.66382
41.2046
-1.76001
41.5224
-1.85623
41.8456
-1.95241
42.1742
-2.04851
42.5082
-2.14446
42.8477
-2.24021
43.1925
-2.3357
43.5428
-2.43088
43.8985
-2.52569
44.2595
-2.62007
44.626
-2.71397
44.9978
-2.80733
45.375
-2.90009
45.7575
-2.99221
46.1452
-3.08362
46.5383
-3.17426
46.9359
-3.26413
47.3409
-3.35299
47.7439
-3.4414
48.1738
-3.52733
-3.61699
48.5416
28.023
2.31506
-27.8234
28.2192
2.29497
28.4117
2.27257
28.6007
2.24786
28.7866
2.22085
28.9694
2.19154
29.1496
2.15996
29.3272
2.1261
29.5026
2.08998
29.676
2.05163
29.8475
2.01106
30.0176
1.96829
30.1864
1.92334
30.3541
1.87624
30.521
1.827
30.6873
1.77566
30.8532
1.72224
31.019
1.66677
31.1848
1.60928
31.3509
1.5498
31.5176
1.48836
31.685
1.42499
31.8532
1.35974
32.0226
1.29263
32.1933
1.22371
32.3655
1.15301
32.5395
1.08056
32.7152
1.00642
32.8931
0.930614
33.0731
0.853194
33.2556
0.774199
33.4407
0.693675
33.6284
0.611666
33.8191
0.528219
34.0127
0.443379
34.2096
0.357195
34.4098
0.269715
34.6134
0.18099
34.8207
0.0910673
35.0316
0
35.2464
-0.0921609
35.4652
-0.185363
35.688
-0.279554
35.915
-0.374679
36.1463
-0.470685
36.382
-0.567516
36.6221
-0.665117
36.8668
-0.763432
37.1162
-0.862406
37.3702
-0.961979
37.6291
-1.0621
37.8928
-1.1627
38.1614
-1.26373
38.4351
-1.36513
38.7137
-1.46684
38.9974
-1.56881
39.2863
-1.67096
39.5803
-1.77326
39.8795
-1.87562
40.184
-1.978
40.4937
-2.08033
40.8086
-2.18256
41.1288
-2.28462
41.4543
-2.38646
41.7851
-2.48802
42.1211
-2.58923
42.4625
-2.69003
42.8091
-2.79038
43.1609
-2.8902
43.518
-2.98944
43.8802
-3.08805
44.2477
-3.18595
44.6202
-3.28311
44.998
-3.37943
45.3801
-3.47494
45.7694
-3.56936
46.157
-3.66329
46.5701
-3.75461
-3.84979
46.9247
27.4947
2.48623
-27.3151
27.6714
2.46328
27.8449
2.43792
28.0155
2.41016
28.1834
2.38001
28.3487
2.34749
28.5118
2.31259
28.6728
2.27534
28.832
2.23575
28.9895
2.19383
29.1457
2.14961
29.3007
2.10311
29.4548
2.05434
29.6081
2.00333
29.7609
1.95011
29.9134
1.89471
30.0658
1.83714
30.2183
1.77744
30.3711
1.71564
30.5245
1.65177
30.6785
1.58587
30.8335
1.51796
30.9896
1.4481
31.1469
1.3763
31.3057
1.30262
31.4662
1.22708
31.6284
1.14974
31.7927
1.07062
31.9591
0.989784
32.1278
0.907266
32.299
0.82311
32.4728
0.737366
32.6494
0.650077
32.8289
0.561294
33.0115
0.471064
33.1973
0.379438
33.3864
0.286467
33.5789
0.192202
33.7751
0.096695
33.9749
0
34.1786
-0.0978292
34.3862
-0.196738
34.5978
-0.29667
34.8136
-0.39757
35.0335
-0.49938
35.2578
-0.602044
35.4865
-0.705503
35.7197
-0.809699
35.9574
-0.914572
36.1998
-1.02006
36.4468
-1.12611
36.6987
-1.23266
36.9553
-1.33964
37.2169
-1.447
37.4833
-1.55467
37.7547
-1.66259
38.0311
-1.7707
38.3126
-1.87894
38.5991
-1.98724
38.8908
-2.09555
39.1875
-2.2038
39.4894
-2.31192
39.7964
-2.41986
40.1085
-2.52755
40.4258
-2.63493
40.7483
-2.74193
41.0759
-2.8485
41.4086
-2.95457
41.7464
-3.06008
42.0893
-3.16497
42.4372
-3.26917
42.7902
-3.37263
43.1481
-3.47529
43.5112
-3.57706
43.8785
-3.67796
44.2527
-3.77771
44.6254
-3.87693
45.0224
-3.97342
-4.07388
45.3641
26.9608
2.65511
-26.7995
27.1196
2.62921
27.2757
2.60083
27.4293
2.56997
27.5807
2.53665
27.7299
2.50086
27.8773
2.46262
28.023
2.42195
28.1672
2.37886
28.3102
2.33337
28.4522
2.2855
28.5933
2.23526
28.7338
2.18269
28.8738
2.1278
29.0136
2.07061
29.1533
2.01117
29.2932
1.94949
29.4334
1.88561
29.5742
1.81955
29.7156
1.75136
29.858
1.68105
30.0014
1.60868
30.1461
1.53427
30.2922
1.45787
30.4399
1.37952
30.5894
1.29924
30.7408
1.2171
30.8942
1.13312
31.0499
1.04737
31.208
0.959867
31.3686
0.870676
31.5319
0.779839
31.698
0.687407
31.867
0.593428
32.0392
0.497953
32.2145
0.401035
32.3932
0.302727
32.5753
0.203082
32.761
0.102154
32.9503
0
33.1435
-0.103325
33.3405
-0.207763
33.5415
-0.313256
33.7466
-0.419746
33.9558
-0.527174
34.1693
-0.635479
34.3871
-0.744601
34.6093
-0.854479
34.836
-0.965051
35.0673
-1.07625
35.3031
-1.18803
35.5436
-1.30031
35.7889
-1.41303
36.0389
-1.52613
36.2937
-1.63954
36.5533
-1.7532
36.8179
-1.86705
37.0873
-1.98102
37.3618
-2.09504
37.6411
-2.20905
37.9255
-2.32298
38.2149
-2.43677
38.5092
-2.55036
38.8086
-2.66367
39.113
-2.77664
39.4224
-2.88921
39.7368
-3.00131
40.0562
-3.11288
40.3805
-3.22385
40.7098
-3.33415
41.044
-3.44373
41.3831
-3.55251
41.727
-3.66044
42.0759
-3.76744
42.429
-3.87351
42.7887
-3.97837
43.1471
-4.08265
43.5286
-4.18409
-4.28958
43.858
26.423
2.82156
-26.2785
26.5654
2.79266
26.7055
2.76121
26.8435
2.72721
26.9797
2.69066
27.1141
2.65159
27.2471
2.60999
27.3787
2.56588
27.5092
2.51929
27.6388
2.47022
27.7676
2.4187
27.8959
2.36474
28.0238
2.30837
28.1516
2.24962
28.2793
2.18851
28.4072
2.12507
28.5355
2.05932
28.6643
1.9913
28.7939
1.92104
28.9243
1.84858
29.0558
1.77394
29.1885
1.69717
29.3226
1.61831
29.4582
1.53738
29.5956
1.45445
29.7348
1.36953
29.876
1.28269
30.0194
1.19396
30.165
1.10339
30.3131
1.01103
30.4638
0.916928
30.6172
0.821128
30.7735
0.723683
30.9327
0.624645
31.095
0.524068
31.2605
0.422004
31.4293
0.31851
31.6015
0.21364
31.7773
0.10745
31.9568
-2.17083e-07
32.14
-0.108653
32.327
-0.21845
32.5179
-0.32933
32.7129
-0.441232
32.912
-0.554095
33.1152
-0.667857
33.3227
-0.782454
33.5345
-0.897823
33.7507
-1.0139
33.9714
-1.13062
34.1966
-1.24792
34.4263
-1.36573
34.6606
-1.48398
34.8997
-1.60262
35.1434
-1.72157
35.3918
-1.84076
35.645
-1.96013
35.903
-2.07961
36.1659
-2.19914
36.4335
-2.31864
36.7061
-2.43804
36.9835
-2.55728
37.2657
-2.6763
37.5529
-2.79501
37.8449
-2.91336
38.1418
-3.03128
38.4436
-3.14869
38.7502
-3.26553
39.0616
-3.38174
39.3779
-3.49724
39.6989
-3.61197
40.0247
-3.72586
40.3551
-3.83885
40.6904
-3.95085
41.0298
-4.06187
41.3756
-4.17162
41.7202
-4.28075
42.0868
-4.38694
-4.49724
42.4043
25.8829
2.98545
-25.7539
26.0102
2.95352
26.1357
2.91896
26.2594
2.88178
26.3816
2.842
26.5025
2.79961
26.6221
2.75464
26.7408
2.7071
26.8586
2.657
26.9759
2.60436
27.0926
2.5492
27.209
2.49154
27.3253
2.4314
27.4417
2.36882
27.5583
2.30381
27.6753
2.23641
27.7928
2.16664
27.9111
2.09454
28.0302
2.02014
28.1504
1.94347
28.2718
1.86457
28.3945
1.78348
28.5187
1.70023
28.6446
1.61488
28.7723
1.52745
28.9019
1.43799
29.0337
1.34655
29.1676
1.25317
29.3039
1.15791
29.4426
1.0608
29.584
0.9619
29.7281
0.86126
29.8751
0.758933
30.025
0.654971
30.1781
0.549429
30.3343
0.442363
30.4939
0.333829
30.6568
0.223884
30.8233
0.112588
30.9933
0
31.1671
-0.11382
31.3447
-0.228809
31.5261
-0.344907
31.7115
-0.462049
31.9009
-0.580172
32.0944
-0.699212
32.2921
-0.819103
32.4941
-0.939779
32.7003
-1.06117
32.9109
-1.18322
33.1259
-1.30585
33.3454
-1.429
33.5694
-1.55259
33.7979
-1.67657
34.031
-1.80085
34.2688
-1.92537
34.5111
-2.05007
34.7582
-2.17486
35.01
-2.29968
35.2665
-2.42446
35.5277
-2.54913
35.7936
-2.67361
36.0643
-2.79785
36.3398
-2.92176
36.62
-3.04527
36.9049
-3.16832
37.1946
-3.29083
37.4889
-3.41274
37.788
-3.53397
38.0917
-3.65446
38.4001
-3.77413
38.7131
-3.89292
39.0306
-4.01076
39.3529
-4.12756
39.6791
-4.24333
40.0114
-4.35777
40.3429
-4.47153
40.6952
-4.58227
-4.69716
41.0012
25.3418
3.14669
-25.227
25.4554
3.11169
25.5674
3.074
25.678
3.03363
25.7874
2.99059
25.8957
2.94489
26.0032
2.89654
26.1099
2.84556
26.2161
2.79196
26.3219
2.73576
26.4275
2.67698
26.533
2.61565
26.6387
2.55178
26.7445
2.4854
26.8508
2.41654
26.9577
2.34522
27.0653
2.27148
27.1737
2.19535
27.2832
2.11687
27.3939
2.03606
27.5058
1.95297
27.6193
1.86763
27.7343
1.78009
27.8511
1.69038
27.9698
1.59855
28.0905
1.50465
28.2133
1.40871
28.3384
1.31079
28.4659
1.21094
28.5959
1.1092
28.7285
1.00562
28.8639
0.900268
29.0022
0.793185
29.1434
0.68443
29.2878
0.574058
29.4353
0.462128
29.5861
0.348697
29.7402
0.233825
29.8979
0.117572
30.0591
0
30.224
-0.118829
30.3926
-0.238851
30.565
-0.360002
30.7413
-0.482218
30.9216
-0.605432
31.1059
-0.729577
31.2943
-0.854587
31.4868
-0.980393
31.6836
-1.10693
31.8846
-1.23412
32.0899
-1.3619
32.2996
-1.4902
32.5137
-1.61894
32.7323
-1.74806
32.9553
-1.87749
33.1828
-2.00715
33.4149
-2.13697
33.6515
-2.26687
33.8927
-2.39679
34.1385
-2.52666
34.3889
-2.65639
34.6439
-2.78592
34.9035
-2.91517
35.1678
-3.04407
35.4366
-3.17255
35.7101
-3.30053
35.9881
-3.42794
36.2708
-3.55471
36.5579
-3.68077
36.8497
-3.80604
37.1459
-3.93046
37.4466
-4.05394
37.7518
-4.17643
38.0615
-4.29783
38.375
-4.41815
38.6945
-4.53707
39.0133
-4.65528
39.3518
-4.77037
-4.88964
39.6467
24.8011
3.3052
-24.6992
24.902
3.26711
25.0016
3.22627
25.1002
3.1827
25.1978
3.1364
25.2947
3.08738
25.3909
3.03566
25.4867
2.98126
25.5822
2.92417
25.6775
2.86444
25.7728
2.80206
25.8683
2.73708
25.964
2.66951
26.0602
2.59937
26.1569
2.5267
26.2544
2.45152
26.3528
2.37387
26.4522
2.29377
26.5527
2.21126
26.6545
2.12639
26.7577
2.03918
26.8625
1.94967
26.969
1.85791
27.0773
1.76394
27.1876
1.66781
27.2999
1.56955
27.4145
1.46922
27.5313
1.36686
27.6505
1.26252
27.7724
1.15626
27.8968
1.04813
28.024
0.938178
28.1541
0.826464
28.2872
0.713044
28.4233
0.597976
28.5626
0.481317
28.7051
0.363128
28.851
0.243471
29.0003
0.122407
29.1532
0
29.3096
-0.123686
29.4698
-0.248586
29.6336
-0.374633
29.8013
-0.501761
29.9729
-0.629902
30.1485
-0.758987
30.328
-0.888947
30.5116
-1.01971
30.6994
-1.15121
30.8913
-1.28337
31.0874
-1.41612
31.2878
-1.54939
31.4925
-1.68311
31.7015
-1.81719
31.9149
-1.95158
32.1327
-2.08619
32.3549
-2.22094
32.5816
-2.35578
32.8127
-2.49061
33.0482
-2.62536
33.2883
-2.75997
33.5328
-2.89435
33.7818
-3.02843
34.0354
-3.16213
34.2934
-3.29537
34.5558
-3.42809
34.8228
-3.56021
35.0941
-3.69165
35.3699
-3.82234
35.6502
-3.9522
35.9347
-4.08117
36.2237
-4.20915
36.5169
-4.3361
36.8146
-4.46191
37.116
-4.58658
37.4231
-4.70981
37.7297
-4.83228
38.055
-4.95154
-5.07499
38.3393
24.2619
3.46089
-24.1719
24.3512
3.4197
24.4395
3.37572
24.527
3.32894
24.6138
3.27939
24.7001
3.22706
24.786
3.17199
24.8717
3.11417
24.9573
3.05363
25.043
2.99038
25.1288
2.92444
25.215
2.85584
25.3016
2.78461
25.3888
2.71076
25.4768
2.63432
25.5656
2.55533
25.6554
2.47382
25.7463
2.38982
25.8386
2.30336
25.9322
2.21448
26.0273
2.12323
26.124
2.02964
26.2226
1.93374
26.323
1.8356
26.4254
1.73524
26.5299
1.63273
26.6367
1.5281
26.7458
1.4214
26.8573
1.31269
26.9715
1.20202
27.0882
1.08945
27.2078
0.975021
27.3302
0.858798
27.4555
0.740838
27.5839
0.6212
27.7154
0.499945
27.8502
0.377134
27.9883
0.25283
28.1298
0.127097
28.2747
0
28.4232
-0.128396
28.5753
-0.258023
28.7311
-0.388813
28.8906
-0.520698
29.054
-0.653607
29.2212
-0.787471
29.3924
-0.922218
29.5675
-1.05778
29.7467
-1.19407
29.9299
-1.33103
30.1173
-1.46859
30.3088
-1.60665
30.5045
-1.74516
30.7045
-1.88404
30.9087
-2.02321
31.1172
-2.16259
31.33
-2.3021
31.5471
-2.44168
31.7685
-2.58124
31.9943
-2.7207
32.2245
-2.86
32.459
-2.99904
32.6979
-3.13776
32.9411
-3.27608
33.1887
-3.41391
33.4407
-3.55118
33.697
-3.68782
33.9576
-3.82375
34.2225
-3.95888
34.4916
-4.09315
34.7651
-4.22648
35.0427
-4.35878
35.3245
-4.49
35.6106
-4.62004
35.9004
-4.74889
36.1956
-4.87624
36.4904
-5.00277
36.803
-5.12604
-5.25348
37.0771
23.7251
3.61373
-23.646
23.8037
3.56944
23.8816
3.5223
23.959
3.47233
24.0359
3.41953
24.1126
3.36392
24.189
3.3055
24.2655
3.2443
24.342
3.18032
24.4187
3.11359
24.4958
3.04412
24.5734
2.97195
24.6516
2.8971
24.7305
2.81958
24.8103
2.73944
24.8911
2.65669
24.973
2.57138
25.0562
2.48353
25.1407
2.39319
25.2267
2.30039
25.3143
2.20516
25.4035
2.10756
25.4946
2.00762
25.5877
1.90538
25.6828
1.8009
25.78
1.69422
25.8795
1.58539
25.9814
1.47446
26.0857
1.36149
26.1926
1.24652
26.3022
1.12961
26.4145
1.01082
26.5297
0.89021
26.6478
0.767833
26.7689
0.643752
26.8932
0.51803
27.0206
0.390728
27.1513
0.261912
27.2853
0.131648
27.4228
-2.16995e-07
27.5638
-0.132962
27.7083
-0.267171
27.8564
-0.402556
28.0082
-0.539047
28.1637
-0.676573
28.3231
-0.815061
28.4863
-0.954438
28.6533
-1.09463
28.8244
-1.23556
28.9994
-1.37716
29.1784
-1.51935
29.3615
-1.66205
29.5486
-1.80519
29.7399
-1.94868
29.9354
-2.09246
30.135
-2.23644
30.3388
-2.38054
30.5468
-2.52469
30.759
-2.6688
30.9755
-2.8128
31.1962
-2.95661
31.4212
-3.10015
31.6503
-3.24333
31.8837
-3.38608
32.1214
-3.52832
32.3633
-3.66997
32.6093
-3.81095
32.8596
-3.95118
33.114
-4.09058
33.3726
-4.22908
33.6353
-4.36659
33.9022
-4.50304
34.173
-4.63836
34.448
-4.77245
34.7265
-4.9053
35.0104
-5.0366
35.2939
-5.16703
35.5944
-5.29413
-5.42538
35.8585
23.1917
3.76366
-23.1225
23.2606
3.71628
23.329
3.666
23.397
3.61285
23.4649
3.55682
23.5326
3.49794
23.6004
3.4362
23.6683
3.37164
23.7364
3.30426
23.805
3.23408
23.874
3.16113
23.9437
3.08543
24.0142
3.007
24.0854
2.92587
24.1577
2.84206
24.2311
2.75562
24.3057
2.66657
24.3816
2.57495
24.4589
2.48079
24.5378
2.38413
24.6184
2.28501
24.7007
2.18348
24.7849
2.07957
24.8711
1.97334
24.9594
1.86482
25.0498
1.75407
25.1425
1.64114
25.2377
1.52608
25.3352
1.40894
25.4354
1.28978
25.5382
1.16865
25.6437
1.04561
25.7521
0.920726
25.8634
0.794051
25.9777
0.66565
26.095
0.535585
26.2155
0.403921
26.3393
0.270724
26.4663
0.136061
26.5967
0
26.7305
-0.13739
26.8678
-0.276039
27.0087
-0.415876
27.1532
-0.556828
27.3013
-0.698822
27.4532
-0.841785
27.6088
-0.98564
27.7682
-1.13031
27.9314
-1.27573
28.0986
-1.42181
28.2697
-1.56847
28.4447
-1.71565
28.6238
-1.86325
28.8068
-2.0112
28.9939
-2.15943
29.185
-2.30784
29.3803
-2.45636
29.5796
-2.60491
29.783
-2.75341
29.9905
-2.90178
30.2022
-3.04993
30.418
-3.19778
30.6379
-3.34526
30.8619
-3.49228
31.09
-3.63875
31.3222
-3.78461
31.5585
-3.92976
31.7989
-4.07413
32.0433
-4.21763
32.2917
-4.36018
32.5442
-4.50172
32.8006
-4.64214