/*--------------------------------*- C++ -*----------------------------------*\
| =========                 |                                                 |
| \\      /  F ield         | OpenFOAM: The Open Source CFD Toolbox           |
|  \\    /   O peration     | Version:  2206                                  |
|   \\  /    A nd           | Website:  www.openfoam.com                      |
|    \\/     M anipulation  |                                                 |
\*---------------------------------------------------------------------------*/
FoamFile
{
    version     2.0;
    format      ascii;
    arch        "LSB;label=32;scalar=64";
    class       volScalarField;
    location    "2.15";
    object      wave;
}
// * * * * * * * * * * * * * * * * * * * * * * * * * * * * * * * * * * * * * //

dimensions      [0 0 0 0 0 0 0];

internalField   nonuniform List<scalar> 
100
(
0.790888
0.684263
0.560448
0.422553
0.274043
0.118648
-0.0397278
-0.197105
-0.349531
-0.493176
-0.624431
-0.74
-0.836977
-0.912928
-0.965944
-0.994694
-0.998454
-0.977132
-0.931261
-0.861995
-0.771074
-0.660782
-0.533889
-0.393584
-0.243392
-0.0870844
0.0714106
0.228112
0.379082
0.520529
0.648899
0.760967
0.853919
0.925417
0.973668
0.997457
0.996188
0.969893
0.919232
0.845478
0.750483
0.636635
0.506793
0.364219
0.212495
0.0554332
-0.103022
-0.258888
-0.408251
-0.547358
-0.672713
-0.781169
-0.87
-0.936975
-0.980411
-0.999216
-0.992919
-0.961678
-0.906278
-0.828109
-0.729137
-0.611847
-0.479186
-0.334487
-0.181385
-0.0237262
0.134529
0.289404
0.437009
0.573635
0.69585
0.800584
0.885206
0.947589
0.986166
0.999969
0.988651
0.952495
0.89241
0.809907
0.707056
0.586443
0.451097
0.304418
0.150092
-0.00800469
-0.1659
-0.319628
-0.465327
-0.599335
-0.718286
-0.819193
-0.89952
-0.957248
-0.990929
-0.999715
-0.983386
-0.942352
-0.877645
-0.790889
)
;

boundaryField
{
    movingWall
    {
        type            calculated;
        value           uniform 0;
    }
    fixedWalls
    {
        type            calculated;
        value           uniform 0;
    }
    frontAndBack
    {
        type            empty;
    }
}


// ************************************************************************* //
