/*--------------------------------*- C++ -*----------------------------------*\
| =========                 |                                                 |
| \\      /  F ield         | OpenFOAM: The Open Source CFD Toolbox           |
|  \\    /   O peration     | Version:  2312                                  |
|   \\  /    A nd           | Website:  www.openfoam.com                      |
|    \\/     M anipulation  |                                                 |
\*---------------------------------------------------------------------------*/
FoamFile
{
    version     2.0;
    format      ascii;
    arch        "LSB;label=32;scalar=64";
    class       volVectorField;
    location    "0.317";
    object      U;
}
// * * * * * * * * * * * * * * * * * * * * * * * * * * * * * * * * * * * * * //

dimensions      [0 1 -1 0 0 0 0];

internalField   nonuniform List<vector> 
31205
(
(284.272 0 0)
(285.334 0 0)
(286.353 0 0)
(287.331 0 0)
(288.269 0 0)
(289.168 0 0)
(290.027 0 0)
(290.848 0 0)
(291.631 0 0)
(292.377 0 0)
(293.085 0 0)
(293.757 0 0)
(294.392 0 0)
(294.99 0 0)
(295.553 0 0)
(296.08 0 0)
(296.572 0 0)
(297.027 0 0)
(297.448 0 0)
(297.833 0 0)
(298.182 0 0)
(298.497 0 0)
(298.775 0 0)
(299.018 0 0)
(299.225 0 0)
(299.396 0 0)
(299.531 0 0)
(299.629 0 0)
(299.691 0 0)
(299.715 0 0)
(299.702 0 0)
(299.651 0 0)
(299.56 0 0)
(299.431 0 0)
(299.262 0 0)
(299.052 0 0)
(298.801 0 0)
(298.508 0 0)
(298.171 0 0)
(297.79 0 0)
(297.364 0 0)
(296.891 0 0)
(296.37 0 0)
(295.799 0 0)
(295.178 0 0)
(294.503 0 0)
(293.773 0 0)
(292.986 0 0)
(292.139 0 0)
(291.23 0 0)
(290.254 0 0)
(289.21 0 0)
(288.093 0 0)
(286.898 0 0)
(285.621 0 0)
(284.256 0 0)
(282.796 0 0)
(281.234 0 0)
(279.559 0 0)
(277.757 0 0)
(275.819 0 0)
(273.757 0 0)
(271.548 0 0)
(268.996 0 0)
(265.905 0 0)
(263.029 0 0)
(262.265 0 0)
(261.642 0 0)
(247.05 0 0)
(205.229 0 0)
(155.329 0 0)
(124.597 0 0)
(112.617 0 0)
(109.132 0 0)
(108.535 0 0)
(108.838 0 0)
(109.483 0 0)
(110.115 0 0)
(111.177 0 0)
(285.237 0 0)
(286.234 0 0)
(287.192 0 0)
(288.112 0 0)
(288.994 0 0)
(289.839 0 0)
(290.647 0 0)
(291.42 0 0)
(292.157 0 0)
(292.858 0 0)
(293.525 0 0)
(294.157 0 0)
(294.754 0 0)
(295.317 0 0)
(295.847 0 0)
(296.342 0 0)
(296.804 0 0)
(297.232 0 0)
(297.626 0 0)
(297.987 0 0)
(298.314 0 0)
(298.607 0 0)
(298.867 0 0)
(299.093 0 0)
(299.284 0 0)
(299.442 0 0)
(299.565 0 0)
(299.653 0 0)
(299.706 0 0)
(299.724 0 0)
(299.705 0 0)
(299.651 0 0)
(299.56 0 0)
(299.431 0 0)
(299.264 0 0)
(299.059 0 0)
(298.815 0 0)
(298.53 0 0)
(298.205 0 0)
(297.837 0 0)
(297.426 0 0)
(296.972 0 0)
(296.471 0 0)
(295.924 0 0)
(295.329 0 0)
(294.684 0 0)
(293.987 0 0)
(293.236 0 0)
(292.429 0 0)
(291.563 0 0)
(290.637 0 0)
(289.646 0 0)
(288.587 0 0)
(287.457 0 0)
(286.251 0 0)
(284.964 0 0)
(283.59 0 0)
(282.123 0 0)
(280.556 0 0)
(278.878 0 0)
(277.074 0 0)
(275.139 0 0)
(273.086 0 0)
(270.878 0 0)
(268.293 0 0)
(265.19 0 0)
(262.529 0 0)
(262.185 0 0)
(261.043 0 0)
(243.514 0 0)
(198.881 0 0)
(150.189 0 0)
(122.201 0 0)
(111.761 0 0)
(108.837 0 0)
(108.396 0 0)
(108.78 0 0)
(109.306 0 0)
(110.289 0 0)
(286.186 0 0)
(287.12 0 0)
(288.019 0 0)
(288.881 0 0)
(289.709 0 0)
(290.502 0 0)
(291.261 0 0)
(291.986 0 0)
(292.677 0 0)
(293.336 0 0)
(293.961 0 0)
(294.554 0 0)
(295.115 0 0)
(295.643 0 0)
(296.14 0 0)
(296.604 0 0)
(297.036 0 0)
(297.436 0 0)
(297.805 0 0)
(298.141 0 0)
(298.446 0 0)
(298.719 0 0)
(298.959 0 0)
(299.167 0 0)
(299.343 0 0)
(299.487 0 0)
(299.597 0 0)
(299.675 0 0)
(299.719 0 0)
(299.729 0 0)
(299.705 0 0)
(299.647 0 0)
(299.553 0 0)
(299.424 0 0)
(299.259 0 0)
(299.058 0 0)
(298.818 0 0)
(298.541 0 0)
(298.225 0 0)
(297.869 0 0)
(297.472 0 0)
(297.033 0 0)
(296.551 0 0)
(296.025 0 0)
(295.454 0 0)
(294.835 0 0)
(294.167 0 0)
(293.449 0 0)
(292.678 0 0)
(291.852 0 0)
(290.97 0 0)
(290.027 0 0)
(289.021 0 0)
(287.949 0 0)
(286.806 0 0)
(285.59 0 0)
(284.293 0 0)
(282.912 0 0)
(281.439 0 0)
(279.867 0 0)
(278.186 0 0)
(276.38 0 0)
(274.448 0 0)
(272.405 0 0)
(270.195 0 0)
(267.575 0 0)
(264.476 0 0)
(262.063 0 0)
(262.094 0 0)
(260.156 0 0)
(239.423 0 0)
(192.353 0 0)
(145.334 0 0)
(120.047 0 0)
(111.007 0 0)
(108.558 0 0)
(108.299 0 0)
(108.605 0 0)
(109.47 0 0)
(287.094 0 0)
(287.969 0 0)
(288.81 0 0)
(289.619 0 0)
(290.395 0 0)
(291.138 0 0)
(291.85 0 0)
(292.53 0 0)
(293.178 0 0)
(293.796 0 0)
(294.382 0 0)
(294.938 0 0)
(295.463 0 0)
(295.958 0 0)
(296.423 0 0)
(296.857 0 0)
(297.261 0 0)
(297.634 0 0)
(297.978 0 0)
(298.291 0 0)
(298.574 0 0)
(298.826 0 0)
(299.048 0 0)
(299.24 0 0)
(299.4 0 0)
(299.53 0 0)
(299.628 0 0)
(299.695 0 0)
(299.729 0 0)
(299.732 0 0)
(299.703 0 0)
(299.64 0 0)
(299.544 0 0)
(299.414 0 0)
(299.25 0 0)
(299.051 0 0)
(298.816 0 0)
(298.545 0 0)
(298.237 0 0)
(297.891 0 0)
(297.507 0 0)
(297.082 0 0)
(296.617 0 0)
(296.11 0 0)
(295.56 0 0)
(294.965 0 0)
(294.324 0 0)
(293.636 0 0)
(292.898 0 0)
(292.109 0 0)
(291.266 0 0)
(290.367 0 0)
(289.409 0 0)
(288.39 0 0)
(287.305 0 0)
(286.152 0 0)
(284.926 0 0)
(283.621 0 0)
(282.233 0 0)
(280.755 0 0)
(279.18 0 0)
(277.496 0 0)
(275.69 0 0)
(273.764 0 0)
(271.73 0 0)
(269.515 0 0)
(266.858 0 0)
(263.784 0 0)
(261.661 0 0)
(262.023 0 0)
(259.002 0 0)
(234.856 0 0)
(185.795 0 0)
(140.836 0 0)
(118.148 0 0)
(110.34 0 0)
(108.348 0 0)
(108.106 0 0)
(108.755 0 0)
(287.95 0 0)
(288.77 0 0)
(289.558 0 0)
(290.316 0 0)
(291.043 0 0)
(291.74 0 0)
(292.407 0 0)
(293.045 0 0)
(293.653 0 0)
(294.232 0 0)
(294.781 0 0)
(295.302 0 0)
(295.793 0 0)
(296.256 0 0)
(296.691 0 0)
(297.096 0 0)
(297.473 0 0)
(297.822 0 0)
(298.141 0 0)
(298.432 0 0)
(298.694 0 0)
(298.928 0 0)
(299.132 0 0)
(299.307 0 0)
(299.453 0 0)
(299.569 0 0)
(299.656 0 0)
(299.712 0 0)
(299.738 0 0)
(299.734 0 0)
(299.698 0 0)
(299.632 0 0)
(299.533 0 0)
(299.402 0 0)
(299.239 0 0)
(299.042 0 0)
(298.811 0 0)
(298.546 0 0)
(298.245 0 0)
(297.909 0 0)
(297.536 0 0)
(297.125 0 0)
(296.675 0 0)
(296.186 0 0)
(295.656 0 0)
(295.084 0 0)
(294.468 0 0)
(293.807 0 0)
(293.1 0 0)
(292.344 0 0)
(291.539 0 0)
(290.68 0 0)
(289.767 0 0)
(288.797 0 0)
(287.766 0 0)
(286.671 0 0)
(285.508 0 0)
(284.274 0 0)
(282.963 0 0)
(281.571 0 0)
(280.09 0 0)
(278.513 0 0)
(276.83 0 0)
(275.026 0 0)
(273.107 0 0)
(271.086 0 0)
(268.865 0 0)
(266.178 0 0)
(263.15 0 0)
(261.333 0 0)
(261.951 0 0)
(257.679 0 0)
(230.286 0 0)
(179.836 0 0)
(137.037 0 0)
(116.591 0 0)
(109.828 0 0)
(108.071 0 0)
(108.212 0 0)
(288.752 0 0)
(289.521 0 0)
(290.26 0 0)
(290.97 0 0)
(291.652 0 0)
(292.305 0 0)
(292.931 0 0)
(293.528 0 0)
(294.098 0 0)
(294.641 0 0)
(295.155 0 0)
(295.643 0 0)
(296.103 0 0)
(296.536 0 0)
(296.942 0 0)
(297.321 0 0)
(297.673 0 0)
(297.997 0 0)
(298.294 0 0)
(298.564 0 0)
(298.807 0 0)
(299.022 0 0)
(299.21 0 0)
(299.369 0 0)
(299.501 0 0)
(299.605 0 0)
(299.68 0 0)
(299.727 0 0)
(299.745 0 0)
(299.734 0 0)
(299.693 0 0)
(299.622 0 0)
(299.521 0 0)
(299.39 0 0)
(299.227 0 0)
(299.032 0 0)
(298.805 0 0)
(298.545 0 0)
(298.252 0 0)
(297.925 0 0)
(297.562 0 0)
(297.164 0 0)
(296.729 0 0)
(296.257 0 0)
(295.745 0 0)
(295.194 0 0)
(294.602 0 0)
(293.968 0 0)
(293.289 0 0)
(292.565 0 0)
(291.794 0 0)
(290.974 0 0)
(290.103 0 0)
(289.177 0 0)
(288.196 0 0)
(287.155 0 0)
(286.052 0 0)
(284.883 0 0)
(283.644 0 0)
(282.329 0 0)
(280.934 0 0)
(279.453 0 0)
(277.878 0 0)
(276.198 0 0)
(274.4 0 0)
(272.493 0 0)
(270.485 0 0)
(268.263 0 0)
(265.555 0 0)
(262.59 0 0)
(261.069 0 0)
(261.861 0 0)
(256.329 0 0)
(226.13 0 0)
(174.847 0 0)
(134.024 0 0)
(115.418 0 0)
(109.337 0 0)
(108.075 0 0)
(289.503 0 0)
(290.223 0 0)
(290.916 0 0)
(291.582 0 0)
(292.222 0 0)
(292.834 0 0)
(293.421 0 0)
(293.981 0 0)
(294.515 0 0)
(295.023 0 0)
(295.506 0 0)
(295.962 0 0)
(296.393 0 0)
(296.798 0 0)
(297.177 0 0)
(297.531 0 0)
(297.858 0 0)
(298.16 0 0)
(298.437 0 0)
(298.687 0 0)
(298.911 0 0)
(299.109 0 0)
(299.281 0 0)
(299.426 0 0)
(299.545 0 0)
(299.637 0 0)
(299.702 0 0)
(299.74 0 0)
(299.75 0 0)
(299.732 0 0)
(299.687 0 0)
(299.612 0 0)
(299.509 0 0)
(299.377 0 0)
(299.214 0 0)
(299.022 0 0)
(298.799 0 0)
(298.544 0 0)
(298.258 0 0)
(297.939 0 0)
(297.587 0 0)
(297.201 0 0)
(296.78 0 0)
(296.323 0 0)
(295.83 0 0)
(295.299 0 0)
(294.729 0 0)
(294.12 0 0)
(293.469 0 0)
(292.775 0 0)
(292.036 0 0)
(291.252 0 0)
(290.419 0 0)
(289.537 0 0)
(288.602 0 0)
(287.612 0 0)
(286.564 0 0)
(285.455 0 0)
(284.282 0 0)
(283.04 0 0)
(281.724 0 0)
(280.33 0 0)
(278.851 0 0)
(277.281 0 0)
(275.606 0 0)
(273.817 0 0)
(271.925 0 0)
(269.935 0 0)
(267.716 0 0)
(265 0 0)
(262.108 0 0)
(260.849 0 0)
(261.755 0 0)
(255.106 0 0)
(222.699 0 0)
(170.973 0 0)
(131.814 0 0)
(114.478 0 0)
(109.102 0 0)
(290.205 0 0)
(290.88 0 0)
(291.53 0 0)
(292.155 0 0)
(292.754 0 0)
(293.329 0 0)
(293.879 0 0)
(294.404 0 0)
(294.904 0 0)
(295.381 0 0)
(295.832 0 0)
(296.26 0 0)
(296.663 0 0)
(297.041 0 0)
(297.395 0 0)
(297.725 0 0)
(298.031 0 0)
(298.312 0 0)
(298.568 0 0)
(298.8 0 0)
(299.007 0 0)
(299.189 0 0)
(299.346 0 0)
(299.478 0 0)
(299.585 0 0)
(299.666 0 0)
(299.721 0 0)
(299.75 0 0)
(299.753 0 0)
(299.73 0 0)
(299.679 0 0)
(299.602 0 0)
(299.497 0 0)
(299.364 0 0)
(299.202 0 0)
(299.012 0 0)
(298.793 0 0)
(298.543 0 0)
(298.264 0 0)
(297.953 0 0)
(297.611 0 0)
(297.236 0 0)
(296.829 0 0)
(296.388 0 0)
(295.911 0 0)
(295.4 0 0)
(294.851 0 0)
(294.265 0 0)
(293.639 0 0)
(292.974 0 0)
(292.266 0 0)
(291.516 0 0)
(290.72 0 0)
(289.877 0 0)
(288.986 0 0)
(288.044 0 0)
(287.047 0 0)
(285.995 0 0)
(284.882 0 0)
(283.707 0 0)
(282.464 0 0)
(281.15 0 0)
(279.759 0 0)
(278.285 0 0)
(276.722 0 0)
(275.057 0 0)
(273.281 0 0)
(271.407 0 0)
(269.437 0 0)
(267.229 0 0)
(264.518 0 0)
(261.699 0 0)
(260.655 0 0)
(261.64 0 0)
(254.156 0 0)
(220.191 0 0)
(168.296 0 0)
(130.266 0 0)
(113.691 0 0)
(290.861 0 0)
(291.494 0 0)
(292.104 0 0)
(292.689 0 0)
(293.252 0 0)
(293.791 0 0)
(294.306 0 0)
(294.799 0 0)
(295.268 0 0)
(295.714 0 0)
(296.137 0 0)
(296.537 0 0)
(296.914 0 0)
(297.268 0 0)
(297.599 0 0)
(297.906 0 0)
(298.191 0 0)
(298.452 0 0)
(298.69 0 0)
(298.904 0 0)
(299.095 0 0)
(299.262 0 0)
(299.405 0 0)
(299.525 0 0)
(299.62 0 0)
(299.691 0 0)
(299.737 0 0)
(299.758 0 0)
(299.755 0 0)
(299.726 0 0)
(299.671 0 0)
(299.591 0 0)
(299.484 0 0)
(299.35 0 0)
(299.19 0 0)
(299.002 0 0)
(298.786 0 0)
(298.542 0 0)
(298.269 0 0)
(297.966 0 0)
(297.634 0 0)
(297.271 0 0)
(296.876 0 0)
(296.449 0 0)
(295.989 0 0)
(295.496 0 0)
(294.967 0 0)
(294.403 0 0)
(293.802 0 0)
(293.163 0 0)
(292.485 0 0)
(291.766 0 0)
(291.005 0 0)
(290.201 0 0)
(289.35 0 0)
(288.452 0 0)
(287.504 0 0)
(286.504 0 0)
(285.448 0 0)
(284.335 0 0)
(283.159 0 0)
(281.919 0 0)
(280.608 0 0)
(279.223 0 0)
(277.758 0 0)
(276.205 0 0)
(274.552 0 0)
(272.792 0 0)
(270.938 0 0)
(268.992 0 0)
(266.803 0 0)
(264.111 0 0)
(261.357 0 0)
(260.468 0 0)
(261.533 0 0)
(253.579 0 0)
(218.762 0 0)
(166.874 0 0)
(128.293 0 0)
(291.474 0 0)
(292.068 0 0)
(292.64 0 0)
(293.189 0 0)
(293.717 0 0)
(294.222 0 0)
(294.706 0 0)
(295.167 0 0)
(295.607 0 0)
(296.025 0 0)
(296.421 0 0)
(296.795 0 0)
(297.148 0 0)
(297.479 0 0)
(297.787 0 0)
(298.074 0 0)
(298.339 0 0)
(298.581 0 0)
(298.802 0 0)
(299 0 0)
(299.175 0 0)
(299.329 0 0)
(299.459 0 0)
(299.566 0 0)
(299.651 0 0)
(299.712 0 0)
(299.75 0 0)
(299.764 0 0)
(299.754 0 0)
(299.721 0 0)
(299.662 0 0)
(299.579 0 0)
(299.471 0 0)
(299.337 0 0)
(299.178 0 0)
(298.992 0 0)
(298.78 0 0)
(298.541 0 0)
(298.274 0 0)
(297.979 0 0)
(297.656 0 0)
(297.303 0 0)
(296.921 0 0)
(296.508 0 0)
(296.064 0 0)
(295.587 0 0)
(295.078 0 0)
(294.535 0 0)
(293.958 0 0)
(293.344 0 0)
(292.694 0 0)
(292.005 0 0)
(291.277 0 0)
(290.507 0 0)
(289.695 0 0)
(288.839 0 0)
(287.936 0 0)
(286.984 0 0)
(285.982 0 0)
(284.926 0 0)
(283.813 0 0)
(282.641 0 0)
(281.404 0 0)
(280.1 0 0)
(278.723 0 0)
(277.269 0 0)
(275.729 0 0)
(274.092 0 0)
(272.351 0 0)
(270.52 0 0)
(268.602 0 0)
(266.441 0 0)
(263.779 0 0)
(261.075 0 0)
(260.277 0 0)
(261.444 0 0)
(253.375 0 0)
(219.089 0 0)
(162.419 0 0)
(292.048 0 0)
(292.605 0 0)
(293.141 0 0)
(293.657 0 0)
(294.151 0 0)
(294.625 0 0)
(295.079 0 0)
(295.511 0 0)
(295.924 0 0)
(296.315 0 0)
(296.686 0 0)
(297.036 0 0)
(297.366 0 0)
(297.675 0 0)
(297.962 0 0)
(298.23 0 0)
(298.476 0 0)
(298.701 0 0)
(298.905 0 0)
(299.088 0 0)
(299.249 0 0)
(299.389 0 0)
(299.507 0 0)
(299.604 0 0)
(299.678 0 0)
(299.731 0 0)
(299.761 0 0)
(299.768 0 0)
(299.753 0 0)
(299.714 0 0)
(299.652 0 0)
(299.567 0 0)
(299.458 0 0)
(299.324 0 0)
(299.166 0 0)
(298.983 0 0)
(298.774 0 0)
(298.54 0 0)
(298.279 0 0)
(297.992 0 0)
(297.677 0 0)
(297.335 0 0)
(296.964 0 0)
(296.565 0 0)
(296.135 0 0)
(295.676 0 0)
(295.185 0 0)
(294.662 0 0)
(294.106 0 0)
(293.517 0 0)
(292.893 0 0)
(292.232 0 0)
(291.535 0 0)
(290.799 0 0)
(290.023 0 0)
(289.206 0 0)
(288.345 0 0)
(287.439 0 0)
(286.486 0 0)
(285.483 0 0)
(284.429 0 0)
(283.319 0 0)
(282.151 0 0)
(280.922 0 0)
(279.626 0 0)
(278.26 0 0)
(276.818 0 0)
(275.294 0 0)
(273.675 0 0)
(271.956 0 0)
(270.151 0 0)
(268.263 0 0)
(266.14 0 0)
(263.523 0 0)
(260.843 0 0)
(260.132 0 0)
(260.992 0 0)
(255.748 0 0)
(210.004 0 0)
(292.584 0 0)
(293.107 0 0)
(293.61 0 0)
(294.093 0 0)
(294.557 0 0)
(295.002 0 0)
(295.427 0 0)
(295.833 0 0)
(296.219 0 0)
(296.586 0 0)
(296.933 0 0)
(297.26 0 0)
(297.568 0 0)
(297.857 0 0)
(298.125 0 0)
(298.374 0 0)
(298.603 0 0)
(298.811 0 0)
(299 0 0)
(299.169 0 0)
(299.317 0 0)
(299.444 0 0)
(299.551 0 0)
(299.637 0 0)
(299.703 0 0)
(299.747 0 0)
(299.769 0 0)
(299.77 0 0)
(299.75 0 0)
(299.707 0 0)
(299.642 0 0)
(299.555 0 0)
(299.444 0 0)
(299.311 0 0)
(299.154 0 0)
(298.973 0 0)
(298.768 0 0)
(298.538 0 0)
(298.284 0 0)
(298.004 0 0)
(297.698 0 0)
(297.365 0 0)
(297.006 0 0)
(296.619 0 0)
(296.204 0 0)
(295.76 0 0)
(295.287 0 0)
(294.783 0 0)
(294.248 0 0)
(293.682 0 0)
(293.082 0 0)
(292.449 0 0)
(291.781 0 0)
(291.076 0 0)
(290.334 0 0)
(289.553 0 0)
(288.732 0 0)
(287.869 0 0)
(286.962 0 0)
(286.01 0 0)
(285.009 0 0)
(283.957 0 0)
(282.853 0 0)
(281.692 0 0)
(280.47 0 0)
(279.185 0 0)
(277.832 0 0)
(276.406 0 0)
(274.9 0 0)
(273.303 0 0)
(271.608 0 0)
(269.832 0 0)
(267.976 0 0)
(265.907 0 0)
(263.305 0 0)
(260.854 0 0)
(259.062 0 0)
(264.521 0 0)
(243.904 0 0)
(293.085 0 0)
(293.576 0 0)
(294.048 0 0)
(294.502 0 0)
(294.937 0 0)
(295.354 0 0)
(295.752 0 0)
(296.133 0 0)
(296.494 0 0)
(296.838 0 0)
(297.163 0 0)
(297.469 0 0)
(297.757 0 0)
(298.026 0 0)
(298.276 0 0)
(298.507 0 0)
(298.72 0 0)
(298.913 0 0)
(299.087 0 0)
(299.242 0 0)
(299.378 0 0)
(299.494 0 0)
(299.59 0 0)
(299.667 0 0)
(299.723 0 0)
(299.76 0 0)
(299.776 0 0)
(299.771 0 0)
(299.746 0 0)
(299.699 0 0)
(299.631 0 0)
(299.542 0 0)
(299.431 0 0)
(299.297 0 0)
(299.142 0 0)
(298.963 0 0)
(298.762 0 0)
(298.537 0 0)
(298.288 0 0)
(298.015 0 0)
(297.717 0 0)
(297.394 0 0)
(297.046 0 0)
(296.671 0 0)
(296.27 0 0)
(295.841 0 0)
(295.384 0 0)
(294.899 0 0)
(294.384 0 0)
(293.839 0 0)
(293.263 0 0)
(292.655 0 0)
(292.014 0 0)
(291.34 0 0)
(290.63 0 0)
(289.884 0 0)
(289.1 0 0)
(288.277 0 0)
(287.413 0 0)
(286.507 0 0)
(285.556 0 0)
(284.559 0 0)
(283.512 0 0)
(282.414 0 0)
(281.262 0 0)
(280.051 0 0)
(278.779 0 0)
(277.441 0 0)
(276.032 0 0)
(274.547 0 0)
(272.974 0 0)
(271.307 0 0)
(269.556 0 0)
(267.757 0 0)
(265.651 0 0)
(263.507 0 0)
(259.602 0 0)
(262.328 0 0)
(256.311 0 0)
(293.554 0 0)
(294.015 0 0)
(294.458 0 0)
(294.883 0 0)
(295.292 0 0)
(295.683 0 0)
(296.056 0 0)
(296.413 0 0)
(296.751 0 0)
(297.073 0 0)
(297.377 0 0)
(297.663 0 0)
(297.932 0 0)
(298.183 0 0)
(298.416 0 0)
(298.631 0 0)
(298.828 0 0)
(299.007 0 0)
(299.168 0 0)
(299.31 0 0)
(299.434 0 0)
(299.539 0 0)
(299.626 0 0)
(299.693 0 0)
(299.741 0 0)
(299.771 0 0)
(299.78 0 0)
(299.77 0 0)
(299.74 0 0)
(299.69 0 0)
(299.62 0 0)
(299.529 0 0)
(299.417 0 0)
(299.284 0 0)
(299.13 0 0)
(298.954 0 0)
(298.756 0 0)
(298.535 0 0)
(298.292 0 0)
(298.026 0 0)
(297.736 0 0)
(297.422 0 0)
(297.084 0 0)
(296.721 0 0)
(296.333 0 0)
(295.918 0 0)
(295.477 0 0)
(295.009 0 0)
(294.513 0 0)
(293.989 0 0)
(293.435 0 0)
(292.852 0 0)
(292.237 0 0)
(291.59 0 0)
(290.911 0 0)
(290.197 0 0)
(289.448 0 0)
(288.663 0 0)
(287.839 0 0)
(286.977 0 0)
(286.073 0 0)
(285.126 0 0)
(284.133 0 0)
(283.094 0 0)
(282.005 0 0)
(280.862 0 0)
(279.664 0 0)
(278.407 0 0)
(277.086 0 0)
(275.697 0 0)
(274.234 0 0)
(272.69 0 0)
(271.044 0 0)
(269.36 0 0)
(267.464 0 0)
(265.868 0 0)
(262.538 0 0)
(261.531 0 0)
(259.161 0 0)
(293.993 0 0)
(294.425 0 0)
(294.84 0 0)
(295.24 0 0)
(295.623 0 0)
(295.989 0 0)
(296.34 0 0)
(296.674 0 0)
(296.991 0 0)
(297.292 0 0)
(297.576 0 0)
(297.844 0 0)
(298.094 0 0)
(298.328 0 0)
(298.545 0 0)
(298.745 0 0)
(298.928 0 0)
(299.093 0 0)
(299.241 0 0)
(299.372 0 0)
(299.485 0 0)
(299.58 0 0)
(299.657 0 0)
(299.716 0 0)
(299.757 0 0)
(299.779 0 0)
(299.783 0 0)
(299.768 0 0)
(299.734 0 0)
(299.681 0 0)
(299.608 0 0)
(299.515 0 0)
(299.403 0 0)
(299.271 0 0)
(299.118 0 0)
(298.944 0 0)
(298.75 0 0)
(298.534 0 0)
(298.296 0 0)
(298.036 0 0)
(297.754 0 0)
(297.449 0 0)
(297.121 0 0)
(296.769 0 0)
(296.393 0 0)
(295.993 0 0)
(295.567 0 0)
(295.115 0 0)
(294.637 0 0)
(294.132 0 0)
(293.6 0 0)
(293.039 0 0)
(292.449 0 0)
(291.829 0 0)
(291.178 0 0)
(290.495 0 0)
(289.779 0 0)
(289.029 0 0)
(288.243 0 0)
(287.421 0 0)
(286.561 0 0)
(285.661 0 0)
(284.719 0 0)
(283.734 0 0)
(282.702 0 0)
(281.623 0 0)
(280.493 0 0)
(279.31 0 0)
(278.068 0 0)
(276.766 0 0)
(275.398 0 0)
(273.964 0 0)
(272.435 0 0)
(270.865 0 0)
(269.084 0 0)
(267.561 0 0)
(265.325 0 0)
(263.259 0 0)
(260.744 0 0)
(294.403 0 0)
(294.808 0 0)
(295.198 0 0)
(295.573 0 0)
(295.932 0 0)
(296.276 0 0)
(296.604 0 0)
(296.917 0 0)
(297.214 0 0)
(297.496 0 0)
(297.762 0 0)
(298.011 0 0)
(298.245 0 0)
(298.463 0 0)
(298.665 0 0)
(298.85 0 0)
(299.02 0 0)
(299.172 0 0)
(299.309 0 0)
(299.428 0 0)
(299.531 0 0)
(299.616 0 0)
(299.685 0 0)
(299.736 0 0)
(299.769 0 0)
(299.786 0 0)
(299.784 0 0)
(299.764 0 0)
(299.726 0 0)
(299.67 0 0)
(299.596 0 0)
(299.502 0 0)
(299.389 0 0)
(299.258 0 0)
(299.106 0 0)
(298.935 0 0)
(298.744 0 0)
(298.532 0 0)
(298.3 0 0)
(298.046 0 0)
(297.772 0 0)
(297.475 0 0)
(297.156 0 0)
(296.815 0 0)
(296.451 0 0)
(296.064 0 0)
(295.652 0 0)
(295.217 0 0)
(294.756 0 0)
(294.269 0 0)
(293.757 0 0)
(293.218 0 0)
(292.651 0 0)
(292.056 0 0)
(291.432 0 0)
(290.778 0 0)
(290.093 0 0)
(289.376 0 0)
(288.626 0 0)
(287.842 0 0)
(287.022 0 0)
(286.166 0 0)
(285.271 0 0)
(284.336 0 0)
(283.359 0 0)
(282.338 0 0)
(281.271 0 0)
(280.154 0 0)
(278.986 0 0)
(277.764 0 0)
(276.481 0 0)
(275.141 0 0)
(273.72 0 0)
(272.258 0 0)
(270.638 0 0)
(269.058 0 0)
(267.306 0 0)
(265.523 0 0)
(262.828 0 0)
(294.786 0 0)
(295.167 0 0)
(295.533 0 0)
(295.884 0 0)
(296.221 0 0)
(296.543 0 0)
(296.851 0 0)
(297.144 0 0)
(297.422 0 0)
(297.686 0 0)
(297.934 0 0)
(298.167 0 0)
(298.385 0 0)
(298.588 0 0)
(298.776 0 0)
(298.948 0 0)
(299.104 0 0)
(299.245 0 0)
(299.37 0 0)
(299.479 0 0)
(299.572 0 0)
(299.649 0 0)
(299.709 0 0)
(299.753 0 0)
(299.78 0 0)
(299.79 0 0)
(299.783 0 0)
(299.76 0 0)
(299.718 0 0)
(299.66 0 0)
(299.583 0 0)
(299.488 0 0)
(299.376 0 0)
(299.244 0 0)
(299.095 0 0)
(298.926 0 0)
(298.738 0 0)
(298.53 0 0)
(298.303 0 0)
(298.056 0 0)
(297.788 0 0)
(297.5 0 0)
(297.191 0 0)
(296.86 0 0)
(296.507 0 0)
(296.132 0 0)
(295.734 0 0)
(295.314 0 0)
(294.869 0 0)
(294.4 0 0)
(293.907 0 0)
(293.388 0 0)
(292.844 0 0)
(292.272 0 0)
(291.674 0 0)
(291.047 0 0)
(290.391 0 0)
(289.705 0 0)
(288.989 0 0)
(288.241 0 0)
(287.459 0 0)
(286.644 0 0)
(285.792 0 0)
(284.904 0 0)
(283.977 0 0)
(283.01 0 0)
(282.001 0 0)
(280.947 0 0)
(279.845 0 0)
(278.695 0 0)
(277.491 0 0)
(276.234 0 0)
(274.91 0 0)
(273.538 0 0)
(272.071 0 0)
(270.548 0 0)
(268.905 0 0)
(267.426 0 0)
(264.96 0 0)
(295.145 0 0)
(295.502 0 0)
(295.845 0 0)
(296.175 0 0)
(296.491 0 0)
(296.793 0 0)
(297.081 0 0)
(297.356 0 0)
(297.616 0 0)
(297.862 0 0)
(298.094 0 0)
(298.312 0 0)
(298.515 0 0)
(298.704 0 0)
(298.878 0 0)
(299.037 0 0)
(299.182 0 0)
(299.311 0 0)
(299.426 0 0)
(299.525 0 0)
(299.609 0 0)
(299.677 0 0)
(299.73 0 0)
(299.767 0 0)
(299.788 0 0)
(299.793 0 0)
(299.782 0 0)
(299.754 0 0)
(299.709 0 0)
(299.648 0 0)
(299.57 0 0)
(299.475 0 0)
(299.362 0 0)
(299.231 0 0)
(299.083 0 0)
(298.917 0 0)
(298.732 0 0)
(298.529 0 0)
(298.306 0 0)
(298.065 0 0)
(297.804 0 0)
(297.524 0 0)
(297.223 0 0)
(296.902 0 0)
(296.56 0 0)
(296.198 0 0)
(295.813 0 0)
(295.406 0 0)
(294.978 0 0)
(294.526 0 0)
(294.05 0 0)
(293.551 0 0)
(293.027 0 0)
(292.479 0 0)
(291.904 0 0)
(291.303 0 0)
(290.675 0 0)
(290.018 0 0)
(289.333 0 0)
(288.619 0 0)
(287.873 0 0)
(287.096 0 0)
(286.285 0 0)
(285.441 0 0)
(284.56 0 0)
(283.643 0 0)
(282.687 0 0)
(281.69 0 0)
(280.651 0 0)
(279.567 0 0)
(278.434 0 0)
(277.254 0 0)
(276.016 0 0)
(274.727 0 0)
(273.37 0 0)
(271.965 0 0)
(270.405 0 0)
(269.045 0 0)
(266.844 0 0)
(295.48 0 0)
(295.815 0 0)
(296.137 0 0)
(296.446 0 0)
(296.743 0 0)
(297.026 0 0)
(297.296 0 0)
(297.553 0 0)
(297.796 0 0)
(298.027 0 0)
(298.243 0 0)
(298.446 0 0)
(298.635 0 0)
(298.811 0 0)
(298.972 0 0)
(299.12 0 0)
(299.253 0 0)
(299.372 0 0)
(299.477 0 0)
(299.567 0 0)
(299.642 0 0)
(299.703 0 0)
(299.749 0 0)
(299.779 0 0)
(299.794 0 0)
(299.794 0 0)
(299.779 0 0)
(299.747 0 0)
(299.7 0 0)
(299.636 0 0)
(299.557 0 0)
(299.461 0 0)
(299.348 0 0)
(299.218 0 0)
(299.072 0 0)
(298.908 0 0)
(298.726 0 0)
(298.527 0 0)
(298.31 0 0)
(298.074 0 0)
(297.82 0 0)
(297.547 0 0)
(297.255 0 0)
(296.943 0 0)
(296.612 0 0)
(296.26 0 0)
(295.888 0 0)
(295.496 0 0)
(295.081 0 0)
(294.645 0 0)
(294.187 0 0)
(293.707 0 0)
(293.203 0 0)
(292.675 0 0)
(292.123 0 0)
(291.547 0 0)
(290.944 0 0)
(290.316 0 0)
(289.66 0 0)
(288.977 0 0)
(288.265 0 0)
(287.523 0 0)
(286.751 0 0)
(285.947 0 0)
(285.11 0 0)
(284.239 0 0)
(283.333 0 0)
(282.389 0 0)
(281.406 0 0)
(280.383 0 0)
(279.316 0 0)
(278.205 0 0)
(277.045 0 0)
(275.836 0 0)
(274.567 0 0)
(273.266 0 0)
(271.818 0 0)
(270.537 0 0)
(268.524 0 0)
(295.793 0 0)
(296.108 0 0)
(296.41 0 0)
(296.7 0 0)
(296.978 0 0)
(297.243 0 0)
(297.496 0 0)
(297.736 0 0)
(297.964 0 0)
(298.179 0 0)
(298.381 0 0)
(298.571 0 0)
(298.747 0 0)
(298.91 0 0)
(299.059 0 0)
(299.196 0 0)
(299.319 0 0)
(299.428 0 0)
(299.523 0 0)
(299.605 0 0)
(299.672 0 0)
(299.725 0 0)
(299.764 0 0)
(299.789 0 0)
(299.799 0 0)
(299.794 0 0)
(299.774 0 0)
(299.74 0 0)
(299.69 0 0)
(299.624 0 0)
(299.543 0 0)
(299.447 0 0)
(299.334 0 0)
(299.205 0 0)
(299.06 0 0)
(298.899 0 0)
(298.72 0 0)
(298.525 0 0)
(298.313 0 0)
(298.082 0 0)
(297.835 0 0)
(297.569 0 0)
(297.285 0 0)
(296.983 0 0)
(296.661 0 0)
(296.321 0 0)
(295.961 0 0)
(295.581 0 0)
(295.181 0 0)
(294.76 0 0)
(294.318 0 0)
(293.855 0 0)
(293.37 0 0)
(292.863 0 0)
(292.333 0 0)
(291.779 0 0)
(291.201 0 0)
(290.599 0 0)
(289.971 0 0)
(289.317 0 0)
(288.637 0 0)
(287.929 0 0)
(287.192 0 0)
(286.426 0 0)
(285.63 0 0)
(284.802 0 0)
(283.941 0 0)
(283.047 0 0)
(282.116 0 0)
(281.149 0 0)
(280.143 0 0)
(279.095 0 0)
(278.005 0 0)
(276.871 0 0)
(275.681 0 0)
(274.465 0 0)
(273.123 0 0)
(271.926 0 0)
(270.067 0 0)
(296.086 0 0)
(296.381 0 0)
(296.665 0 0)
(296.937 0 0)
(297.197 0 0)
(297.445 0 0)
(297.682 0 0)
(297.907 0 0)
(298.12 0 0)
(298.321 0 0)
(298.51 0 0)
(298.686 0 0)
(298.85 0 0)
(299.001 0 0)
(299.14 0 0)
(299.265 0 0)
(299.378 0 0)
(299.478 0 0)
(299.565 0 0)
(299.638 0 0)
(299.698 0 0)
(299.745 0 0)
(299.778 0 0)
(299.797 0 0)
(299.802 0 0)
(299.792 0 0)
(299.769 0 0)
(299.731 0 0)
(299.679 0 0)
(299.612 0 0)
(299.53 0 0)
(299.433 0 0)
(299.32 0 0)
(299.193 0 0)
(299.049 0 0)
(298.89 0 0)
(298.715 0 0)
(298.523 0 0)
(298.315 0 0)
(298.091 0 0)
(297.849 0 0)
(297.59 0 0)
(297.314 0 0)
(297.02 0 0)
(296.709 0 0)
(296.379 0 0)
(296.03 0 0)
(295.663 0 0)
(295.276 0 0)
(294.87 0 0)
(294.444 0 0)
(293.997 0 0)
(293.53 0 0)
(293.042 0 0)
(292.532 0 0)
(292 0 0)
(291.446 0 0)
(290.868 0 0)
(290.266 0 0)
(289.641 0 0)
(288.99 0 0)
(288.313 0 0)
(287.61 0 0)
(286.88 0 0)
(286.121 0 0)
(285.334 0 0)
(284.516 0 0)
(283.666 0 0)
(282.785 0 0)
(281.869 0 0)
(280.918 0 0)
(279.93 0 0)
(278.902 0 0)
(277.836 0 0)
(276.72 0 0)
(275.58 0 0)
(274.328 0 0)
(273.212 0 0)
(271.491 0 0)
(296.36 0 0)
(296.637 0 0)
(296.902 0 0)
(297.157 0 0)
(297.401 0 0)
(297.634 0 0)
(297.856 0 0)
(298.066 0 0)
(298.265 0 0)
(298.453 0 0)
(298.628 0 0)
(298.792 0 0)
(298.945 0 0)
(299.085 0 0)
(299.213 0 0)
(299.329 0 0)
(299.433 0 0)
(299.524 0 0)
(299.602 0 0)
(299.668 0 0)
(299.721 0 0)
(299.762 0 0)
(299.789 0 0)
(299.802 0 0)
(299.803 0 0)
(299.79 0 0)
(299.763 0 0)
(299.722 0 0)
(299.668 0 0)
(299.599 0 0)
(299.516 0 0)
(299.419 0 0)
(299.307 0 0)
(299.18 0 0)
(299.038 0 0)
(298.881 0 0)
(298.709 0 0)
(298.521 0 0)
(298.318 0 0)
(298.098 0 0)
(297.863 0 0)
(297.611 0 0)
(297.342 0 0)
(297.057 0 0)
(296.754 0 0)
(296.434 0 0)
(296.097 0 0)
(295.741 0 0)
(295.367 0 0)
(294.975 0 0)
(294.564 0 0)
(294.133 0 0)
(293.683 0 0)
(293.213 0 0)
(292.722 0 0)
(292.211 0 0)
(291.678 0 0)
(291.124 0 0)
(290.547 0 0)
(289.948 0 0)
(289.325 0 0)
(288.678 0 0)
(288.006 0 0)
(287.309 0 0)
(286.586 0 0)
(285.836 0 0)
(285.058 0 0)
(284.251 0 0)
(283.414 0 0)
(282.546 0 0)
(281.646 0 0)
(280.712 0 0)
(279.743 0 0)
(278.739 0 0)
(277.689 0 0)
(276.619 0 0)
(275.448 0 0)
(274.402 0 0)
(272.806 0 0)
(296.615 0 0)
(296.875 0 0)
(297.124 0 0)
(297.363 0 0)
(297.592 0 0)
(297.81 0 0)
(298.017 0 0)
(298.214 0 0)
(298.4 0 0)
(298.575 0 0)
(298.739 0 0)
(298.891 0 0)
(299.032 0 0)
(299.162 0 0)
(299.281 0 0)
(299.387 0 0)
(299.482 0 0)
(299.565 0 0)
(299.636 0 0)
(299.695 0 0)
(299.742 0 0)
(299.776 0 0)
(299.798 0 0)
(299.806 0 0)
(299.803 0 0)
(299.786 0 0)
(299.756 0 0)
(299.713 0 0)
(299.656 0 0)
(299.586 0 0)
(299.502 0 0)
(299.405 0 0)
(299.293 0 0)
(299.168 0 0)
(299.027 0 0)
(298.873 0 0)
(298.704 0 0)
(298.52 0 0)
(298.32 0 0)
(298.106 0 0)
(297.876 0 0)
(297.631 0 0)
(297.369 0 0)
(297.092 0 0)
(296.798 0 0)
(296.488 0 0)
(296.16 0 0)
(295.816 0 0)
(295.455 0 0)
(295.075 0 0)
(294.678 0 0)
(294.263 0 0)
(293.829 0 0)
(293.376 0 0)
(292.904 0 0)
(292.412 0 0)
(291.9 0 0)
(291.368 0 0)
(290.815 0 0)
(290.24 0 0)
(289.643 0 0)
(289.024 0 0)
(288.382 0 0)
(287.716 0 0)
(287.026 0 0)
(286.311 0 0)
(285.57 0 0)
(284.802 0 0)
(284.007 0 0)
(283.184 0 0)
(282.331 0 0)
(281.447 0 0)
(280.531 0 0)
(279.584 0 0)
(278.596 0 0)
(277.589 0 0)
(276.491 0 0)
(275.509 0 0)
(274.024 0 0)
(296.854 0 0)
(297.098 0 0)
(297.331 0 0)
(297.555 0 0)
(297.769 0 0)
(297.974 0 0)
(298.168 0 0)
(298.351 0 0)
(298.525 0 0)
(298.688 0 0)
(298.84 0 0)
(298.982 0 0)
(299.113 0 0)
(299.233 0 0)
(299.343 0 0)
(299.441 0 0)
(299.527 0 0)
(299.603 0 0)
(299.667 0 0)
(299.719 0 0)
(299.759 0 0)
(299.788 0 0)
(299.804 0 0)
(299.809 0 0)
(299.801 0 0)
(299.781 0 0)
(299.748 0 0)
(299.703 0 0)
(299.644 0 0)
(299.573 0 0)
(299.489 0 0)
(299.391 0 0)
(299.28 0 0)
(299.155 0 0)
(299.017 0 0)
(298.865 0 0)
(298.698 0 0)
(298.518 0 0)
(298.323 0 0)
(298.113 0 0)
(297.889 0 0)
(297.65 0 0)
(297.395 0 0)
(297.125 0 0)
(296.84 0 0)
(296.539 0 0)
(296.222 0 0)
(295.888 0 0)
(295.538 0 0)
(295.172 0 0)
(294.788 0 0)
(294.387 0 0)
(293.968 0 0)
(293.532 0 0)
(293.077 0 0)
(292.604 0 0)
(292.112 0 0)
(291.6 0 0)
(291.069 0 0)
(290.518 0 0)
(289.946 0 0)
(289.353 0 0)
(288.739 0 0)
(288.102 0 0)
(287.443 0 0)
(286.761 0 0)
(286.055 0 0)
(285.324 0 0)
(284.568 0 0)
(283.785 0 0)
(282.976 0 0)
(282.139 0 0)
(281.272 0 0)
(280.377 0 0)
(279.445 0 0)
(278.496 0 0)
(277.465 0 0)
(276.541 0 0)
(275.156 0 0)
(297.077 0 0)
(297.305 0 0)
(297.524 0 0)
(297.734 0 0)
(297.935 0 0)
(298.126 0 0)
(298.307 0 0)
(298.479 0 0)
(298.641 0 0)
(298.793 0 0)
(298.935 0 0)
(299.066 0 0)
(299.188 0 0)
(299.299 0 0)
(299.399 0 0)
(299.489 0 0)
(299.568 0 0)
(299.636 0 0)
(299.694 0 0)
(299.74 0 0)
(299.774 0 0)
(299.798 0 0)
(299.81 0 0)
(299.81 0 0)
(299.798 0 0)
(299.775 0 0)
(299.739 0 0)
(299.692 0 0)
(299.632 0 0)
(299.56 0 0)
(299.475 0 0)
(299.377 0 0)
(299.266 0 0)
(299.143 0 0)
(299.006 0 0)
(298.856 0 0)
(298.693 0 0)
(298.516 0 0)
(298.325 0 0)
(298.12 0 0)
(297.901 0 0)
(297.668 0 0)
(297.42 0 0)
(297.158 0 0)
(296.881 0 0)
(296.588 0 0)
(296.281 0 0)
(295.958 0 0)
(295.619 0 0)
(295.264 0 0)
(294.893 0 0)
(294.506 0 0)
(294.102 0 0)
(293.681 0 0)
(293.243 0 0)
(292.787 0 0)
(292.313 0 0)
(291.822 0 0)
(291.311 0 0)
(290.782 0 0)
(290.234 0 0)
(289.666 0 0)
(289.077 0 0)
(288.468 0 0)
(287.838 0 0)
(287.187 0 0)
(286.513 0 0)
(285.817 0 0)
(285.097 0 0)
(284.353 0 0)
(283.584 0 0)
(282.79 0 0)
(281.969 0 0)
(281.121 0 0)
(280.241 0 0)
(279.346 0 0)
(278.375 0 0)
(277.505 0 0)
(276.209 0 0)
(297.285 0 0)
(297.499 0 0)
(297.705 0 0)
(297.901 0 0)
(298.089 0 0)
(298.267 0 0)
(298.437 0 0)
(298.597 0 0)
(298.748 0 0)
(298.89 0 0)
(299.022 0 0)
(299.144 0 0)
(299.256 0 0)
(299.359 0 0)
(299.451 0 0)
(299.533 0 0)
(299.605 0 0)
(299.667 0 0)
(299.717 0 0)
(299.758 0 0)
(299.787 0 0)
(299.806 0 0)
(299.813 0 0)
(299.81 0 0)
(299.795 0 0)
(299.768 0 0)
(299.73 0 0)
(299.681 0 0)
(299.619 0 0)
(299.546 0 0)
(299.461 0 0)
(299.363 0 0)
(299.253 0 0)
(299.131 0 0)
(298.996 0 0)
(298.848 0 0)
(298.688 0 0)
(298.514 0 0)
(298.327 0 0)
(298.127 0 0)
(297.913 0 0)
(297.686 0 0)
(297.444 0 0)
(297.189 0 0)
(296.919 0 0)
(296.636 0 0)
(296.337 0 0)
(296.024 0 0)
(295.696 0 0)
(295.353 0 0)
(294.994 0 0)
(294.62 0 0)
(294.23 0 0)
(293.823 0 0)
(293.401 0 0)
(292.962 0 0)
(292.506 0 0)
(292.033 0 0)
(291.542 0 0)
(291.034 0 0)
(290.508 0 0)
(289.963 0 0)
(289.399 0 0)
(288.816 0 0)
(288.214 0 0)
(287.591 0 0)
(286.948 0 0)
(286.283 0 0)
(285.597 0 0)
(284.889 0 0)
(284.158 0 0)
(283.404 0 0)
(282.625 0 0)
(281.822 0 0)
(280.989 0 0)
(280.143 0 0)
(279.228 0 0)
(278.406 0 0)
(277.193 0 0)
(297.479 0 0)
(297.68 0 0)
(297.872 0 0)
(298.056 0 0)
(298.232 0 0)
(298.399 0 0)
(298.558 0 0)
(298.707 0 0)
(298.848 0 0)
(298.98 0 0)
(299.102 0 0)
(299.215 0 0)
(299.319 0 0)
(299.414 0 0)
(299.498 0 0)
(299.573 0 0)
(299.638 0 0)
(299.693 0 0)
(299.739 0 0)
(299.773 0 0)
(299.798 0 0)
(299.812 0 0)
(299.815 0 0)
(299.808 0 0)
(299.79 0 0)
(299.761 0 0)
(299.721 0 0)
(299.669 0 0)
(299.607 0 0)
(299.533 0 0)
(299.447 0 0)
(299.349 0 0)
(299.24 0 0)
(299.119 0 0)
(298.986 0 0)
(298.84 0 0)
(298.682 0 0)
(298.512 0 0)
(298.329 0 0)
(298.133 0 0)
(297.924 0 0)