/*--------------------------------*- C++ -*----------------------------------*\
| =========                 |                                                 |
| \\      /  F ield         | OpenFOAM: The Open Source CFD Toolbox           |
|  \\    /   O peration     | Version:  2312                                  |
|   \\  /    A nd           | Website:  www.openfoam.com                      |
|    \\/     M anipulation  |                                                 |
\*---------------------------------------------------------------------------*/
FoamFile
{
    version     2.0;
    format      ascii;
    arch        "LSB;label=32;scalar=64";
    class       volScalarField;
    location    "2.3";
    object      wave;
}
// * * * * * * * * * * * * * * * * * * * * * * * * * * * * * * * * * * * * * //

dimensions      [0 0 0 0 0 0 0];

internalField   nonuniform List<scalar> 
100
(
0.690557
0.567604
0.430392
0.282367
0.127248
-0.031067
-0.188602
-0.341399
-0.485619
-0.617639
-0.734143
-0.832203
-0.909357
-0.963666
-0.993765
-0.998899
-0.978938
-0.934384
-0.866356
-0.776563
-0.667262
-0.541197
-0.401536
-0.251788
-0.0957144
0.0627639
0.219665
0.371048
0.51311
0.642281
0.755316
0.849377
0.922099
0.971655
0.996802
0.996907
0.971967
0.92261
0.850074
0.756183
0.643294
0.514245
0.372276
0.220956
0.064084
-0.0943976
-0.250508
-0.400325
-0.540084
-0.666276
-0.775729
-0.865695
-0.933912
-0.978667
-0.998836
-0.993912
-0.964018
-0.909907
-0.832936
-0.73504
-0.618679
-0.486775
-0.342642
-0.189901
-0.0323891
0.125936
0.281098
0.429198
0.566515
0.6896
0.795361
0.881141
0.944784
0.984693
0.999863
0.989915
0.955098
0.896287
0.814959
0.713158
0.59344
0.458814
0.312662
0.158655
0.000661515
-0.157348
-0.311405
-0.457638
-0.592375
-0.71223
-0.814192
-0.8957
-0.954706
-0.989727
-0.999884
-0.984922
-0.945217
-0.881766
-0.796162
-0.690558
)
;

boundaryField
{
    movingWall
    {
        type            calculated;
        value           uniform 0;
    }
    fixedWalls
    {
        type            calculated;
        value           uniform 0;
    }
    frontAndBack
    {
        type            empty;
    }
}


// ************************************************************************* //
