/*--------------------------------*- C++ -*----------------------------------*\
| =========                 |                                                 |
| \\      /  F ield         | OpenFOAM: The Open Source CFD Toolbox           |
|  \\    /   O peration     | Version:  2312                                  |
|   \\  /    A nd           | Website:  www.openfoam.com                      |
|    \\/     M anipulation  |                                                 |
\*---------------------------------------------------------------------------*/
FoamFile
{
    version     2.0;
    format      ascii;
    arch        "LSB;label=32;scalar=64";
    class       volVectorField;
    location    "0.565";
    object      U;
}
// * * * * * * * * * * * * * * * * * * * * * * * * * * * * * * * * * * * * * //

dimensions      [0 1 -1 0 0 0 0];

internalField   nonuniform List<vector> 
31205
(
(289.206 0 0)
(288.265 0 0)
(287.28 0 0)
(286.251 0 0)
(285.177 0 0)
(284.057 0 0)
(282.889 0 0)
(281.672 0 0)
(280.405 0 0)
(279.086 0 0)
(277.714 0 0)
(276.286 0 0)
(274.8 0 0)
(273.255 0 0)
(271.647 0 0)
(269.975 0 0)
(268.234 0 0)
(266.422 0 0)
(264.535 0 0)
(262.569 0 0)
(260.519 0 0)
(258.38 0 0)
(256.145 0 0)
(253.809 0 0)
(251.363 0 0)
(248.799 0 0)
(246.105 0 0)
(243.269 0 0)
(240.277 0 0)
(237.11 0 0)
(233.746 0 0)
(230.158 0 0)
(226.311 0 0)
(222.156 0 0)
(217.627 0 0)
(212.645 0 0)
(207.106 0 0)
(200.756 0 0)
(192.849 0 0)
(182.01 0 0)
(167.253 0 0)
(149.904 0 0)
(133.525 0 0)
(121.063 0 0)
(113.032 0 0)
(108.391 0 0)
(105.904 0 0)
(104.692 0 0)
(104.228 0 0)
(104.218 0 0)
(104.495 0 0)
(104.963 0 0)
(105.565 0 0)
(106.264 0 0)
(107.037 0 0)
(107.866 0 0)
(108.739 0 0)
(109.649 0 0)
(110.587 0 0)
(111.55 0 0)
(112.532 0 0)
(113.531 0 0)
(114.543 0 0)
(115.568 0 0)
(116.602 0 0)
(117.645 0 0)
(118.694 0 0)
(119.749 0 0)
(120.81 0 0)
(121.874 0 0)
(122.942 0 0)
(124.012 0 0)
(125.085 0 0)
(126.157 0 0)
(127.237 0 0)
(128.3 0 0)
(129.416 0 0)
(130.374 0 0)
(131.817 0 0)
(288.204 0 0)
(287.247 0 0)
(286.249 0 0)
(285.209 0 0)
(284.124 0 0)
(282.995 0 0)
(281.821 0 0)
(280.599 0 0)
(279.328 0 0)
(278.007 0 0)
(276.634 0 0)
(275.208 0 0)
(273.726 0 0)
(272.186 0 0)
(270.586 0 0)
(268.923 0 0)
(267.193 0 0)
(265.395 0 0)
(263.524 0 0)
(261.576 0 0)
(259.547 0 0)
(257.431 0 0)
(255.223 0 0)
(252.917 0 0)
(250.504 0 0)
(247.976 0 0)
(245.323 0 0)
(242.532 0 0)
(239.591 0 0)
(236.48 0 0)
(233.18 0 0)
(229.664 0 0)
(225.899 0 0)
(221.84 0 0)
(217.424 0 0)
(212.574 0 0)
(207.195 0 0)
(201.072 0 0)
(193.569 0 0)
(183.409 0 0)
(169.448 0 0)
(152.537 0 0)
(135.945 0 0)
(122.851 0 0)
(114.167 0 0)
(109.036 0 0)
(106.226 0 0)
(104.803 0 0)
(104.196 0 0)
(104.08 0 0)
(104.275 0 0)
(104.674 0 0)
(105.216 0 0)
(105.86 0 0)
(106.582 0 0)
(107.363 0 0)
(108.19 0 0)
(109.056 0 0)
(109.951 0 0)
(110.872 0 0)
(111.814 0 0)
(112.773 0 0)
(113.747 0 0)
(114.733 0 0)
(115.729 0 0)
(116.735 0 0)
(117.747 0 0)
(118.766 0 0)
(119.791 0 0)
(120.82 0 0)
(121.852 0 0)
(122.888 0 0)
(123.926 0 0)
(124.965 0 0)
(126.01 0 0)
(127.041 0 0)
(128.121 0 0)
(129.051 0 0)
(130.446 0 0)
(287.133 0 0)
(286.162 0 0)
(285.15 0 0)
(284.098 0 0)
(283.004 0 0)
(281.866 0 0)
(280.684 0 0)
(279.456 0 0)
(278.182 0 0)
(276.858 0 0)
(275.485 0 0)
(274.059 0 0)
(272.58 0 0)
(271.044 0 0)
(269.45 0 0)
(267.794 0 0)
(266.075 0 0)
(264.288 0 0)
(262.431 0 0)
(260.499 0 0)
(258.488 0 0)
(256.393 0 0)
(254.208 0 0)
(251.928 0 0)
(249.544 0 0)
(247.048 0 0)
(244.431 0 0)
(241.681 0 0)
(238.783 0 0)
(235.723 0 0)
(232.478 0 0)
(229.025 0 0)
(225.331 0 0)
(221.354 0 0)
(217.034 0 0)
(212.297 0 0)
(207.052 0 0)
(201.111 0 0)
(193.916 0 0)
(184.286 0 0)
(171.008 0 0)
(154.574 0 0)
(137.946 0 0)
(124.413 0 0)
(115.203 0 0)
(109.651 0 0)
(106.551 0 0)
(104.935 0 0)
(104.194 0 0)
(103.979 0 0)
(104.095 0 0)
(104.429 0 0)
(104.912 0 0)
(105.504 0 0)
(106.176 0 0)
(106.91 0 0)
(107.693 0 0)
(108.515 0 0)
(109.369 0 0)
(110.249 0 0)
(111.151 0 0)
(112.071 0 0)
(113.007 0 0)
(113.955 0 0)
(114.915 0 0)
(115.884 0 0)
(116.86 0 0)
(117.844 0 0)
(118.833 0 0)
(119.827 0 0)
(120.825 0 0)
(121.827 0 0)
(122.831 0 0)
(123.837 0 0)
(124.849 0 0)
(125.847 0 0)
(126.893 0 0)
(127.796 0 0)
(129.142 0 0)
(286.024 0 0)
(285.039 0 0)
(284.016 0 0)
(282.953 0 0)
(281.849 0 0)
(280.704 0 0)
(279.515 0 0)
(278.283 0 0)
(277.004 0 0)
(275.679 0 0)
(274.305 0 0)
(272.88 0 0)
(271.403 0 0)
(269.872 0 0)
(268.283 0 0)
(266.635 0 0)
(264.925 0 0)
(263.15 0 0)
(261.305 0 0)
(259.388 0 0)
(257.394 0 0)
(255.319 0 0)
(253.156 0 0)
(250.9 0 0)
(248.543 0 0)
(246.077 0 0)
(243.494 0 0)
(240.78 0 0)
(237.924 0 0)
(234.91 0 0)
(231.716 0 0)
(228.321 0 0)
(224.692 0 0)
(220.788 0 0)
(216.555 0 0)
(211.919 0 0)
(206.794 0 0)
(201.009 0 0)
(194.067 0 0)
(184.877 0 0)
(172.196 0 0)
(156.242 0 0)
(139.679 0 0)
(125.825 0 0)
(116.174 0 0)
(110.247 0 0)
(106.88 0 0)
(105.082 0 0)
(104.214 0 0)
(103.906 0 0)
(103.947 0 0)
(104.217 0 0)
(104.644 0 0)
(105.184 0 0)
(105.809 0 0)
(106.498 0 0)
(107.237 0 0)
(108.018 0 0)
(108.831 0 0)
(109.672 0 0)
(110.535 0 0)
(111.417 0 0)
(112.315 0 0)
(113.227 0 0)
(114.15 0 0)
(115.083 0 0)
(116.025 0 0)
(116.973 0 0)
(117.928 0 0)
(118.888 0 0)
(119.853 0 0)
(120.821 0 0)
(121.792 0 0)
(122.765 0 0)
(123.744 0 0)
(124.711 0 0)
(125.724 0 0)
(126.599 0 0)
(127.901 0 0)
(284.892 0 0)
(283.895 0 0)
(282.861 0 0)
(281.789 0 0)
(280.677 0 0)
(279.525 0 0)
(278.332 0 0)
(277.095 0 0)
(275.815 0 0)
(274.488 0 0)
(273.114 0 0)
(271.692 0 0)
(270.218 0 0)
(268.691 0 0)
(267.109 0 0)
(265.469 0 0)
(263.768 0 0)
(262.004 0 0)
(260.173 0 0)
(258.271 0 0)
(256.294 0 0)
(254.238 0 0)
(252.097 0 0)
(249.865 0 0)
(247.534 0 0)
(245.098 0 0)
(242.547 0 0)
(239.87 0 0)
(237.054 0 0)
(234.083 0 0)
(230.94 0 0)
(227.599 0 0)
(224.032 0 0)
(220.2 0 0)
(216.049 0 0)
(211.51 0 0)
(206.497 0 0)
(200.857 0 0)
(194.143 0 0)
(185.349 0 0)
(173.224 0 0)
(157.758 0 0)
(141.318 0 0)
(127.208 0 0)
(117.151 0 0)
(110.86 0 0)
(107.229 0 0)
(105.251 0 0)
(104.257 0 0)
(103.855 0 0)
(103.822 0 0)
(104.029 0 0)
(104.401 0 0)
(104.891 0 0)
(105.469 0 0)
(106.114 0 0)
(106.811 0 0)
(107.55 0 0)
(108.324 0 0)
(109.126 0 0)
(109.951 0 0)
(110.796 0 0)
(111.658 0 0)
(112.534 0 0)
(113.421 0 0)
(114.32 0 0)
(115.227 0 0)
(116.141 0 0)
(117.063 0 0)
(117.989 0 0)
(118.921 0 0)
(119.856 0 0)
(120.795 0 0)
(121.736 0 0)
(122.683 0 0)
(123.619 0 0)
(124.599 0 0)
(125.447 0 0)
(126.706 0 0)
(283.744 0 0)
(282.737 0 0)
(281.694 0 0)
(280.614 0 0)
(279.496 0 0)
(278.339 0 0)
(277.142 0 0)
(275.903 0 0)
(274.621 0 0)
(273.294 0 0)
(271.922 0 0)
(270.502 0 0)
(269.032 0 0)
(267.511 0 0)
(265.936 0 0)
(264.305 0 0)
(262.615 0 0)
(260.863 0 0)
(259.045 0 0)
(257.159 0 0)
(255.2 0 0)
(253.163 0 0)
(251.044 0 0)
(248.835 0 0)
(246.532 0 0)
(244.125 0 0)
(241.607 0 0)
(238.965 0 0)
(236.189 0 0)
(233.262 0 0)
(230.167 0 0)
(226.881 0 0)
(223.376 0 0)
(219.613 0 0)
(215.542 0 0)
(211.097 0 0)
(206.194 0 0)
(200.692 0 0)
(194.194 0 0)
(185.769 0 0)
(174.182 0 0)
(159.218 0 0)
(142.949 0 0)
(128.622 0 0)
(118.172 0 0)
(111.515 0 0)
(107.613 0 0)
(105.447 0 0)
(104.323 0 0)
(103.826 0 0)
(103.717 0 0)
(103.862 0 0)
(104.18 0 0)
(104.62 0 0)
(105.152 0 0)
(105.753 0 0)
(106.408 0 0)
(107.107 0 0)
(107.842 0 0)
(108.606 0 0)
(109.394 0 0)
(110.202 0 0)
(111.028 0 0)
(111.869 0 0)
(112.722 0 0)
(113.586 0 0)
(114.46 0 0)
(115.341 0 0)
(116.229 0 0)
(117.123 0 0)
(118.023 0 0)
(118.926 0 0)
(119.834 0 0)
(120.743 0 0)
(121.659 0 0)
(122.564 0 0)
(123.512 0 0)
(124.334 0 0)
(125.551 0 0)
(282.584 0 0)
(281.568 0 0)
(280.518 0 0)
(279.432 0 0)
(278.309 0 0)
(277.148 0 0)
(275.948 0 0)
(274.708 0 0)
(273.426 0 0)
(272.101 0 0)
(270.731 0 0)
(269.315 0 0)
(267.851 0 0)
(266.336 0 0)
(264.769 0 0)
(263.147 0 0)
(261.468 0 0)
(259.729 0 0)
(257.926 0 0)
(256.056 0 0)
(254.115 0 0)
(252.098 0 0)
(250.001 0 0)
(247.817 0 0)
(245.541 0 0)
(243.164 0 0)
(240.677 0 0)
(238.072 0 0)
(235.335 0 0)
(232.452 0 0)
(229.405 0 0)
(226.173 0 0)
(222.728 0 0)
(219.035 0 0)
(215.043 0 0)
(210.69 0 0)
(205.896 0 0)
(200.529 0 0)
(194.235 0 0)
(186.162 0 0)
(175.099 0 0)
(160.655 0 0)
(144.601 0 0)
(130.094 0 0)
(119.26 0 0)
(112.226 0 0)
(108.039 0 0)
(105.677 0 0)
(104.416 0 0)
(103.82 0 0)
(103.635 0 0)
(103.716 0 0)
(103.979 0 0)
(104.369 0 0)
(104.855 0 0)
(105.413 0 0)
(106.027 0 0)
(106.687 0 0)
(107.383 0 0)
(108.109 0 0)
(108.861 0 0)
(109.634 0 0)
(110.425 0 0)
(111.231 0 0)
(112.05 0 0)
(112.881 0 0)
(113.721 0 0)
(114.57 0 0)
(115.426 0 0)
(116.288 0 0)
(117.156 0 0)
(118.028 0 0)
(118.904 0 0)
(119.783 0 0)
(120.668 0 0)
(121.543 0 0)
(122.46 0 0)
(123.255 0 0)
(124.432 0 0)
(281.413 0 0)
(280.391 0 0)
(279.335 0 0)
(278.244 0 0)
(277.118 0 0)
(275.955 0 0)
(274.754 0 0)
(273.513 0 0)
(272.232 0 0)
(270.909 0 0)
(269.543 0 0)
(268.132 0 0)
(266.674 0 0)
(265.167 0 0)
(263.609 0 0)
(261.997 0 0)
(260.33 0 0)
(258.604 0 0)
(256.816 0 0)
(254.963 0 0)
(253.04 0 0)
(251.044 0 0)
(248.969 0 0)
(246.811 0 0)
(244.561 0 0)
(242.214 0 0)
(239.761 0 0)
(237.191 0 0)
(234.494 0 0)
(231.655 0 0)
(228.656 0 0)
(225.478 0 0)
(222.093 0 0)
(218.467 0 0)
(214.554 0 0)
(210.292 0 0)
(205.605 0 0)
(200.37 0 0)
(194.272 0 0)
(186.535 0 0)
(175.984 0 0)
(162.076 0 0)
(146.282 0 0)
(131.633 0 0)
(120.423 0 0)
(113.001 0 0)
(108.514 0 0)
(105.942 0 0)
(104.538 0 0)
(103.838 0 0)
(103.574 0 0)
(103.591 0 0)
(103.798 0 0)
(104.139 0 0)
(104.579 0 0)
(105.094 0 0)
(105.668 0 0)
(106.288 0 0)
(106.946 0 0)
(107.636 0 0)
(108.352 0 0)
(109.09 0 0)
(109.846 0 0)
(110.619 0 0)
(111.405 0 0)
(112.202 0 0)
(113.01 0 0)
(113.827 0 0)
(114.651 0 0)
(115.482 0 0)
(116.319 0 0)
(117.16 0 0)
(118.006 0 0)
(118.854 0 0)
(119.71 0 0)
(120.555 0 0)
(121.441 0 0)
(122.211 0 0)
(123.349 0 0)
(280.234 0 0)
(279.206 0 0)
(278.146 0 0)
(277.053 0 0)
(275.924 0 0)
(274.76 0 0)
(273.558 0 0)
(272.319 0 0)
(271.04 0 0)
(269.721 0 0)
(268.359 0 0)
(266.954 0 0)
(265.503 0 0)
(264.004 0 0)
(262.455 0 0)
(260.855 0 0)
(259.2 0 0)
(257.488 0 0)
(255.716 0 0)
(253.88 0 0)
(251.977 0 0)
(250.002 0 0)
(247.95 0 0)
(245.816 0 0)
(243.595 0 0)
(241.278 0 0)
(238.857 0 0)
(236.324 0 0)
(233.666 0 0)
(230.87 0 0)
(227.919 0 0)
(224.794 0 0)
(221.469 0 0)
(217.911 0 0)
(214.076 0 0)
(209.903 0 0)
(205.321 0 0)
(200.216 0 0)
(194.305 0 0)
(186.888 0 0)
(176.835 0 0)
(163.476 0 0)
(147.987 0 0)
(133.239 0 0)
(121.665 0 0)
(113.844 0 0)
(109.04 0 0)
(106.248 0 0)
(104.691 0 0)
(103.883 0 0)
(103.537 0 0)
(103.487 0 0)
(103.638 0 0)
(103.929 0 0)
(104.324 0 0)
(104.796 0 0)
(105.329 0 0)
(105.911 0 0)
(106.532 0 0)
(107.185 0 0)
(107.866 0 0)
(108.569 0 0)
(109.292 0 0)
(110.031 0 0)
(110.784 0 0)
(111.55 0 0)
(112.326 0 0)
(113.111 0 0)
(113.904 0 0)
(114.705 0 0)
(115.511 0 0)
(116.322 0 0)
(117.138 0 0)
(117.957 0 0)
(118.783 0 0)
(119.6 0 0)
(120.456 0 0)
(121.2 0 0)
(122.3 0 0)
(279.048 0 0)
(278.017 0 0)
(276.954 0 0)
(275.858 0 0)
(274.728 0 0)
(273.564 0 0)
(272.364 0 0)
(271.126 0 0)
(269.851 0 0)
(268.536 0 0)
(267.18 0 0)
(265.781 0 0)
(264.338 0 0)
(262.848 0 0)
(261.31 0 0)
(259.722 0 0)
(258.08 0 0)
(256.383 0 0)
(254.627 0 0)
(252.808 0 0)
(250.925 0 0)
(248.971 0 0)
(246.942 0 0)
(244.834 0 0)
(242.64 0 0)
(240.354 0 0)
(237.966 0 0)
(235.469 0 0)
(232.85 0 0)
(230.098 0 0)
(227.195 0 0)
(224.123 0 0)
(220.857 0 0)
(217.366 0 0)
(213.607 0 0)
(209.523 0 0)
(205.045 0 0)
(200.066 0 0)
(194.335 0 0)
(187.221 0 0)
(177.65 0 0)
(164.85 0 0)
(149.71 0 0)
(134.908 0 0)
(122.987 0 0)
(114.76 0 0)
(109.623 0 0)
(106.595 0 0)
(104.876 0 0)
(103.954 0 0)
(103.522 0 0)
(103.405 0 0)
(103.499 0 0)
(103.74 0 0)
(104.088 0 0)
(104.518 0 0)
(105.012 0 0)
(105.555 0 0)
(106.139 0 0)
(106.757 0 0)
(107.403 0 0)
(108.072 0 0)
(108.762 0 0)
(109.468 0 0)
(110.189 0 0)
(110.923 0 0)
(111.668 0 0)
(112.422 0 0)
(113.185 0 0)
(113.955 0 0)
(114.732 0 0)
(115.513 0 0)
(116.3 0 0)
(117.09 0 0)
(117.887 0 0)
(118.676 0 0)
(119.503 0 0)
(120.223 0 0)
(121.284 0 0)
(277.857 0 0)
(276.823 0 0)
(275.758 0 0)
(274.661 0 0)
(273.532 0 0)
(272.369 0 0)
(271.17 0 0)
(269.936 0 0)
(268.665 0 0)
(267.355 0 0)
(266.006 0 0)
(264.614 0 0)
(263.179 0 0)
(261.7 0 0)
(260.173 0 0)
(258.597 0 0)
(256.969 0 0)
(255.287 0 0)
(253.547 0 0)
(251.747 0 0)
(249.884 0 0)
(247.952 0 0)
(245.947 0 0)
(243.864 0 0)
(241.698 0 0)
(239.442 0 0)
(237.088 0 0)
(234.626 0 0)
(232.047 0 0)
(229.338 0 0)
(226.483 0 0)
(223.464 0 0)
(220.256 0 0)
(216.831 0 0)
(213.148 0 0)
(209.152 0 0)
(204.775 0 0)
(199.92 0 0)
(194.362 0 0)
(187.536 0 0)
(178.429 0 0)
(166.192 0 0)
(151.442 0 0)
(136.637 0 0)
(124.392 0 0)
(115.751 0 0)
(110.266 0 0)
(106.986 0 0)
(105.096 0 0)
(104.053 0 0)
(103.532 0 0)
(103.345 0 0)
(103.381 0 0)
(103.571 0 0)
(103.874 0 0)
(104.261 0 0)
(104.715 0 0)
(105.22 0 0)
(105.768 0 0)
(106.351 0 0)
(106.962 0 0)
(107.598 0 0)
(108.255 0 0)
(108.929 0 0)
(109.619 0 0)
(110.322 0 0)
(111.036 0 0)
(111.76 0 0)
(112.493 0 0)
(113.234 0 0)
(113.981 0 0)
(114.734 0 0)
(115.492 0 0)
(116.254 0 0)
(117.022 0 0)
(117.784 0 0)
(118.582 0 0)
(119.277 0 0)
(120.301 0 0)
(276.662 0 0)
(275.626 0 0)
(274.56 0 0)
(273.464 0 0)
(272.336 0 0)
(271.175 0 0)
(269.98 0 0)
(268.75 0 0)
(267.484 0 0)
(266.18 0 0)
(264.837 0 0)
(263.454 0 0)
(262.029 0 0)
(260.559 0 0)
(259.044 0 0)
(257.481 0 0)
(255.868 0 0)
(254.201 0 0)
(252.479 0 0)
(250.698 0 0)
(248.854 0 0)
(246.944 0 0)
(244.963 0 0)
(242.907 0 0)
(240.769 0 0)
(238.543 0 0)
(236.222 0 0)
(233.796 0 0)
(231.257 0 0)
(228.59 0 0)
(225.783 0 0)
(222.816 0 0)
(219.666 0 0)
(216.307 0 0)
(212.698 0 0)
(208.788 0 0)
(204.512 0 0)
(199.778 0 0)
(194.386 0 0)
(187.832 0 0)
(179.171 0 0)
(167.497 0 0)
(153.177 0 0)
(138.421 0 0)
(125.88 0 0)
(116.823 0 0)
(110.972 0 0)
(107.426 0 0)
(105.352 0 0)
(104.181 0 0)
(103.567 0 0)
(103.308 0 0)
(103.283 0 0)
(103.422 0 0)
(103.679 0 0)
(104.024 0 0)
(104.438 0 0)
(104.906 0 0)
(105.418 0 0)
(105.966 0 0)
(106.543 0 0)
(107.147 0 0)
(107.771 0 0)
(108.414 0 0)
(109.073 0 0)
(109.745 0 0)
(110.429 0 0)
(111.124 0 0)
(111.828 0 0)
(112.539 0 0)
(113.258 0 0)
(113.982 0 0)
(114.712 0 0)
(115.446 0 0)
(116.187 0 0)
(116.922 0 0)
(117.692 0 0)
(118.363 0 0)
(119.351 0 0)
(275.464 0 0)
(274.428 0 0)
(273.363 0 0)
(272.267 0 0)
(271.141 0 0)
(269.983 0 0)
(268.792 0 0)
(267.567 0 0)
(266.307 0 0)
(265.01 0 0)
(263.675 0 0)
(262.301 0 0)
(260.886 0 0)
(259.427 0 0)
(257.925 0 0)
(256.375 0 0)
(254.776 0 0)
(253.126 0 0)
(251.421 0 0)
(249.659 0 0)
(247.836 0 0)
(245.948 0 0)
(243.992 0 0)
(241.961 0 0)
(239.852 0 0)
(237.656 0 0)
(235.368 0 0)
(232.979 0 0)
(230.479 0 0)
(227.855 0 0)
(225.094 0 0)
(222.179 0 0)
(219.088 0 0)
(215.792 0 0)
(212.257 0 0)
(208.432 0 0)
(204.255 0 0)
(199.639 0 0)
(194.407 0 0)
(188.11 0 0)
(179.875 0 0)
(168.762 0 0)
(154.906 0 0)
(140.255 0 0)
(127.452 0 0)
(117.98 0 0)
(111.747 0 0)
(107.916 0 0)
(105.646 0 0)
(104.339 0 0)
(103.627 0 0)
(103.293 0 0)
(103.207 0 0)
(103.294 0 0)
(103.505 0 0)
(103.808 0 0)
(104.182 0 0)
(104.613 0 0)
(105.089 0 0)
(105.602 0 0)
(106.147 0 0)
(106.717 0 0)
(107.31 0 0)
(107.922 0 0)
(108.55 0 0)
(109.193 0 0)
(109.847 0 0)
(110.513 0 0)
(111.188 0 0)
(111.871 0 0)
(112.562 0 0)
(113.258 0 0)
(113.961 0 0)
(114.668 0 0)
(115.382 0 0)
(116.09 0 0)
(116.832 0 0)
(117.48 0 0)
(118.433 0 0)
(274.265 0 0)
(273.229 0 0)
(272.165 0 0)
(271.072 0 0)
(269.949 0 0)
(268.795 0 0)
(267.609 0 0)
(266.39 0 0)
(265.136 0 0)
(263.847 0 0)
(262.52 0 0)
(261.156 0 0)
(259.751 0 0)
(258.304 0 0)
(256.814 0 0)
(255.279 0 0)
(253.695 0 0)
(252.062 0 0)
(250.375 0 0)
(248.632 0 0)
(246.83 0 0)
(244.965 0 0)
(243.033 0 0)
(241.028 0 0)
(238.947 0 0)
(236.783 0 0)
(234.528 0 0)
(232.174 0 0)
(229.713 0 0)
(227.132 0 0)
(224.418 0 0)
(221.554 0 0)
(218.519 0 0)
(215.288 0 0)
(211.825 0 0)
(208.084 0 0)
(204.004 0 0)
(199.504 0 0)
(194.426 0 0)
(188.372 0 0)
(180.541 0 0)
(169.983 0 0)
(156.622 0 0)
(142.131 0 0)
(129.106 0 0)
(119.224 0 0)
(112.594 0 0)
(108.462 0 0)
(105.981 0 0)
(104.53 0 0)
(103.714 0 0)
(103.301 0 0)
(103.153 0 0)
(103.187 0 0)
(103.35 0 0)
(103.611 0 0)
(103.946 0 0)
(104.339 0 0)
(104.78 0 0)
(105.26 0 0)
(105.771 0 0)
(106.31 0 0)
(106.872 0 0)
(107.453 0 0)
(108.051 0 0)
(108.664 0 0)
(109.29 0 0)
(109.927 0 0)
(110.574 0 0)
(111.229 0 0)
(111.892 0 0)
(112.562 0 0)
(113.238 0 0)
(113.918 0 0)
(114.605 0 0)
(115.287 0 0)
(116.002 0 0)
(116.628 0 0)
(117.545 0 0)
(273.065 0 0)
(272.031 0 0)
(270.97 0 0)
(269.88 0 0)
(268.761 0 0)
(267.611 0 0)
(266.431 0 0)
(265.218 0 0)
(263.971 0 0)
(262.69 0 0)
(261.373 0 0)
(260.018 0 0)
(258.625 0 0)
(257.191 0 0)
(255.714 0 0)
(254.193 0 0)
(252.625 0 0)
(251.008 0 0)
(249.34 0 0)
(247.617 0 0)
(245.836 0 0)
(243.993 0 0)
(242.086 0 0)
(240.108 0 0)
(238.055 0 0)
(235.921 0 0)
(233.699 0 0)
(231.382 0 0)
(228.959 0 0)
(226.421 0 0)
(223.753 0 0)
(220.94 0 0)
(217.962 0 0)
(214.794 0 0)
(211.403 0 0)
(207.743 0 0)
(203.759 0 0)
(199.373 0 0)
(194.443 0 0)
(188.619 0 0)
(181.171 0 0)
(171.155 0 0)
(158.316 0 0)
(144.044 0 0)
(130.841 0 0)
(120.559 0 0)
(113.52 0 0)
(109.067 0 0)
(106.361 0 0)
(104.754 0 0)
(103.829 0 0)
(103.334 0 0)
(103.121 0 0)
(103.1 0 0)
(103.216 0 0)
(103.434 0 0)
(103.73 0 0)
(104.086 0 0)
(104.492 0 0)
(104.938 0 0)
(105.417 0 0)
(105.924 0 0)
(106.455 0 0)
(107.006 0 0)
(107.575 0 0)
(108.159 0 0)
(108.757 0 0)
(109.366 0 0)
(109.985 0 0)
(110.613 0 0)
(111.249 0 0)
(111.892 0 0)
(112.541 0 0)
(113.195 0 0)
(113.856 0 0)
(114.513 0 0)
(115.202 0 0)
(115.805 0 0)
(116.689 0 0)
(271.866 0 0)
(270.834 0 0)
(269.776 0 0)
(268.69 0 0)
(267.576 0 0)
(266.432 0 0)
(265.258 0 0)
(264.052 0 0)
(262.813 0 0)
(261.541 0 0)
(260.234 0 0)
(258.89 0 0)
(257.508 0 0)
(256.087 0 0)
(254.624 0 0)
(253.117 0 0)
(251.566 0 0)
(249.966 0 0)
(248.316 0 0)
(246.613 0 0)
(244.854 0 0)
(243.034 0 0)
(241.151 0 0)
(239.2 0 0)
(237.176 0 0)
(235.072 0 0)
(232.884 0 0)
(230.602 0 0)
(228.218 0 0)
(225.721 0 0)
(223.1 0 0)
(220.337 0 0)
(217.415 0 0)
(214.31 0 0)
(210.989 0 0)
(207.411 0 0)
(203.52 0 0)
(199.246 0 0)
(194.458 0 0)
(188.851 0 0)
(181.765 0 0)
(172.278 0 0)
(159.982 0 0)
(145.984 0 0)
(132.655 0 0)
(121.989 0 0)
(114.529 0 0)
(109.736 0 0)
(106.788 0 0)
(105.015 0 0)
(103.973 0 0)
(103.392 0 0)
(103.111 0 0)
(103.035 0 0)
(103.103 0 0)
(103.278 0 0)
(103.534 0 0)
(103.853 0 0)
(104.224 0 0)
(104.636 0 0)
(105.083 0 0)
(105.559 0 0)
(106.06 0 0)
(106.582 0 0)
(107.122 0 0)
(107.677 0 0)
(108.247 0 0)
(108.828 0 0)
(109.42 0 0)
(110.022 0 0)
(110.631 0 0)
(111.248 0 0)
(111.871 0 0)
(112.499 0 0)
(113.135 0 0)
(113.767 0 0)
(114.43 0 0)
(115.011 0 0)
(115.862 0 0)
(270.669 0 0)
(269.641 0 0)
(268.586 0 0)
(267.505 0 0)
(266.396 0 0)
(265.258 0 0)
(264.091 0 0)
(262.893 0 0)
(261.663 0 0)
(260.4 0 0)
(259.103 0 0)
(257.771 0 0)
(256.401 0 0)
(254.993 0 0)
(253.544 0 0)
(252.053 0 0)
(250.517 0 0)
(248.935 0 0)
(247.304 0 0)
(245.621 0 0)
(243.884 0 0)
(242.087 0 0)
(240.229 0 0)
(238.305 0 0)
(236.309 0 0)
(234.236 0 0)
(232.08 0 0)
(229.834 0 0)
(227.489 0 0)
(225.034 0 0)
(222.458 0 0)
(219.746 0 0)
(216.879 0 0)
(213.835 0 0)
(210.584 0 0)
(207.085 0 0)
(203.287 0 0)
(199.121 0 0)
(194.472 0 0)
(189.07 0 0)
(182.324 0 0)
(173.349 0 0)
(161.61 0 0)
(147.942 0 0)
(134.543 0 0)
(123.516 0 0)
(115.626 0 0)
(110.474 0 0)
(107.267 0 0)
(105.315 0 0)
(104.148 0 0)
(103.476 0 0)
(103.125 0 0)
(102.991 0 0)
(103.01 0 0)
(103.141 0 0)
(103.357 0 0)
(103.64 0 0)
(103.976 0 0)
(104.355 0 0)
(104.77 0 0)
(105.216 0 0)
(105.686 0 0)
(106.179 0 0)
(106.69 0 0)
(107.218 0 0)
(107.76 0 0)
(108.315 0 0)
(108.88 0 0)
(109.455 0 0)
(110.039 0 0)
(110.63 0 0)
(111.228 0 0)
(111.831 0 0)
(112.442 0 0)
(113.049 0 0)
(113.686 0 0)
(114.246 0 0)
(115.064 0 0)
(269.475 0 0)
(268.45 0 0)
(267.401 0 0)
(266.325 0 0)
(265.222 0 0)
(264.091 0 0)
(262.931 0 0)
(261.741 0 0)
(260.521 0 0)
(259.268 0 0)
(257.982 0 0)
(256.661 0 0)
(255.304 0 0)
(253.909 0 0)
(252.475 0 0)
(250.999 0 0)
(249.48 0 0)
(247.916 0 0)
(246.304 0 0)
(244.642 0 0)
(242.926 0 0)
(241.153 0 0)
(239.32 0 0)
(237.422 0 0)
(235.455 0 0)
(233.413 0 0)
(231.29 0 0)
(229.079 0 0)
(226.772 0 0)
(224.359 0 0)
(221.828 0 0)
(219.165 0 0)
(216.353 0 0)
(213.37 0 0)
(210.187 0 0)
(206.767 0 0)
(203.06 0 0)
(199.001 0 0)
(194.484 0 0)
(189.276 0 0)
(182.85 0 0)
(174.366 0 0)
(163.195 0 0)
(149.907 0 0)
(136.5 0 0)
(125.141 0 0)
(116.818 0 0)
(111.286 0 0)
(107.801 0 0)
(105.656 0 0)
(104.356 0 0)
(103.586 0 0)
(103.162 0 0)
(102.968 0 0)
(102.937 0 0)
(103.024 0 0)
(103.201 0 0)
(103.447 0 0)
(103.748 0 0)
(104.094 0 0)
(104.478 0 0)
(104.893 0 0)
(105.334 0 0)
(105.798 0 0)
(106.281 0 0)
(106.781 0 0)
(107.296 0 0)
(107.824 0 0)
(108.363 0 0)
(108.912 0 0)
(109.471 0 0)
(110.036 0 0)
(110.609 0 0)
(111.188 0 0)
(111.774 0 0)
(112.358 0 0)
(112.97 0 0)
(113.508 0 0)
(114.295 0 0)
(268.284 0 0)
(267.264 0 0)
(266.22 0 0)
(265.15 0 0)
(264.054 0 0)
(262.93 0 0)
(261.779 0 0)
(260.598 0 0)
(259.387 0 0)
(258.144 0 0)
(256.869 0 0)
(255.561 0 0)
(254.216 0 0)
(252.836 0 0)
(251.416 0 0)
(249.957 0 0)
(248.455 0 0)
(246.909 0 0)
(245.317 0 0)
(243.675 0 0)
(241.981 0 0)
(240.231 0 0)
(238.423 0 0)
(236.552 0 0)
(234.613 0 0)
(232.602 0 0)
(230.512 0 0)
(228.336 0 0)
(226.067 0 0)
(223.695 0 0)
(221.209 0 0)
(218.596 0 0)
(215.838 0 0)
(212.914 0 0)
(209.799 0 0)
(206.456 0 0)
(202.838 0 0)
(198.883 0 0)
(194.496 0 0)
(189.472 0 0)
(183.345 0 0)
(175.329 0 0)
(164.73 0 0)
(151.87 0 0)
(138.518 0 0)
(126.865 0 0)
(118.108 0 0)
(112.179 0 0)
(108.395 0 0)
(106.043 0 0)
(104.598 0 0)
(103.726 0 0)
(103.223 0 0)
(102.968 0 0)
(102.885 0 0)
(102.928 0 0)
(103.064 0 0)
(103.273 0 0)
(103.539 0 0)
(103.853 0 0)
(104.205 0 0)
(104.59 0 0)
(105.002 0 0)
(105.437 0 0)
(105.893 0 0)
(106.366 0 0)
(106.855 0 0)
(107.356 0 0)
(107.87 0 0)
(108.394 0 0)
(108.927 0 0)
(109.468 0 0)
(110.016 0 0)
(110.571 0 0)
(111.133 0 0)
(111.693 0 0)
(112.281 0 0)
(112.799 0 0)
(113.554 0 0)
(267.097 0 0)
(266.083 0 0)
(265.045 0 0)
(263.982 0 0)
(262.893 0 0)
(261.777 0 0)
(260.634 0 0)
(259.463 0 0)
(258.262 0 0)
(257.03 0 0)
(255.767 0 0)
(254.471 0 0)
(253.14 0 0)
(251.773 0 0)
(250.369 0 0)
(248.926 0 0)
(247.442 0 0)
(245.914 0 0)
(244.341 0 0)
(242.72 0 0)
(241.048 0 0)
(239.322 0 0)
(237.539 0 0)
(235.694 0 0)
(233.784 0 0)
(231.803 0 0)
(229.746 0 0)
(227.605 0 0)
(225.374 0 0)
(223.043 0 0)
(220.602 0 0)
(218.037 0 0)
(215.332 0 0)
(212.468 0 0)
(209.419 0 0)
(206.152 0 0)
(202.621 0 0)
(198.768 0 0)
(194.507 0 0)
(189.657 0 0)
(183.809 0 0)
(176.239 0 0)
(166.208 0 0)
(153.819 0 0)
(140.589 0 0)
(128.687 0 0)
(119.502 0 0)
(113.16 0 0)
(109.056 0 0)
(106.478 0 0)
(104.877 0 0)
(103.895 0 0)
(103.311 0 0)
(102.991 0 0)
(102.855 0 0)
(102.852 0 0)
(102.947 0 0)
(103.119 0 0)
(103.351 0 0)
(103.631 0 0)
(103.953 0 0)
(104.307 0 0)
(104.691 0 0)
(105.098 0 0)
(105.526 0 0)
(105.973 0 0)
(106.435 0 0)
(106.911 0 0)
(107.399 0 0)
(107.898 0 0)
(108.406 0 0)
(108.923 0 0)
(109.448 0 0)
(109.978 0 0)
(110.517 0 0)
(111.054 0 0)
(111.618 0 0)
(112.116 0 0)
(112.84 0 0)
(265.916 0 0)
(264.908 0 0)
(263.876 0 0)
(262.82 0 0)
(261.739 0 0)
(260.632 0 0)
(259.498 0 0)
(258.336 0 0)
(257.146 0 0)
(255.926 0 0)
(254.675 0 0)
(253.391 0 0)
(252.074 0 0)
(250.722 0 0)
(249.334 0 0)
(247.907 0 0)
(246.44 0 0)
(244.931 0 0)
(243.377 0 0)
(241.777 0 0)
(240.127 0 0)
(238.425 0 0)
(236.667 0 0)
(234.849 0 0)
(232.968 0 0)
(231.017 0 0)
(228.992 0 0)
(226.887 0 0)
(224.693 0 0)
(222.403 0 0)
(220.006 0 0)
(217.489 0 0)
(214.837 0 0)
(212.031 0 0)
(209.048 0 0)
(205.855 0 0)
(202.409 0 0)
(198.657 0 0)
(194.517 0 0)
(189.832 0 0)
(184.246 0 0)
(177.095 0 0)
(167.625 0 0)
(155.743 0 0)
(142.703 0 0)
(130.604 0 0)
(121.004 0 0)
(114.233 0 0)
(109.787 0 0)
(106.966 0 0)
(105.197 0 0)
(104.096 0 0)
(103.425 0 0)
(103.038 0 0)
(102.847 0 0)
(102.796 0 0)
(102.85 0 0)
(102.984 0 0)
(103.181 0 0)
(103.43 0 0)
(103.72 0 0)
(104.045 0 0)
(104.399 0 0)
(104.779 0 0)
(105.18 0 0)
(105.6 0 0)
(106.037 0 0)
(106.487 0 0)
(106.951 0 0)
(107.425 0 0)
(107.91 0 0)
(108.403 0 0)
(108.904 0 0)
(109.411 0 0)
(109.927 0 0)
(110.441 0 0)
(110.982 0 0)
(111.459 0 0)
(112.154 0 0)
(264.74 0 0)
(263.738 0 0)
(262.714 0 0)
(261.666 0 0)
(260.593 0 0)
(259.495 0 0)
(258.371 0 0)
(257.219 0 0)
(256.04 0 0)
(254.831 0 0)
(253.593 0 0)
(252.322 0 0)
(251.019 0 0)
(249.682 0 0)
(248.309 0 0)
(246.899 0 0)
(245.45 0 0)
(243.96 0 0)
(242.426 0 0)
(240.847 0 0)
(239.22 0 0)
(237.541 0 0)
(235.808 0 0)
(234.017 0 0)
(232.164 0 0)
(230.243 0 0)
(228.251 0 0)
(226.18 0 0)
(224.024 0 0)
(221.774 0 0)
(219.421 0 0)
(216.951 0 0)
(214.351 0 0)
(211.603 0 0)
(208.684 0 0)
(205.564 0 0)
(202.203 0 0)
(198.549 0 0)
(194.527 0 0)
(189.999 0 0)
(184.656 0 0)
(177.9 0 0)
(168.976 0 0)
(157.63 0 0)
(144.848 0 0)
(132.612 0 0)
(122.618 0 0)
(115.407 0 0)
(110.597 0 0)
(107.512 0 0)
(105.56 0 0)
(104.331 0 0)
(103.567 0 0)
(103.109 0 0)
(102.86 0 0)
(102.761 0 0)
(102.773 0 0)
(102.869 0 0)
(103.031 0 0)
(103.247 0 0)
(103.506 0 0)
(103.802 0 0)
(104.128 0 0)
(104.48 0 0)
(104.855 0 0)
(105.249 0 0)
(105.66 0 0)
(106.086 0 0)
(106.525 0 0)
(106.975 0 0)
(107.436 0 0)
(107.905 0 0)
(108.383 0 0)
(108.868 0 0)
(109.36 0 0)
(109.853 0 0)
(110.37 0 0)
(110.828 0 0)
(111.494 0 0)
(263.571 0 0)
(262.576 0 0)
(261.559 0 0)
(260.519 0 0)
(259.455 0 0)
(258.367 0 0)
(257.253 0 0)
(256.112 0 0)
(254.944 0 0)
(253.747 0 0)
(252.521 0 0)
(251.265 0 0)
(249.976 0 0)
(248.654 0 0)
(247.297 0 0)
(245.904 0 0)
(244.473 0 0)
(243.001 0 0)
(241.488 0 0)
(239.93 0 0)
(238.325 0 0)
(236.67 0 0)
(234.962 0 0)
(233.197 0 0)
(231.372 0 0)
(229.482 0 0)
(227.522 0 0)
(225.486 0 0)
(223.367 0 0)
(221.157 0 0)
(218.846 0 0)
(216.424 0 0)
(213.876 0 0)
(211.185 0 0)
(208.329 0 0)
(205.28 0 0)
(202.002 0 0)
(198.443 0 0)
(194.536 0 0)
(190.158 0 0)
(185.042 0 0)
(178.654 0 0)
(170.259 0 0)
(159.47 0 0)
(147.011 0 0)
(134.705 0 0)
(124.345 0 0)
(116.687 0 0)
(111.491 0 0)
(108.121 0 0)
(105.97 0 0)
(104.603 0 0)
(103.738 0 0)
(103.205 0 0)
(102.897 0 0)
(102.748 0 0)
(102.717 0 0)
(102.774 0 0)
(102.901 0 0)
(103.084 0 0)
(103.312 0 0)
(103.579 0 0)
(103.876 0 0)
(104.202 0 0)
(104.55 0 0)
(104.918 0 0)
(105.304 0 0)
(105.705 0 0)
(106.12 0 0)
(106.547 0 0)
(106.984 0 0)
(107.431 0 0)
(107.886 0 0)
(108.348 0 0)
(108.819 0 0)
(109.289 0 0)
(109.784 0 0)
(110.223 0 0)
(110.86 0 0)
(262.409 0 0)
(261.421 0 0)
(260.413 0 0)
(259.381 0 0)
(258.327 0 0)
(257.248 0 0)
(256.144 0 0)
(255.014 0 0)
(253.858 0 0)
(252.674 0 0)
(251.461 0 0)
(250.218 0 0)
(248.944 0 0)
(247.637 0 0)
(246.297 0 0)
(244.921 0 0)
(243.507 0 0)
(242.055 0 0)
(240.561 0 0)
(239.025 0 0)
(237.442 0 0)
(235.811 0 0)
(234.128 0 0)
(232.39 0 0)
(230.593 0 0)
(228.734 0 0)
(226.806 0 0)
(224.804 0 0)
(222.721 0 0)
(220.551 0 0)
(218.283 0 0)
(215.907 0 0)
(213.41 0 0)
(210.775 0 0)
(207.981 0 0)
(205.003 0 0)
(201.805 0 0)
(198.34 0 0)
(194.545 0 0)
(190.31 0 0)
(185.407 0 0)
(179.361 0 0)
(171.473 0 0)
(161.254 0 0)
(149.178 0 0)
(136.874 0 0)
(126.187 0 0)
(118.08 0 0)
(112.478 0 0)
(108.799 0 0)
(106.432 0 0)
(104.914 0 0)
(103.942 0 0)
(103.328 0 0)
(102.957 0 0)
(102.757 0 0)
(102.681 0 0)
(102.699 0 0)
(102.79 0 0)
(102.94 0 0)
(103.138 0 0)
(103.375 0 0)
(103.645 0 0)
(103.943 0 0)
(104.265 0 0)
(104.608 0 0)
(104.969 0 0)
(105.346 0 0)
(105.737 0 0)
(106.14 0 0)
(106.555 0 0)
(106.979 0 0)
(107.411 0 0)
(107.851 0 0)
(108.3 0 0)
(108.75 0 0)
(109.223 0 0)
(109.643 0 0)
(110.251 0 0)
(261.254 0 0)
(260.275 0 0)
(259.275 0 0)
(258.252 0 0)
(257.207 0 0)
(256.139 0 0)
(255.046 0 0)
(253.927 0 0)
(252.783 0 0)
(251.611 0 0)
(250.412 0 0)
(249.183 0 0)
(247.924 0 0)
(246.633 0 0)
(245.308 0 0)
(243.95 0 0)
(242.554 0 0)
(241.121 0 0)
(239.648 0 0)
(238.132 0 0)
(236.572 0 0)
(234.965 0 0)
(233.307 0 0)
(231.596 0 0)
(229.827 0 0)
(227.997 0 0)
(226.101 0 0)
(224.133 0 0)
(222.087 0 0)
(219.956 0 0)
(217.731 0 0)
(215.401 0 0)
(212.953 0 0)
(210.374 0 0)
(207.642 0 0)
(204.733 0 0)
(201.613 0 0)
(198.24 0 0)
(194.553 0 0)
(190.456 0 0)
(185.75 0 0)
(180.022 0 0)
(172.616 0 0)
(162.971 0 0)
(151.333 0 0)
(139.107 0 0)
(128.143 0 0)
(119.593 0 0)
(113.564 0 0)
(109.554 0 0)
(106.95 0 0)
(105.267 0 0)
(104.179 0 0)
(103.48 0 0)
(103.042 0 0)
(102.788 0 0)
(102.666 0 0)
(102.644 0 0)
(102.699 0 0)
(102.816 0 0)
(102.983 0 0)
(103.19 0 0)
(103.432 0 0)
(103.703 0 0)
(103.999 0 0)
(104.317 0 0)
(104.654 0 0)
(105.007 0 0)
(105.375 0 0)
(105.755 0 0)
(106.147 0 0)
(106.549 0 0)
(106.96 0 0)
(107.378 0 0)
(107.805 0 0)
(108.234 0 0)
(108.685 0 0)
(109.087 0 0)
(109.668 0 0)
(260.107 0 0)
(259.136 0 0)
(258.145 0 0)
(257.132 0 0)
(256.097 0 0)
(255.039 0 0)
(253.957 0 0)
(252.851 0 0)
(251.719 0 0)
(250.56 0 0)
(249.374 0 0)
(248.16 0 0)
(246.915 0 0)
(245.64 0 0)
(244.332 0 0)
(242.991 0 0)
(241.614 0 0)
(240.2 0 0)
(238.747 0 0)
(237.253 0 0)
(235.715 0 0)
(234.131 0 0)
(232.498 0 0)
(230.814 0 0)
(229.073 0 0)
(227.273 0 0)
(225.408 0 0)
(223.474 0 0)
(221.465 0 0)
(219.372 0 0)
(217.189 0 0)
(214.904 0 0)
(212.506 0 0)
(209.981 0 0)
(207.309 0 0)
(204.468 0 0)
(201.426 0 0)
(198.142 0 0)
(194.561 0 0)
(190.596 0 0)
(186.076 0 0)
(180.641 0 0)
(173.689 0 0)
(164.616 0 0)
(153.462 0 0)
(141.393 0 0)
(130.208 0 0)
(121.23 0 0)
(114.759 0 0)
(110.391 0 0)
(107.529 0 0)
(105.667 0 0)
(104.452 0 0)
(103.661 0 0)
(103.153 0 0)
(102.842 0 0)
(102.673 0 0)
(102.61 0 0)
(102.628 0 0)
(102.711 0 0)
(102.847 0 0)
(103.025 0 0)
(103.239 0 0)
(103.483 0 0)
(103.754 0 0)
(104.047 0 0)
(104.359 0 0)
(104.689 0 0)
(105.033 0 0)
(105.391 0 0)
(105.76 0 0)
(106.14 0 0)
(106.53 0 0)
(106.927 0 0)
(107.333 0 0)
(107.741 0 0)
(108.171 0 0)
(108.554 0 0)
(109.109 0 0)
(258.969 0 0)
(258.007 0 0)
(257.025 0 0)
(256.022 0 0)
(254.997 0 0)
(253.95 0 0)
(252.88 0 0)
(251.785 0 0)
(250.666 0 0)
(249.52 0 0)
(248.348 0 0)
(247.148 0 0)
(245.919 0 0)
(244.659 0 0)
(243.368 0 0)
(242.045 0 0)
(240.686 0 0)
(239.291 0 0)
(237.859 0 0)
(236.386 0 0)
(234.87 0 0)
(233.31 0 0)
(231.702 0 0)
(230.044 0 0)
(228.332 0 0)
(226.561 0 0)
(224.728 0 0)
(222.827 0 0)
(220.854 0 0)
(218.799 0 0)
(216.657 0 0)
(214.418 0 0)
(212.069 0 0)
(209.597 0 0)
(206.985 0 0)
(204.21 0 0)
(201.243 0 0)
(198.046 0 0)
(194.568 0 0)
(190.73 0 0)
(186.384 0 0)