/*--------------------------------*- C++ -*----------------------------------*\
| =========                 |                                                 |
| \\      /  F ield         | OpenFOAM: The Open Source CFD Toolbox           |
|  \\    /   O peration     | Version:  2312                                  |
|   \\  /    A nd           | Website:  www.openfoam.com                      |
|    \\/     M anipulation  |                                                 |
\*---------------------------------------------------------------------------*/
FoamFile
{
    version     2.0;
    format      ascii;
    arch        "LSB;label=32;scalar=64";
    class       volVectorField;
    location    "0.823";
    object      U;
}
// * * * * * * * * * * * * * * * * * * * * * * * * * * * * * * * * * * * * * //

dimensions      [0 1 -1 0 0 0 0];

internalField   nonuniform List<vector> 
31205
(
(250.209 0 0)
(248.135 0 0)
(245.996 0 0)
(243.789 0 0)
(241.511 0 0)
(239.157 0 0)
(236.724 0 0)
(234.207 0 0)
(231.601 0 0)
(228.899 0 0)
(226.096 0 0)
(223.182 0 0)
(220.151 0 0)
(216.991 0 0)
(213.691 0 0)
(210.237 0 0)
(206.613 0 0)
(202.799 0 0)
(198.772 0 0)
(194.501 0 0)
(189.951 0 0)
(185.075 0 0)
(179.812 0 0)
(174.083 0 0)
(167.776 0 0)
(160.764 0 0)
(152.967 0 0)
(144.494 0 0)
(135.766 0 0)
(127.448 0 0)
(120.196 0 0)
(114.391 0 0)
(110.079 0 0)
(107.074 0 0)
(105.109 0 0)
(103.928 0 0)
(103.322 0 0)
(103.137 0 0)
(103.261 0 0)
(103.615 0 0)
(104.143 0 0)
(104.805 0 0)
(105.571 0 0)
(106.419 0 0)
(107.332 0 0)
(108.299 0 0)
(109.308 0 0)
(110.354 0 0)
(111.428 0 0)
(112.527 0 0)
(113.646 0 0)
(114.782 0 0)
(115.932 0 0)
(117.094 0 0)
(118.265 0 0)
(119.445 0 0)
(120.631 0 0)
(121.822 0 0)
(123.018 0 0)
(124.218 0 0)
(125.42 0 0)
(126.624 0 0)
(127.829 0 0)
(129.035 0 0)
(130.241 0 0)
(131.447 0 0)
(132.653 0 0)
(133.858 0 0)
(135.061 0 0)
(136.264 0 0)
(137.464 0 0)
(138.663 0 0)
(139.86 0 0)
(141.054 0 0)
(142.25 0 0)
(143.426 0 0)
(144.656 0 0)
(145.71 0 0)
(147.293 0 0)
(248.004 0 0)
(245.927 0 0)
(243.786 0 0)
(241.577 0 0)
(239.298 0 0)
(236.945 0 0)
(234.513 0 0)
(231.997 0 0)
(229.393 0 0)
(226.693 0 0)
(223.892 0 0)
(220.982 0 0)
(217.954 0 0)
(214.797 0 0)
(211.499 0 0)
(208.048 0 0)
(204.425 0 0)
(200.611 0 0)
(196.581 0 0)
(192.305 0 0)
(187.746 0 0)
(182.856 0 0)
(177.572 0 0)
(171.81 0 0)
(165.46 0 0)
(158.405 0 0)
(150.603 0 0)
(142.223 0 0)
(133.727 0 0)
(125.767 0 0)
(118.927 0 0)
(113.507 0 0)
(109.501 0 0)
(106.714 0 0)
(104.891 0 0)
(103.793 0 0)
(103.23 0 0)
(103.06 0 0)
(103.181 0 0)
(103.521 0 0)
(104.026 0 0)
(104.66 0 0)
(105.393 0 0)
(106.206 0 0)
(107.084 0 0)
(108.013 0 0)
(108.984 0 0)
(109.991 0 0)
(111.026 0 0)
(112.086 0 0)
(113.165 0 0)
(114.262 0 0)
(115.373 0 0)
(116.496 0 0)
(117.629 0 0)
(118.77 0 0)
(119.918 0 0)
(121.071 0 0)
(122.229 0 0)
(123.391 0 0)
(124.556 0 0)
(125.723 0 0)
(126.891 0 0)
(128.061 0 0)
(129.231 0 0)
(130.401 0 0)
(131.571 0 0)
(132.741 0 0)
(133.909 0 0)
(135.077 0 0)
(136.243 0 0)
(137.407 0 0)
(138.57 0 0)
(139.729 0 0)
(140.892 0 0)
(142.035 0 0)
(143.23 0 0)
(144.256 0 0)
(145.79 0 0)
(245.683 0 0)
(243.602 0 0)
(241.457 0 0)
(239.245 0 0)
(236.964 0 0)
(234.608 0 0)
(232.174 0 0)
(229.657 0 0)
(227.051 0 0)
(224.35 0 0)
(221.548 0 0)
(218.636 0 0)
(215.605 0 0)
(212.446 0 0)
(209.145 0 0)
(205.689 0 0)
(202.059 0 0)
(198.236 0 0)
(194.194 0 0)
(189.901 0 0)
(185.319 0 0)
(180.398 0 0)
(175.073 0 0)
(169.255 0 0)
(162.838 0 0)
(155.722 0 0)
(147.917 0 0)
(139.657 0 0)
(131.446 0 0)
(123.904 0 0)
(117.53 0 0)
(112.534 0 0)
(108.865 0 0)
(106.319 0 0)
(104.654 0 0)
(103.652 0 0)
(103.143 0 0)
(102.997 0 0)
(103.122 0 0)
(103.452 0 0)
(103.938 0 0)
(104.547 0 0)
(105.251 0 0)
(106.033 0 0)
(106.876 0 0)
(107.769 0 0)
(108.704 0 0)
(109.673 0 0)
(110.671 0 0)
(111.693 0 0)
(112.735 0 0)
(113.793 0 0)
(114.866 0 0)
(115.951 0 0)
(117.046 0 0)
(118.15 0 0)
(119.26 0 0)
(120.377 0 0)
(121.498 0 0)
(122.623 0 0)
(123.752 0 0)
(124.882 0 0)
(126.015 0 0)
(127.149 0 0)
(128.284 0 0)
(129.419 0 0)
(130.554 0 0)
(131.688 0 0)
(132.823 0 0)
(133.956 0 0)
(135.088 0 0)
(136.219 0 0)
(137.348 0 0)
(138.474 0 0)
(139.604 0 0)
(140.715 0 0)
(141.875 0 0)
(142.875 0 0)
(144.359 0 0)
(243.311 0 0)
(241.224 0 0)
(239.075 0 0)
(236.86 0 0)
(234.574 0 0)
(232.215 0 0)
(229.778 0 0)
(227.257 0 0)
(224.648 0 0)
(221.944 0 0)
(219.138 0 0)
(216.222 0 0)
(213.187 0 0)
(210.021 0 0)
(206.713 0 0)
(203.247 0 0)
(199.606 0 0)
(195.767 0 0)
(191.705 0 0)
(187.387 0 0)
(182.773 0 0)
(177.809 0 0)
(172.427 0 0)
(166.538 0 0)
(160.038 0 0)
(152.859 0 0)
(145.068 0 0)
(136.97 0 0)
(129.09 0 0)
(122.004 0 0)
(116.114 0 0)
(111.551 0 0)
(108.221 0 0)
(105.916 0 0)
(104.411 0 0)
(103.51 0 0)
(103.057 0 0)
(102.939 0 0)
(103.072 0 0)
(103.396 0 0)
(103.867 0 0)
(104.454 0 0)
(105.132 0 0)
(105.884 0 0)
(106.695 0 0)
(107.555 0 0)
(108.455 0 0)
(109.389 0 0)
(110.351 0 0)
(111.336 0 0)
(112.341 0 0)
(113.364 0 0)
(114.4 0 0)
(115.448 0 0)
(116.507 0 0)
(117.574 0 0)
(118.648 0 0)
(119.728 0 0)
(120.814 0 0)
(121.903 0 0)
(122.996 0 0)
(124.092 0 0)
(125.189 0 0)
(126.288 0 0)
(127.388 0 0)
(128.489 0 0)
(129.59 0 0)
(130.691 0 0)
(131.791 0 0)
(132.891 0 0)
(133.99 0 0)
(135.088 0 0)
(136.184 0 0)
(137.278 0 0)
(138.375 0 0)
(139.454 0 0)
(140.581 0 0)
(141.554 0 0)
(142.992 0 0)
(240.916 0 0)
(238.825 0 0)
(236.671 0 0)
(234.452 0 0)
(232.163 0 0)
(229.8 0 0)
(227.359 0 0)
(224.834 0 0)
(222.221 0 0)
(219.513 0 0)
(216.702 0 0)
(213.78 0 0)
(210.738 0 0)
(207.565 0 0)
(204.247 0 0)
(200.769 0 0)
(197.112 0 0)
(193.254 0 0)
(189.168 0 0)
(184.819 0 0)
(180.165 0 0)
(175.15 0 0)
(169.703 0 0)
(163.732 0 0)
(157.148 0 0)
(149.919 0 0)
(142.179 0 0)
(134.29 0 0)
(126.783 0 0)
(120.171 0 0)
(114.763 0 0)
(110.617 0 0)
(107.608 0 0)
(105.531 0 0)
(104.178 0 0)
(103.372 0 0)
(102.975 0 0)
(102.884 0 0)
(103.025 0 0)
(103.345 0 0)
(103.802 0 0)
(104.369 0 0)
(105.023 0 0)
(105.746 0 0)
(106.527 0 0)
(107.355 0 0)
(108.223 0 0)
(109.123 0 0)
(110.05 0 0)
(111 0 0)
(111.97 0 0)
(112.957 0 0)
(113.958 0 0)
(114.971 0 0)
(115.994 0 0)
(117.026 0 0)
(118.065 0 0)
(119.11 0 0)
(120.16 0 0)
(121.215 0 0)
(122.273 0 0)
(123.335 0 0)
(124.398 0 0)
(125.463 0 0)
(126.53 0 0)
(127.597 0 0)
(128.664 0 0)
(129.732 0 0)
(130.8 0 0)
(131.867 0 0)
(132.933 0 0)
(133.999 0 0)
(135.063 0 0)
(136.125 0 0)
(137.19 0 0)
(138.239 0 0)
(139.333 0 0)
(140.278 0 0)
(141.674 0 0)
(238.51 0 0)
(236.415 0 0)
(234.257 0 0)
(232.034 0 0)
(229.741 0 0)
(227.374 0 0)
(224.929 0 0)
(222.401 0 0)
(219.784 0 0)
(217.07 0 0)
(214.254 0 0)
(211.326 0 0)
(208.276 0 0)
(205.093 0 0)
(201.764 0 0)
(198.271 0 0)
(194.597 0 0)
(190.717 0 0)
(186.603 0 0)
(182.219 0 0)
(177.52 0 0)
(172.448 0 0)
(166.928 0 0)
(160.872 0 0)
(154.209 0 0)
(146.957 0 0)
(139.312 0 0)
(131.682 0 0)
(124.583 0 0)
(118.451 0 0)
(113.508 0 0)
(109.754 0 0)
(107.042 0 0)
(105.175 0 0)
(103.962 0 0)
(103.243 0 0)
(102.897 0 0)
(102.832 0 0)
(102.981 0 0)
(103.296 0 0)
(103.741 0 0)
(104.289 0 0)
(104.919 0 0)
(105.616 0 0)
(106.368 0 0)
(107.165 0 0)
(108.001 0 0)
(108.868 0 0)
(109.762 0 0)
(110.679 0 0)
(111.615 0 0)
(112.567 0 0)
(113.534 0 0)
(114.512 0 0)
(115.501 0 0)
(116.498 0 0)
(117.503 0 0)
(118.514 0 0)
(119.531 0 0)
(120.552 0 0)
(121.577 0 0)
(122.604 0 0)
(123.635 0 0)
(124.667 0 0)
(125.7 0 0)
(126.735 0 0)
(127.77 0 0)
(128.805 0 0)
(129.841 0 0)
(130.876 0 0)
(131.91 0 0)
(132.944 0 0)
(133.978 0 0)
(135.008 0 0)
(136.042 0 0)
(137.06 0 0)
(138.122 0 0)
(139.041 0 0)
(140.395 0 0)
(236.097 0 0)
(233.998 0 0)
(231.837 0 0)
(229.61 0 0)
(227.314 0 0)
(224.943 0 0)
(222.495 0 0)
(219.962 0 0)
(217.34 0 0)
(214.622 0 0)
(211.799 0 0)
(208.864 0 0)
(205.805 0 0)
(202.612 0 0)
(199.269 0 0)
(195.761 0 0)
(192.067 0 0)
(188.162 0 0)
(184.017 0 0)
(179.593 0 0)
(174.844 0 0)
(169.708 0 0)
(164.111 0 0)
(157.97 0 0)
(151.244 0 0)
(144.002 0 0)
(136.502 0 0)
(129.179 0 0)
(122.512 0 0)
(116.857 0 0)
(112.357 0 0)
(108.966 0 0)
(106.527 0 0)
(104.85 0 0)
(103.764 0 0)
(103.125 0 0)
(102.825 0 0)
(102.783 0 0)
(102.94 0 0)
(103.25 0 0)
(103.682 0 0)
(104.211 0 0)
(104.819 0 0)
(105.491 0 0)
(106.215 0 0)
(106.983 0 0)
(107.788 0 0)
(108.623 0 0)
(109.485 0 0)
(110.369 0 0)
(111.272 0 0)
(112.191 0 0)
(113.125 0 0)
(114.07 0 0)
(115.025 0 0)
(115.989 0 0)
(116.961 0 0)
(117.939 0 0)
(118.922 0 0)
(119.911 0 0)
(120.903 0 0)
(121.898 0 0)
(122.895 0 0)
(123.895 0 0)
(124.897 0 0)
(125.899 0 0)
(126.903 0 0)
(127.907 0 0)
(128.911 0 0)
(129.915 0 0)
(130.918 0 0)
(131.921 0 0)
(132.924 0 0)
(133.924 0 0)
(134.928 0 0)
(135.916 0 0)
(136.947 0 0)
(137.839 0 0)
(139.153 0 0)
(233.679 0 0)
(231.576 0 0)
(229.412 0 0)
(227.182 0 0)
(224.882 0 0)
(222.508 0 0)
(220.055 0 0)
(217.518 0 0)
(214.891 0 0)
(212.167 0 0)
(209.338 0 0)
(206.395 0 0)
(203.327 0 0)
(200.121 0 0)
(196.764 0 0)
(193.238 0 0)
(189.521 0 0)
(185.588 0 0)
(181.408 0 0)
(176.941 0 0)
(172.136 0 0)
(166.932 0 0)
(161.253 0 0)
(155.034 0 0)
(148.265 0 0)
(141.076 0 0)
(133.774 0 0)
(126.799 0 0)
(120.579 0 0)
(115.39 0 0)
(111.308 0 0)
(108.252 0 0)
(106.059 0 0)
(104.556 0 0)
(103.584 0 0)
(103.017 0 0)
(102.759 0 0)
(102.738 0 0)
(102.9 0 0)
(103.206 0 0)
(103.626 0 0)
(104.137 0 0)
(104.723 0 0)
(105.37 0 0)
(106.067 0 0)
(106.807 0 0)
(107.582 0 0)
(108.387 0 0)
(109.218 0 0)
(110.07 0 0)
(110.942 0 0)
(111.829 0 0)
(112.73 0 0)
(113.642 0 0)
(114.565 0 0)
(115.497 0 0)
(116.437 0 0)
(117.382 0 0)
(118.334 0 0)
(119.29 0 0)
(120.25 0 0)
(121.213 0 0)
(122.18 0 0)
(123.148 0 0)
(124.118 0 0)
(125.09 0 0)
(126.062 0 0)
(127.035 0 0)
(128.009 0 0)
(128.982 0 0)
(129.956 0 0)
(130.928 0 0)
(131.901 0 0)
(132.871 0 0)
(133.845 0 0)
(134.804 0 0)
(135.805 0 0)
(136.672 0 0)
(137.946 0 0)
(231.255 0 0)
(229.149 0 0)
(226.982 0 0)
(224.748 0 0)
(222.445 0 0)
(220.067 0 0)
(217.611 0 0)
(215.069 0 0)
(212.437 0 0)
(209.707 0 0)
(206.87 0 0)
(203.918 0 0)
(200.839 0 0)
(197.62 0 0)
(194.246 0 0)
(190.7 0 0)
(186.958 0 0)
(182.994 0 0)
(178.775 0 0)
(174.259 0 0)
(169.395 0 0)
(164.117 0 0)
(158.357 0 0)
(152.069 0 0)
(145.289 0 0)
(138.2 0 0)
(131.146 0 0)
(124.553 0 0)
(118.787 0 0)
(114.048 0 0)
(110.356 0 0)
(107.605 0 0)
(105.637 0 0)
(104.289 0 0)
(103.421 0 0)
(102.919 0 0)
(102.699 0 0)
(102.697 0 0)
(102.864 0 0)
(103.164 0 0)
(103.572 0 0)
(104.066 0 0)
(104.631 0 0)
(105.254 0 0)
(105.926 0 0)
(106.638 0 0)
(107.384 0 0)
(108.16 0 0)
(108.961 0 0)
(109.782 0 0)
(110.623 0 0)
(111.479 0 0)
(112.348 0 0)
(113.23 0 0)
(114.121 0 0)
(115.022 0 0)
(115.93 0 0)
(116.844 0 0)
(117.764 0 0)
(118.689 0 0)
(119.618 0 0)
(120.551 0 0)
(121.486 0 0)
(122.424 0 0)
(123.364 0 0)
(124.305 0 0)
(125.247 0 0)
(126.19 0 0)
(127.134 0 0)
(128.078 0 0)
(129.021 0 0)
(129.965 0 0)
(130.908 0 0)
(131.85 0 0)
(132.794 0 0)
(133.725 0 0)
(134.696 0 0)
(135.537 0 0)
(136.773 0 0)
(228.826 0 0)
(226.717 0 0)
(224.547 0 0)
(222.31 0 0)
(220.003 0 0)
(217.622 0 0)
(215.161 0 0)
(212.615 0 0)
(209.977 0 0)
(207.239 0 0)
(204.394 0 0)
(201.432 0 0)
(198.34 0 0)
(195.106 0 0)
(191.714 0 0)
(188.145 0 0)
(184.375 0 0)
(180.377 0 0)
(176.115 0 0)
(171.546 0 0)
(166.616 0 0)
(161.262 0 0)
(155.425 0 0)
(149.087 0 0)
(142.331 0 0)
(135.392 0 0)
(128.633 0 0)
(122.447 0 0)
(117.134 0 0)
(112.823 0 0)
(109.492 0 0)
(107.021 0 0)
(105.256 0 0)
(104.048 0 0)
(103.273 0 0)
(102.83 0 0)
(102.645 0 0)
(102.658 0 0)
(102.829 0 0)
(103.125 0 0)
(103.52 0 0)
(103.998 0 0)
(104.542 0 0)
(105.143 0 0)
(105.789 0 0)
(106.475 0 0)
(107.194 0 0)
(107.941 0 0)
(108.713 0 0)
(109.505 0 0)
(110.315 0 0)
(111.141 0 0)
(111.98 0 0)
(112.831 0 0)
(113.692 0 0)
(114.562 0 0)
(115.44 0 0)
(116.324 0 0)
(117.213 0 0)
(118.108 0 0)
(119.007 0 0)
(119.909 0 0)
(120.815 0 0)
(121.723 0 0)
(122.633 0 0)
(123.544 0 0)
(124.457 0 0)
(125.371 0 0)
(126.285 0 0)
(127.2 0 0)
(128.115 0 0)
(129.03 0 0)
(129.945 0 0)
(130.858 0 0)
(131.774 0 0)
(132.677 0 0)
(133.619 0 0)
(134.436 0 0)
(135.634 0 0)
(226.391 0 0)
(224.28 0 0)
(222.107 0 0)
(219.867 0 0)
(217.557 0 0)
(215.171 0 0)
(212.705 0 0)
(210.154 0 0)
(207.509 0 0)
(204.764 0 0)
(201.909 0 0)
(198.935 0 0)
(195.83 0 0)
(192.579 0 0)
(189.166 0 0)
(185.572 0 0)
(181.771 0 0)
(177.734 0 0)
(173.425 0 0)
(168.798 0 0)
(163.798 0 0)
(158.367 0 0)
(152.461 0 0)
(146.098 0 0)
(139.411 0 0)
(132.672 0 0)
(126.248 0 0)
(120.486 0 0)
(115.616 0 0)
(111.71 0 0)
(108.711 0 0)
(106.493 0 0)
(104.911 0 0)
(103.831 0 0)
(103.14 0 0)
(102.75 0 0)
(102.595 0 0)
(102.623 0 0)
(102.797 0 0)
(103.087 0 0)
(103.471 0 0)
(103.933 0 0)
(104.458 0 0)
(105.035 0 0)
(105.658 0 0)
(106.318 0 0)
(107.011 0 0)
(107.73 0 0)
(108.474 0 0)
(109.237 0 0)
(110.019 0 0)
(110.815 0 0)
(111.625 0 0)
(112.446 0 0)
(113.278 0 0)
(114.118 0 0)
(114.966 0 0)
(115.821 0 0)
(116.681 0 0)
(117.546 0 0)
(118.416 0 0)
(119.289 0 0)
(120.165 0 0)
(121.044 0 0)
(121.925 0 0)
(122.808 0 0)
(123.692 0 0)
(124.577 0 0)
(125.463 0 0)
(126.35 0 0)
(127.236 0 0)
(128.123 0 0)
(129.01 0 0)
(129.895 0 0)
(130.784 0 0)
(131.66 0 0)
(132.573 0 0)
(133.366 0 0)
(134.527 0 0)
(223.952 0 0)
(221.838 0 0)
(219.661 0 0)
(217.418 0 0)
(215.104 0 0)
(212.714 0 0)
(210.243 0 0)
(207.685 0 0)
(205.033 0 0)
(202.279 0 0)
(199.414 0 0)
(196.427 0 0)
(193.306 0 0)
(190.036 0 0)
(186.601 0 0)
(182.978 0 0)
(179.142 0 0)
(175.063 0 0)
(170.701 0 0)
(166.011 0 0)
(160.939 0 0)
(155.433 0 0)
(149.474 0 0)
(143.119 0 0)
(136.548 0 0)
(130.059 0 0)
(124.001 0 0)
(118.67 0 0)
(114.229 0 0)
(110.701 0 0)
(108.006 0 0)
(106.018 0 0)
(104.601 0 0)
(103.634 0 0)
(103.019 0 0)
(102.677 0 0)
(102.55 0 0)
(102.591 0 0)
(102.767 0 0)
(103.051 0 0)
(103.424 0 0)
(103.87 0 0)
(104.376 0 0)
(104.933 0 0)
(105.532 0 0)
(106.168 0 0)
(106.834 0 0)
(107.527 0 0)
(108.244 0 0)
(108.98 0 0)
(109.733 0 0)
(110.501 0 0)
(111.282 0 0)
(112.075 0 0)
(112.878 0 0)
(113.689 0 0)
(114.509 0 0)
(115.334 0 0)
(116.166 0 0)
(117.002 0 0)
(117.843 0 0)
(118.688 0 0)
(119.536 0 0)
(120.387 0 0)
(121.239 0 0)
(122.094 0 0)
(122.95 0 0)
(123.808 0 0)
(124.666 0 0)
(125.525 0 0)
(126.384 0 0)
(127.244 0 0)
(128.103 0 0)
(128.962 0 0)
(129.823 0 0)
(130.672 0 0)
(131.558 0 0)
(132.328 0 0)
(133.453 0 0)
(221.507 0 0)
(219.39 0 0)
(217.21 0 0)
(214.964 0 0)
(212.645 0 0)
(210.251 0 0)
(207.774 0 0)
(205.209 0 0)
(202.548 0 0)
(199.784 0 0)
(196.907 0 0)
(193.906 0 0)
(190.767 0 0)
(187.476 0 0)
(184.015 0 0)
(180.36 0 0)
(176.486 0 0)
(172.36 0 0)
(167.942 0 0)
(163.185 0 0)
(158.039 0 0)
(152.466 0 0)
(146.477 0 0)
(140.17 0 0)
(133.764 0 0)
(127.568 0 0)
(121.901 0 0)
(116.999 0 0)
(112.966 0 0)
(109.788 0 0)
(107.37 0 0)
(105.589 0 0)
(104.321 0 0)
(103.457 0 0)
(102.91 0 0)
(102.612 0 0)
(102.509 0 0)
(102.561 0 0)
(102.739 0 0)
(103.017 0 0)
(103.379 0 0)
(103.81 0 0)
(104.298 0 0)
(104.834 0 0)
(105.411 0 0)
(106.023 0 0)
(106.665 0 0)
(107.332 0 0)
(108.022 0 0)
(108.731 0 0)
(109.457 0 0)
(110.198 0 0)
(110.952 0 0)
(111.717 0 0)
(112.492 0 0)
(113.276 0 0)
(114.067 0 0)
(114.865 0 0)
(115.668 0 0)
(116.477 0 0)
(117.29 0 0)
(118.107 0 0)
(118.927 0 0)
(119.75 0 0)
(120.576 0 0)
(121.403 0 0)
(122.232 0 0)
(123.063 0 0)
(123.894 0 0)
(124.726 0 0)
(125.558 0 0)
(126.391 0 0)
(127.224 0 0)
(128.056 0 0)
(128.891 0 0)
(129.714 0 0)
(130.573 0 0)
(131.32 0 0)
(132.409 0 0)
(219.057 0 0)
(216.937 0 0)
(214.754 0 0)
(212.503 0 0)
(210.18 0 0)
(207.78 0 0)
(205.296 0 0)
(202.724 0 0)
(200.054 0 0)
(197.278 0 0)
(194.388 0 0)
(191.37 0 0)
(188.212 0 0)
(184.897 0 0)
(181.406 0 0)
(177.717 0 0)
(173.8 0 0)
(169.623 0 0)
(165.144 0 0)
(160.317 0 0)
(155.1 0 0)
(149.475 0 0)
(143.484 0 0)
(137.27 0 0)
(131.079 0 0)
(125.214 0 0)
(119.951 0 0)
(115.469 0 0)
(111.821 0 0)
(108.964 0 0)
(106.798 0 0)
(105.204 0 0)
(104.069 0 0)
(103.297 0 0)
(102.812 0 0)
(102.552 0 0)
(102.471 0 0)
(102.534 0 0)
(102.712 0 0)
(102.985 0 0)
(103.336 0 0)
(103.752 0 0)
(104.223 0 0)
(104.739 0 0)
(105.295 0 0)
(105.884 0 0)
(106.501 0 0)
(107.144 0 0)
(107.809 0 0)
(108.492 0 0)
(109.192 0 0)
(109.906 0 0)
(110.633 0 0)
(111.372 0 0)
(112.119 0 0)
(112.876 0 0)
(113.64 0 0)
(114.411 0 0)
(115.187 0 0)
(115.969 0 0)
(116.755 0 0)
(117.545 0 0)
(118.339 0 0)
(119.135 0 0)
(119.934 0 0)
(120.734 0 0)
(121.537 0 0)
(122.341 0 0)
(123.146 0 0)
(123.951 0 0)
(124.758 0 0)
(125.565 0 0)
(126.372 0 0)
(127.178 0 0)
(127.987 0 0)
(128.785 0 0)
(129.617 0 0)
(130.341 0 0)
(131.397 0 0)
(216.601 0 0)
(214.477 0 0)
(212.291 0 0)
(210.036 0 0)
(207.707 0 0)
(205.301 0 0)
(202.81 0 0)
(200.228 0 0)
(197.548 0 0)
(194.76 0 0)
(191.854 0 0)
(188.818 0 0)
(185.637 0 0)
(182.296 0 0)
(178.773 0 0)
(175.045 0 0)
(171.082 0 0)
(166.848 0 0)
(162.305 0 0)
(157.408 0 0)
(152.128 0 0)
(146.47 0 0)
(140.516 0 0)
(134.443 0 0)
(128.512 0 0)
(123.006 0 0)
(118.152 0 0)
(114.074 0 0)
(110.785 0 0)
(108.223 0 0)
(106.283 0 0)
(104.857 0 0)
(103.842 0 0)
(103.153 0 0)
(102.723 0 0)
(102.499 0 0)
(102.438 0 0)
(102.509 0 0)
(102.688 0 0)
(102.955 0 0)
(103.295 0 0)
(103.697 0 0)
(104.151 0 0)
(104.648 0 0)
(105.183 0 0)
(105.75 0 0)
(106.345 0 0)
(106.963 0 0)
(107.604 0 0)
(108.262 0 0)
(108.936 0 0)
(109.625 0 0)
(110.326 0 0)
(111.038 0 0)
(111.76 0 0)
(112.49 0 0)
(113.228 0 0)
(113.972 0 0)
(114.723 0 0)
(115.478 0 0)
(116.238 0 0)
(117.002 0 0)
(117.769 0 0)
(118.539 0 0)
(119.312 0 0)
(120.087 0 0)
(120.864 0 0)
(121.642 0 0)
(122.421 0 0)
(123.201 0 0)
(123.982 0 0)
(124.763 0 0)
(125.545 0 0)
(126.326 0 0)
(127.11 0 0)
(127.884 0 0)
(128.689 0 0)
(129.392 0 0)
(130.414 0 0)
(214.138 0 0)
(212.012 0 0)
(209.821 0 0)
(207.561 0 0)
(205.227 0 0)
(202.813 0 0)
(200.314 0 0)
(197.722 0 0)
(195.029 0 0)
(192.227 0 0)
(189.304 0 0)
(186.247 0 0)
(183.042 0 0)
(179.671 0 0)
(176.112 0 0)
(172.341 0 0)
(168.327 0 0)
(164.035 0 0)
(159.424 0 0)
(154.461 0 0)
(149.13 0 0)
(143.469 0 0)
(137.593 0 0)
(131.71 0 0)
(126.079 0 0)
(120.95 0 0)
(116.502 0 0)
(112.808 0 0)
(109.851 0 0)
(107.555 0 0)
(105.82 0 0)
(104.545 0 0)
(103.637 0 0)
(103.024 0 0)
(102.644 0 0)
(102.45 0 0)
(102.407 0 0)
(102.486 0 0)
(102.665 0 0)
(102.926 0 0)
(103.256 0 0)
(103.644 0 0)
(104.081 0 0)
(104.56 0 0)
(105.075 0 0)
(105.621 0 0)
(106.194 0 0)
(106.79 0 0)
(107.406 0 0)
(108.04 0 0)
(108.69 0 0)
(109.354 0 0)
(110.03 0 0)
(110.717 0 0)
(111.413 0 0)
(112.118 0 0)
(112.83 0 0)
(113.549 0 0)
(114.274 0 0)
(115.004 0 0)
(115.738 0 0)
(116.477 0 0)
(117.218 0 0)
(117.963 0 0)
(118.711 0 0)
(119.46 0 0)
(120.212 0 0)
(120.965 0 0)
(121.719 0 0)
(122.474 0 0)
(123.231 0 0)
(123.987 0 0)
(124.744 0 0)
(125.501 0 0)
(126.26 0 0)
(127.01 0 0)
(127.79 0 0)
(128.472 0 0)
(129.461 0 0)
(211.67 0 0)
(209.539 0 0)
(207.344 0 0)
(205.078 0 0)
(202.737 0 0)
(200.315 0 0)
(197.806 0 0)
(195.203 0 0)
(192.497 0 0)
(189.678 0 0)
(186.736 0 0)
(183.656 0 0)
(180.423 0 0)
(177.019 0 0)
(173.422 0 0)
(169.604 0 0)
(165.535 0 0)
(161.18 0 0)
(156.503 0 0)
(151.48 0 0)
(146.119 0 0)
(140.489 0 0)
(134.739 0 0)
(129.091 0 0)
(123.791 0 0)
(119.051 0 0)
(114.997 0 0)
(111.663 0 0)
(109.01 0 0)
(106.956 0 0)
(105.405 0 0)
(104.264 0 0)
(103.453 0 0)
(102.907 0 0)
(102.572 0 0)
(102.407 0 0)
(102.379 0 0)
(102.465 0 0)
(102.643 0 0)
(102.899 0 0)
(103.219 0 0)
(103.594 0 0)
(104.015 0 0)
(104.476 0 0)
(104.972 0 0)
(105.497 0 0)
(106.048 0 0)
(106.622 0 0)
(107.216 0 0)
(107.827 0 0)
(108.453 0 0)
(109.093 0 0)
(109.744 0 0)
(110.407 0 0)
(111.079 0 0)
(111.759 0 0)
(112.446 0 0)
(113.141 0 0)
(113.84 0 0)
(114.546 0 0)
(115.255 0 0)
(115.969 0 0)
(116.686 0 0)
(117.406 0 0)
(118.129 0 0)
(118.854 0 0)
(119.581 0 0)
(120.31 0 0)
(121.04 0 0)
(121.771 0 0)
(122.503 0 0)
(123.235 0 0)
(123.968 0 0)
(124.701 0 0)
(125.436 0 0)
(126.162 0 0)
(126.918 0 0)
(127.579 0 0)
(128.536 0 0)
(209.194 0 0)
(207.059 0 0)
(204.858 0 0)
(202.586 0 0)
(200.237 0 0)
(197.806 0 0)
(195.287 0 0)
(192.67 0 0)
(189.949 0 0)
(187.112 0 0)
(184.148 0 0)
(181.042 0 0)
(177.779 0 0)
(174.339 0 0)
(170.698 0 0)
(166.829 0 0)
(162.702 0 0)
(158.283 0 0)
(153.543 0 0)
(148.475 0 0)
(143.111 0 0)
(137.554 0 0)
(131.977 0 0)
(126.604 0 0)
(121.658 0 0)
(117.306 0 0)
(113.63 0 0)
(110.631 0 0)
(108.255 0 0)
(106.419 0 0)
(105.032 0 0)
(104.012 0 0)
(103.288 0 0)
(102.802 0 0)
(102.507 0 0)
(102.368 0 0)
(102.355 0 0)
(102.446 0 0)
(102.623 0 0)
(102.873 0 0)
(103.183 0 0)
(103.545 0 0)
(103.951 0 0)
(104.396 0 0)
(104.873 0 0)
(105.378 0 0)
(105.909 0 0)
(106.461 0 0)
(107.033 0 0)
(107.621 0 0)
(108.224 0 0)
(108.841 0 0)
(109.469 0 0)
(110.108 0 0)
(110.756 0 0)
(111.412 0 0)
(112.076 0 0)
(112.746 0 0)
(113.422 0 0)
(114.103 0 0)
(114.788 0 0)
(115.478 0 0)
(116.171 0 0)
(116.867 0 0)
(117.566 0 0)
(118.267 0 0)
(118.971 0 0)
(119.675 0 0)
(120.382 0 0)
(121.089 0 0)
(121.798 0 0)
(122.507 0 0)
(123.216 0 0)
(123.926 0 0)
(124.638 0 0)
(125.341 0 0)
(126.072 0 0)
(126.713 0 0)
(127.639 0 0)
(206.71 0 0)
(204.57 0 0)
(202.363 0 0)
(200.083 0 0)
(197.726 0 0)
(195.285 0 0)
(192.753 0 0)
(190.122 0 0)
(187.383 0 0)
(184.526 0 0)
(181.538 0 0)
(178.404 0 0)
(175.106 0 0)
(171.626 0 0)
(167.938 0 0)
(164.015 0 0)
(159.827 0 0)
(155.345 0 0)
(150.552 0 0)
(145.458 0 0)
(140.126 0 0)
(134.686 0 0)
(129.327 0 0)
(124.263 0 0)
(119.684 0 0)
(115.713 0 0)
(112.393 0 0)
(109.702 0 0)
(107.578 0 0)
(105.937 0 0)
(104.697 0 0)
(103.786 0 0)
(103.14 0 0)
(102.708 0 0)
(102.449 0 0)
(102.333 0 0)
(102.332 0 0)
(102.428 0 0)
(102.604 0 0)
(102.848 0 0)
(103.149 0 0)
(103.499 0 0)
(103.89 0 0)
(104.318 0 0)
(104.777 0 0)
(105.264 0 0)
(105.775 0 0)
(106.306 0 0)
(106.856 0 0)
(107.423 0 0)
(108.004 0 0)
(108.598 0 0)
(109.204 0 0)
(109.82 0 0)
(110.445 0 0)
(111.078 0 0)
(111.718 0 0)
(112.365 0 0)
(113.018 0 0)
(113.675 0 0)
(114.338 0 0)
(115.004 0 0)
(115.674 0 0)
(116.346 0 0)
(117.022 0 0)
(117.7 0 0)
(118.38 0 0)
(119.062 0 0)
(119.745 0 0)
(120.43 0 0)
(121.115 0 0)
(121.801 0 0)
(122.488 0 0)
(123.174 0 0)
(123.864 0 0)
(124.545 0 0)
(125.253 0 0)
(125.874 0 0)
(126.769 0 0)
(204.218 0 0)
(202.072 0 0)
(199.857 0 0)
(197.569 0 0)
(195.202 0 0)
(192.749 0 0)
(190.203 0 0)
(187.556 0 0)
(184.798 0 0)
(181.918 0 0)
(178.903 0 0)
(175.737 0 0)
(172.402 0 0)
(168.878 0 0)
(165.139 0 0)
(161.159 0 0)
(156.911 0 0)
(152.371 0 0)
(147.538 0 0)
(142.446 0 0)
(137.186 0 0)
(131.909 0 0)
(126.809 0 0)
(122.079 0 0)
(117.87 0 0)
(114.265 0 0)
(111.278 0 0)
(108.869 0 0)
(106.97 0 0)
(105.505 0 0)
(104.397 0 0)
(103.583 0 0)
(103.006 0 0)
(102.623 0 0)
(102.397 0 0)
(102.301 0 0)
(102.312 0 0)
(102.412 0 0)
(102.586 0 0)
(102.824 0 0)
(103.116 0 0)
(103.454 0 0)
(103.831 0 0)
(104.244 0 0)
(104.686 0 0)
(105.154 0 0)
(105.645 0 0)
(106.157 0 0)
(106.687 0 0)
(107.233 0 0)
(107.792 0 0)
(108.365 0 0)
(108.949 0 0)
(109.542 0 0)
(110.145 0 0)
(110.756 0 0)
(111.373 0 0)
(111.998 0 0)
(112.628 0 0)
(113.263 0 0)
(113.902 0 0)
(114.546 0 0)
(115.193 0 0)
(115.843 0 0)
(116.496 0 0)
(117.151 0 0)
(117.809 0 0)
(118.468 0 0)
(119.129 0 0)
(119.791 0 0)
(120.454 0 0)
(121.118 0 0)
(121.783 0 0)
(122.447 0 0)
(123.114 0 0)
(123.773 0 0)
(124.459 0 0)
(125.06 0 0)
(125.925 0 0)
(201.716 0 0)
(199.563 0 0)
(197.34 0 0)
(195.043 0 0)
(192.664 0 0)
(190.198 0 0)
(187.636 0 0)
(184.971 0 0)
(182.191 0 0)
(179.286 0 0)
(176.24 0 0)
(173.039 0 0)
(169.664 0 0)
(166.092 0 0)
(162.3 0 0)
(158.262 0 0)
(153.954 0 0)
(149.367 0 0)
(144.516 0 0)
(139.46 0 0)
(134.315 0 0)
(129.246 0 0)
(124.438 0 0)
(120.056 0 0)
(116.213 0 0)
(112.956 0 0)
(110.276 0 0)
(108.122 0 0)
(106.426 0 0)
(105.117 0 0)
(104.128 0 0)
(103.4 0 0)
(102.886 0 0)
(102.547 0 0)
(102.351 0 0)
(102.273 0 0)
(102.294 0 0)
(102.397 0 0)
(102.57 0 0)
(102.802 0 0)
(103.085 0 0)
(103.411 0 0)
(103.775 0 0)
(104.172 0 0)
(104.598 0 0)
(105.048 0 0)
(105.521 0 0)
(106.014 0 0)
(106.524 0 0)
(107.049 0 0)
(107.588 0 0)
(108.14 0 0)
(108.702 0 0)
(109.275 0 0)
(109.856 0 0)
(110.445 0 0)
(111.041 0 0)
(111.643 0 0)
(112.251 0 0)
(112.864 0 0)
(113.482 0 0)
(114.103 0 0)
(114.728 0 0)
(115.356 0 0)
(115.987 0 0)
(116.621 0 0)
(117.256 0 0)
(117.894 0 0)
(118.533 0 0)
(119.173 0 0)
(119.814 0 0)
(120.457 0 0)
(121.1 0 0)
(121.742 0 0)
(122.388 0 0)
(123.026 0 0)
(123.689 0 0)
(124.272 0 0)
(125.108 0 0)
(199.203 0 0)
(197.042 0 0)
(194.81 0 0)
(192.502 0 0)
(190.11 0 0)
(187.629 0 0)
(185.05 0 0)
(182.364 0 0)
(179.56 0 0)
(176.626 0 0)
(173.548 0 0)
(170.308 0 0)
(166.888 0 0)
(163.266 0 0)
(159.418 0 0)
(155.322 0 0)
(150.963 0 0)
(146.345 0 0)
(141.503 0 0)
(136.523 0 0)
(131.539 0 0)
(126.717 0 0)
(122.225 0 0)
(118.196 0 0)
(114.707 0 0)
(111.776 0 0)
(109.376 0 0)
(107.453 0 0)
(105.94 0 0)
(104.771 0 0)
(103.887 0 0)
(103.237 0 0)
(102.779 0 0)
(102.479 0 0)
(102.309 0 0)
(102.248 0 0)
(102.278 0 0)
(102.384 0 0)
(102.554 0 0)
(102.781 0 0)
(103.055 0 0)
(103.37 0 0)
(103.721 0 0)
(104.103 0 0)
(104.513 0 0)
(104.947 0 0)
(105.402 0 0)
(105.876 0 0)
(106.367 0 0)
(106.873 0 0)
(107.392 0 0)
(107.923 0 0)
(108.465 0 0)
(109.017 0 0)
(109.577 0 0)
(110.145 0 0)
(110.72 0 0)
(111.301 0 0)
(111.888 0 0)
(112.479 0 0)
(113.075 0 0)
(113.676 0 0)
(114.279 0 0)
(114.886 0 0)
(115.496 0 0)
(116.108 0 0)
(116.722 0 0)
(117.338 0 0)
(117.956 0 0)
(118.575 0 0)
(119.195 0 0)
(119.816 0 0)
(120.438 0 0)
(121.06 0 0)
(121.685 0 0)
(122.302 0 0)
(122.943 0 0)
(123.508 0 0)
(124.316 0 0)
(196.678 0 0)
(194.508 0 0)
(192.265 0 0)
(189.945 0 0)
(187.539 0 0)
(185.041 0 0)
(182.442 0 0)
(179.733 0 0)
(176.902 0 0)
(173.937 0 0)
(170.822 0 0)
(167.541 0 0)
(164.073 0 0)
(160.398 0 0)
(156.494 0 0)
(152.345 0 0)
(147.946 0 0)
(143.319 0 0)
(138.522 0 0)
(133.661 0 0)
(128.88 0 0)
(124.337 0 0)
(120.177 0 0)
(116.498 0 0)
(113.345 0 0)
(110.716 0 0)
(108.571 0 0)
(106.855 0 0)
(105.504 0 0)
(104.46 0 0)
(103.67 0 0)
(103.09 0 0)
(102.682 0 0)
(102.418 0 0)
(102.272 0 0)
(102.226 0 0)
(102.263 0 0)
(102.371 0 0)
(102.54 0 0)
(102.761 0 0)
(103.026 0 0)
(103.331 0 0)
(103.669 0 0)
(104.037 0 0)
(104.432 0 0)
(104.849 0 0)
(105.287 0 0)
(105.744 0 0)
(106.216 0 0)
(106.703 0 0)
(107.203 0 0)
(107.715 0 0)
(108.237 0 0)
(108.768 0 0)
(109.308 0 0)
(109.856 0 0)
(110.41 0 0)
(110.971 0 0)
(111.537 0 0)
(112.108 0 0)
(112.683 0 0)
(113.263 0 0)
(113.846 0 0)
(114.432 0 0)
(115.021 0 0)
(115.612 0 0)
(116.206 0 0)
(116.801 0 0)
(117.398 0 0)
(117.997 0 0)
(118.596 0 0)
(119.197 0 0)
(119.798 0 0)
(120.4 0 0)
(121.004 0 0)
(121.601 0 0)
(122.221 0 0)
(122.768 0 0)
(123.548 0 0)
(194.139 0 0)
(191.958 0 0)
(189.704 0 0)
(187.37 0 0)
(184.948 0 0)
(182.431 0 0)
(179.81 0 0)
(177.075 0 0)
(174.214 0 0)
(171.215 0 0)
(168.06 0 0)
(164.734 0 0)
(161.216 0 0)
(157.488 0 0)
(153.531 0 0)
(149.337 0 0)
(144.917 0 0)
(140.31 0 0)
(135.598 0 0)
(130.898 0 0)
(126.358 0 0)
(122.118 0 0)
(118.295 0 0)
(114.955 0 0)
(112.118 0 0)
(109.765 0 0)
(107.851 0 0)
(106.32 0 0)
(105.114 0 0)
(104.182 0 0)
(103.476 0 0)
(102.958 0 0)
(102.596 0 0)
(102.363 0 0)
(102.239 0 0)
(102.206 0 0)
(102.25 0 0)
(102.36 0 0)
(102.526 0 0)
(102.742 0 0)
(102.999 0 0)
(103.293 0 0)
(103.619 0 0)
(103.974 0 0)
(104.354 0 0)
(104.755 0 0)
(105.177 0 0)
(105.616 0 0)
(106.071 0 0)
(106.54 0 0)
(107.021 0 0)
(107.514 0 0)
(108.017 0 0)
(108.529 0 0)
(109.05 0 0)
(109.578 0 0)
(110.112 0 0)
(110.653 0 0)
(111.199 0 0)
(111.75 0 0)
(112.305 0 0)
(112.864 0 0)
(113.427 0 0)
(113.993 0 0)
(114.562 0 0)
(115.133 0 0)
(115.707 0 0)
(116.282 0 0)
(116.859 0 0)
(117.437 0 0)
(118.017 0 0)
(118.598 0 0)
(119.179 0 0)
(119.761 0 0)
(120.345 0 0)
(120.922 0 0)
(121.522 0 0)
(122.051 0 0)
(122.805 0 0)
(191.585 0 0)
(189.393 0 0)
(187.125 0 0)
(184.775 0 0)
(182.334 0 0)
(179.796 0 0)
(177.151 0 0)
(174.387 0 0)
(171.494 0 0)
(168.457 0 0)
(165.26 0 0)
(161.886 0 0)
(158.317 0 0)
(154.536 0 0)
(150.532 0 0)
(146.309 0 0)
(141.892 0 0)
(137.342 0 0)
(132.755 0 0)
(128.258 0 0)
(123.989 0 0)
(120.067 0 0)
(116.577 0 0)
(113.561 0 0)
(111.017 0 0)
(108.915 0 0)
(107.207 0 0)
(105.842 0 0)
(104.766 0 0)
(103.933 0 0)
(103.302 0 0)
(102.84 0 0)
(102.519 0 0)
(102.315 0 0)
(102.21 0 0)
(102.188 0 0)
(102.239 0 0)
(102.35 0 0)
(102.514 0 0)
(102.723 0 0)
(102.973 0 0)
(103.257 0 0)
(103.571 0 0)
(103.913 0 0)
(104.279 0 0)
(104.665 0 0)
(105.071 0 0)
(105.494 0 0)
(105.931 0 0)
(106.383 0 0)
(106.846 0 0)
(107.321 0 0)
(107.805 0 0)
(108.299 0 0)
(108.8 0 0)
(109.309 0 0)
(109.824 0 0)
(110.346 0 0)
(110.873 0 0)
(111.404 0 0)
(111.94 0 0)
(112.48 0 0)
(113.023 0 0)
(113.57 0 0)
(114.119 0 0)
(114.671 0 0)
(115.224 0 0)
(115.78 0 0)
(116.338 0 0)
(116.897 0 0)
(117.457 0 0)
(118.018 0 0)
(118.58 0 0)
(119.142 0 0)
(119.707 0 0)
(120.265 0 0)
(120.845 0 0)
(121.357 0 0)
(122.085 0 0)
(189.014 0 0)
(186.809 0 0)
(184.526 0 0)
(182.158 0 0)
(179.697 0 0)
(177.135 0 0)
(174.462 0 0)
(171.668 0 0)
(168.739 0 0)
(165.661 0 0)
(162.418 0 0)
(158.995 0 0)
(155.375 0 0)
(151.547 0 0)
(147.508 0 0)
(143.276 0 0)
(138.893 0 0)
(134.439 0 0)
(130.019 0 0)
(125.761 0 0)
(121.784 0 0)
(118.184 0 0)
(115.019 0 0)
(112.306 0 0)
(110.03 0 0)
(108.155 0 0)
(106.633 0 0)
(105.414 0 0)
(104.454 0 0)
(103.71 0 0)
(103.146 0 0)
(102.734 0 0)
(102.449 0 0)
(102.271 0 0)
(102.184 0 0)
(102.173 0 0)
(102.228 0 0)
(102.341 0 0)
(102.502 0 0)
(102.706 0 0)
(102.948 0 0)
(103.222 0 0)
(103.525 0 0)
(103.855 0 0)
(104.206 0 0)
(104.579 0 0)
(104.969 0 0)
(105.376 0 0)
(105.797 0 0)
(106.232 0 0)
(106.678 0 0)
(107.135 0 0)
(107.601 0 0)
(108.077 0 0)
(108.56 0 0)
(109.05 0 0)
(109.547 0 0)
(110.05 0 0)
(110.558 0 0)
(111.071 0 0)
(111.588 0 0)
(112.109 0 0)
(112.633 0 0)
(113.16 0 0)
(113.691 0 0)
(114.223 0 0)
(114.758 0 0)
(115.295 0 0)
(115.834 0 0)
(116.374 0 0)
(116.915 0 0)
(117.457 0 0)
(118 0 0)
(118.543 0 0)
(119.089 0 0)
(119.629 0 0)
(120.189 0 0)
(120.685 0 0)
(121.387 0 0)
(186.424 0 0)
(184.204 0 0)
(181.904 0 0)
(179.516 0 0)
(177.032 0 0)
(174.444 0 0)
(171.741 0 0)
(168.912 0 0)
(165.945 0 0)
(162.824 0 0)
(159.534 0 0)
(156.062 0 0)
(152.395 0 0)
(148.528 0 0)
(144.472 0 0)
(140.257 0 0)
(135.946 0 0)
(131.628 0 0)
(127.414 0 0)
(123.421 0 0)
(119.749 0 0)
(116.468 0 0)
(113.612 0 0)
(111.18 0 0)
(109.148 0 0)
(107.476 0 0)
(106.119 0 0)
(105.033 0 0)
(104.175 0 0)
(103.51 0 0)
(103.007 0 0)
(102.64 0 0)
(102.387 0 0)
(102.233 0 0)
(102.161 0 0)
(102.159 0 0)
(102.219 0 0)
(102.332 0 0)
(102.491 0 0)
(102.69 0 0)