/*--------------------------------*- C++ -*----------------------------------*\
| =========                 |                                                 |
| \\      /  F ield         | OpenFOAM: The Open Source CFD Toolbox           |
|  \\    /   O peration     | Version:  2312                                  |
|   \\  /    A nd           | Website:  www.openfoam.com                      |
|    \\/     M anipulation  |                                                 |
\*---------------------------------------------------------------------------*/
FoamFile
{
    version     2.0;
    format      ascii;
    arch        "LSB;label=32;scalar=64";
    class       volScalarField;
    location    "1.1";
    object      wave;
}
// * * * * * * * * * * * * * * * * * * * * * * * * * * * * * * * * * * * * * //

dimensions      [0 0 0 0 0 0 0];

internalField   nonuniform List<scalar> 
100
(
0.924352
0.973025
0.997254
0.996429
0.970572
0.920332
0.846971
0.752332
0.638794
0.509207
0.366828
0.215233
0.058231
-0.100234
-0.25618
-0.405691
-0.54501
-0.670637
-0.779416
-0.868615
-0.935992
-0.979855
-0.999101
-0.993248
-0.962443
-0.907459
-0.829677
-0.731052
-0.614061
-0.481644
-0.337127
-0.18414
-0.0265277
0.131751
0.28672
0.434487
0.571337
0.693835
0.798902
0.883898
0.94669
0.985698
0.999943
0.989068
0.953345
0.893671
0.811547
0.709035
0.588711
0.453596
0.307087
0.152862
-0.00520239
-0.163136
-0.316972
-0.462844
-0.597089
-0.716334
-0.817583
-0.898292
-0.956434
-0.990548
-0.999778
-0.983891
-0.943287
-0.878985
-0.7926
-0.686305
-0.562767
-0.425092
-0.276737
-0.12143
0.0369272
0.194357
0.346904
0.490736
0.62224
0.738112
0.83544
0.911781
0.965215
0.994402
0.998606
0.977724
0.932279
0.863413
0.772856
0.662883
0.536257
0.396159
0.246109
0.089876
-0.0686149
-0.225382
-0.376487
-0.518134
-0.646764
-0.759146
-0.852457
-0.924352
)
;

boundaryField
{
    movingWall
    {
        type            calculated;
        value           uniform 0;
    }
    fixedWalls
    {
        type            calculated;
        value           uniform 0;
    }
    frontAndBack
    {
        type            empty;
    }
}


// ************************************************************************* //
