/*--------------------------------*- C++ -*----------------------------------*\
| =========                 |                                                 |
| \\      /  F ield         | OpenFOAM: The Open Source CFD Toolbox           |
|  \\    /   O peration     | Version:  2312                                  |
|   \\  /    A nd           | Website:  www.openfoam.com                      |
|    \\/     M anipulation  |                                                 |
\*---------------------------------------------------------------------------*/
FoamFile
{
    version     2.0;
    format      ascii;
    arch        "LSB;label=32;scalar=64";
    class       volVectorField;
    location    "0.435";
    object      U;
}
// * * * * * * * * * * * * * * * * * * * * * * * * * * * * * * * * * * * * * //

dimensions      [0 1 -1 0 0 0 0];

internalField   nonuniform List<vector> 
31205
(
(297.381 0 0)
(296.908 0 0)
(296.397 0 0)
(295.845 0 0)
(295.254 0 0)
(294.622 0 0)
(293.949 0 0)
(293.234 0 0)
(292.476 0 0)
(291.674 0 0)
(290.828 0 0)
(289.936 0 0)
(288.997 0 0)
(288.011 0 0)
(286.975 0 0)
(285.889 0 0)
(284.751 0 0)
(283.558 0 0)
(282.31 0 0)
(281.004 0 0)
(279.638 0 0)
(278.209 0 0)
(276.714 0 0)
(275.152 0 0)
(273.517 0 0)
(271.806 0 0)
(270.016 0 0)
(268.14 0 0)
(266.174 0 0)
(264.112 0 0)
(261.946 0 0)
(259.668 0 0)
(257.268 0 0)
(254.736 0 0)
(252.057 0 0)
(249.215 0 0)
(246.191 0 0)
(242.96 0 0)
(239.491 0 0)
(235.741 0 0)
(231.641 0 0)
(227.117 0 0)
(222.152 0 0)
(216.664 0 0)
(209.729 0 0)
(198.599 0 0)
(180.31 0 0)
(156.68 0 0)
(134.779 0 0)
(119.752 0 0)
(111.405 0 0)
(107.314 0 0)
(105.492 0 0)
(104.824 0 0)
(104.761 0 0)
(105.033 0 0)
(105.508 0 0)
(106.114 0 0)
(106.811 0 0)
(107.574 0 0)
(108.388 0 0)
(109.24 0 0)
(110.123 0 0)
(111.032 0 0)
(111.962 0 0)
(112.908 0 0)
(113.87 0 0)
(114.843 0 0)
(115.826 0 0)
(116.818 0 0)
(117.818 0 0)
(118.823 0 0)
(119.834 0 0)
(120.848 0 0)
(121.87 0 0)
(122.88 0 0)
(123.941 0 0)
(124.853 0 0)
(126.232 0 0)
(296.877 0 0)
(296.379 0 0)
(295.844 0 0)
(295.272 0 0)
(294.661 0 0)
(294.011 0 0)
(293.322 0 0)
(292.592 0 0)
(291.822 0 0)
(291.01 0 0)
(290.155 0 0)
(289.257 0 0)
(288.314 0 0)
(287.324 0 0)
(286.288 0 0)
(285.203 0 0)
(284.068 0 0)
(282.881 0 0)
(281.64 0 0)
(280.344 0 0)
(278.99 0 0)
(277.576 0 0)
(276.099 0 0)
(274.556 0 0)
(272.944 0 0)
(271.26 0 0)
(269.499 0 0)
(267.656 0 0)
(265.727 0 0)
(263.706 0 0)
(261.586 0 0)
(259.359 0 0)
(257.016 0 0)
(254.547 0 0)
(251.939 0 0)
(249.178 0 0)
(246.244 0 0)
(243.115 0 0)
(239.765 0 0)
(236.155 0 0)
(232.226 0 0)
(227.903 0 0)
(223.145 0 0)
(217.94 0 0)
(211.778 0 0)
(202.563 0 0)
(186.972 0 0)
(164.693 0 0)
(141.523 0 0)
(124.018 0 0)
(113.647 0 0)
(108.354 0 0)
(105.892 0 0)
(104.88 0 0)
(104.616 0 0)
(104.758 0 0)
(105.139 0 0)
(105.671 0 0)
(106.304 0 0)
(107.011 0 0)
(107.773 0 0)
(108.578 0 0)
(109.416 0 0)
(110.281 0 0)
(111.169 0 0)
(112.075 0 0)
(112.997 0 0)
(113.931 0 0)
(114.877 0 0)
(115.832 0 0)
(116.795 0 0)
(117.764 0 0)
(118.74 0 0)
(119.719 0 0)
(120.706 0 0)
(121.682 0 0)
(122.708 0 0)
(123.592 0 0)
(124.922 0 0)
(296.317 0 0)
(295.795 0 0)
(295.238 0 0)
(294.645 0 0)
(294.015 0 0)
(293.348 0 0)
(292.643 0 0)
(291.9 0 0)
(291.118 0 0)
(290.295 0 0)
(289.432 0 0)
(288.526 0 0)
(287.578 0 0)
(286.586 0 0)
(285.548 0 0)
(284.463 0 0)
(283.33 0 0)
(282.148 0 0)
(280.914 0 0)
(279.626 0 0)
(278.283 0 0)
(276.882 0 0)
(275.42 0 0)
(273.896 0 0)
(272.305 0 0)
(270.644 0 0)
(268.909 0 0)
(267.097 0 0)
(265.201 0 0)
(263.217 0 0)
(261.138 0 0)
(258.957 0 0)
(256.666 0 0)
(254.254 0 0)
(251.71 0 0)
(249.021 0 0)
(246.168 0 0)
(243.132 0 0)
(239.886 0 0)
(236.399 0 0)
(232.62 0 0)
(228.475 0 0)
(223.909 0 0)
(218.922 0 0)
(213.26 0 0)
(205.43 0 0)
(192.256 0 0)
(171.903 0 0)
(148.352 0 0)
(128.738 0 0)
(116.278 0 0)
(109.637 0 0)
(106.439 0 0)
(105.034 0 0)
(104.547 0 0)
(104.549 0 0)
(104.831 0 0)
(105.285 0 0)
(105.855 0 0)
(106.505 0 0)
(107.216 0 0)
(107.973 0 0)
(108.766 0 0)
(109.588 0 0)
(110.434 0 0)
(111.3 0 0)
(112.183 0 0)
(113.08 0 0)
(113.988 0 0)
(114.906 0 0)
(115.833 0 0)
(116.767 0 0)
(117.708 0 0)
(118.653 0 0)
(119.607 0 0)
(120.55 0 0)
(121.541 0 0)
(122.397 0 0)
(123.678 0 0)
(295.719 0 0)
(295.175 0 0)
(294.597 0 0)
(293.985 0 0)
(293.337 0 0)
(292.655 0 0)
(291.936 0 0)
(291.18 0 0)
(290.386 0 0)
(289.554 0 0)
(288.683 0 0)
(287.771 0 0)
(286.819 0 0)
(285.823 0 0)
(284.784 0 0)
(283.701 0 0)
(282.57 0 0)
(281.392 0 0)
(280.164 0 0)
(278.885 0 0)
(277.552 0 0)
(276.164 0 0)
(274.717 0 0)
(273.21 0 0)
(271.638 0 0)
(270 0 0)
(268.29 0 0)
(266.506 0 0)
(264.642 0 0)
(262.693 0 0)
(260.654 0 0)
(258.516 0 0)
(256.273 0 0)
(253.915 0 0)
(251.431 0 0)
(248.808 0 0)
(246.031 0 0)
(243.08 0 0)
(239.932 0 0)
(236.557 0 0)
(232.912 0 0)
(228.93 0 0)
(224.547 0 0)
(219.75 0 0)
(214.435 0 0)
(207.606 0 0)
(196.507 0 0)
(178.376 0 0)
(155.227 0 0)
(133.948 0 0)
(119.363 0 0)
(111.21 0 0)
(107.154 0 0)
(105.292 0 0)
(104.551 0 0)
(104.398 0 0)
(104.575 0 0)
(104.95 0 0)
(105.454 0 0)
(106.048 0 0)
(106.707 0 0)
(107.417 0 0)
(108.165 0 0)
(108.945 0 0)
(109.75 0 0)
(110.577 0 0)
(111.421 0 0)
(112.28 0 0)
(113.152 0 0)
(114.035 0 0)
(114.926 0 0)
(115.826 0 0)
(116.732 0 0)
(117.643 0 0)
(118.564 0 0)
(119.474 0 0)
(120.431 0 0)
(121.259 0 0)
(122.495 0 0)
(295.092 0 0)
(294.527 0 0)
(293.931 0 0)
(293.301 0 0)
(292.638 0 0)
(291.941 0 0)
(291.21 0 0)
(290.443 0 0)
(289.64 0 0)
(288.8 0 0)
(287.922 0 0)
(287.005 0 0)
(286.049 0 0)
(285.052 0 0)
(284.013 0 0)
(282.931 0 0)
(281.804 0 0)
(280.63 0 0)
(279.41 0 0)
(278.139 0 0)
(276.817 0 0)
(275.441 0 0)
(274.01 0 0)
(272.52 0 0)
(270.968 0 0)
(269.352 0 0)
(267.667 0 0)
(265.911 0 0)
(264.078 0 0)
(262.163 0 0)
(260.162 0 0)
(258.066 0 0)
(255.87 0 0)
(253.564 0 0)
(251.138 0 0)
(248.579 0 0)
(245.874 0 0)
(243.005 0 0)
(239.949 0 0)
(236.68 0 0)
(233.161 0 0)
(229.332 0 0)
(225.124 0 0)
(220.51 0 0)
(215.459 0 0)
(209.361 0 0)
(200.012 0 0)
(184.241 0 0)
(162.192 0 0)
(139.763 0 0)
(123.047 0 0)
(113.17 0 0)
(108.088 0 0)
(105.674 0 0)
(104.634 0 0)
(104.305 0 0)
(104.366 0 0)
(104.656 0 0)
(105.092 0 0)
(105.628 0 0)
(106.236 0 0)
(106.898 0 0)
(107.602 0 0)
(108.34 0 0)
(109.105 0 0)
(109.892 0 0)
(110.698 0 0)
(111.521 0 0)
(112.356 0 0)
(113.204 0 0)
(114.061 0 0)
(114.926 0 0)
(115.799 0 0)
(116.677 0 0)
(117.564 0 0)
(118.443 0 0)
(119.366 0 0)
(120.167 0 0)
(121.36 0 0)
(294.44 0 0)
(293.858 0 0)
(293.245 0 0)
(292.6 0 0)
(291.923 0 0)
(291.214 0 0)
(290.472 0 0)
(289.695 0 0)
(288.884 0 0)
(288.037 0 0)
(287.154 0 0)
(286.234 0 0)
(285.276 0 0)
(284.278 0 0)
(283.24 0 0)
(282.16 0 0)
(281.037 0 0)
(279.87 0 0)
(278.657 0 0)
(277.396 0 0)
(276.085 0 0)
(274.723 0 0)
(273.307 0 0)
(271.834 0 0)
(270.302 0 0)
(268.709 0 0)
(267.049 0 0)
(265.32 0 0)
(263.518 0 0)
(261.638 0 0)
(259.674 0 0)
(257.62 0 0)
(255.47 0 0)
(253.214 0 0)
(250.845 0 0)
(248.349 0 0)
(245.714 0 0)
(242.924 0 0)
(239.957 0 0)
(236.79 0 0)
(233.39 0 0)
(229.706 0 0)
(225.668 0 0)
(221.234 0 0)
(216.4 0 0)
(210.837 0 0)
(202.913 0 0)
(189.489 0 0)
(169.153 0 0)
(146.21 0 0)
(127.456 0 0)
(115.632 0 0)
(109.307 0 0)
(106.214 0 0)
(104.81 0 0)
(104.274 0 0)
(104.204 0 0)
(104.402 0 0)
(104.766 0 0)
(105.242 0 0)
(105.797 0 0)
(106.411 0 0)
(107.071 0 0)
(107.766 0 0)
(108.491 0 0)
(109.24 0 0)
(110.009 0 0)
(110.795 0 0)
(111.595 0 0)
(112.407 0 0)
(113.23 0 0)
(114.062 0 0)
(114.902 0 0)
(115.747 0 0)
(116.602 0 0)
(117.449 0 0)
(118.34 0 0)
(119.113 0 0)
(120.264 0 0)
(293.768 0 0)
(293.17 0 0)
(292.542 0 0)
(291.884 0 0)
(291.195 0 0)
(290.476 0 0)
(289.724 0 0)
(288.939 0 0)
(288.122 0 0)
(287.27 0 0)
(286.383 0 0)
(285.461 0 0)
(284.501 0 0)
(283.504 0 0)
(282.468 0 0)
(281.392 0 0)
(280.274 0 0)
(279.114 0 0)
(277.909 0 0)
(276.658 0 0)
(275.36 0 0)
(274.012 0 0)
(272.611 0 0)
(271.157 0 0)
(269.645 0 0)
(268.074 0 0)
(266.44 0 0)
(264.739 0 0)
(262.968 0 0)
(261.121 0 0)
(259.195 0 0)
(257.182 0 0)
(255.077 0 0)
(252.872 0 0)
(250.557 0 0)
(248.123 0 0)
(245.557 0 0)
(242.843 0 0)
(239.963 0 0)
(236.895 0 0)
(233.608 0 0)
(230.061 0 0)
(226.188 0 0)
(221.933 0 0)
(217.293 0 0)
(212.119 0 0)
(205.307 0 0)
(194.07 0 0)
(175.916 0 0)
(153.207 0 0)
(132.679 0 0)
(118.717 0 0)
(110.895 0 0)
(106.957 0 0)
(105.101 0 0)
(104.315 0 0)
(104.094 0 0)
(104.189 0 0)
(104.476 0 0)
(104.89 0 0)
(105.39 0 0)
(105.956 0 0)
(106.57 0 0)
(107.223 0 0)
(107.908 0 0)
(108.618 0 0)
(109.35 0 0)
(110.1 0 0)
(110.865 0 0)
(111.643 0 0)
(112.432 0 0)
(113.23 0 0)
(114.038 0 0)
(114.851 0 0)
(115.674 0 0)
(116.491 0 0)
(117.349 0 0)
(118.096 0 0)
(119.205 0 0)
(293.077 0 0)
(292.465 0 0)
(291.824 0 0)
(291.155 0 0)
(290.456 0 0)
(289.728 0 0)
(288.968 0 0)
(288.177 0 0)
(287.355 0 0)
(286.499 0 0)
(285.61 0 0)
(284.686 0 0)
(283.727 0 0)
(282.732 0 0)
(281.699 0 0)
(280.627 0 0)
(279.516 0 0)
(278.363 0 0)
(277.168 0 0)
(275.928 0 0)
(274.642 0 0)
(273.308 0 0)
(271.924 0 0)
(270.488 0 0)
(268.998 0 0)
(267.449 0 0)
(265.84 0 0)
(264.168 0 0)
(262.427 0 0)
(260.614 0 0)
(258.725 0 0)
(256.753 0 0)
(254.693 0 0)
(252.537 0 0)
(250.277 0 0)
(247.903 0 0)
(245.403 0 0)
(242.764 0 0)
(239.969 0 0)
(236.995 0 0)
(233.818 0 0)
(230.401 0 0)
(226.685 0 0)
(222.608 0 0)
(218.152 0 0)
(213.268 0 0)
(207.285 0 0)
(197.955 0 0)
(182.253 0 0)
(160.57 0 0)
(138.747 0 0)
(122.552 0 0)
(112.951 0 0)
(107.958 0 0)
(105.537 0 0)
(104.444 0 0)
(104.043 0 0)
(104.022 0 0)
(104.225 0 0)
(104.572 0 0)
(105.016 0 0)
(105.531 0 0)
(106.1 0 0)
(106.711 0 0)
(107.355 0 0)
(108.027 0 0)
(108.722 0 0)
(109.436 0 0)
(110.166 0 0)
(110.91 0 0)
(111.665 0 0)
(112.431 0 0)
(113.206 0 0)
(113.988 0 0)
(114.78 0 0)
(115.566 0 0)
(116.393 0 0)
(117.113 0 0)
(118.183 0 0)
(292.37 0 0)
(291.746 0 0)
(291.094 0 0)
(290.415 0 0)
(289.708 0 0)
(288.972 0 0)
(288.206 0 0)
(287.411 0 0)
(286.584 0 0)
(285.726 0 0)
(284.835 0 0)
(283.912 0 0)
(282.954 0 0)
(281.961 0 0)
(280.932 0 0)
(279.866 0 0)
(278.762 0 0)
(277.618 0 0)
(276.432 0 0)
(275.204 0 0)
(273.932 0 0)
(272.613 0 0)
(271.246 0 0)
(269.829 0 0)
(268.359 0 0)
(266.834 0 0)
(265.251 0 0)
(263.606 0 0)
(261.896 0 0)
(260.117 0 0)
(258.264 0 0)
(256.333 0 0)
(254.317 0 0)
(252.21 0 0)
(250.003 0 0)
(247.688 0 0)
(245.254 0 0)
(242.688 0 0)
(239.974 0 0)
(237.093 0 0)
(234.021 0 0)
(230.727 0 0)
(227.16 0 0)
(223.257 0 0)
(218.983 0 0)
(214.329 0 0)
(208.939 0 0)
(201.168 0 0)
(187.96 0 0)
(168.032 0 0)
(145.61 0 0)
(127.25 0 0)
(115.597 0 0)
(109.294 0 0)
(106.155 0 0)
(104.679 0 0)
(104.062 0 0)
(103.906 0 0)
(104.015 0 0)
(104.29 0 0)
(104.675 0 0)
(105.138 0 0)
(105.661 0 0)
(106.228 0 0)
(106.832 0 0)
(107.466 0 0)
(108.124 0 0)
(108.802 0 0)
(109.497 0 0)
(110.208 0 0)
(110.93 0 0)
(111.664 0 0)
(112.407 0 0)
(113.158 0 0)
(113.919 0 0)
(114.675 0 0)
(115.471 0 0)
(116.165 0 0)
(117.195 0 0)
(291.648 0 0)
(291.014 0 0)
(290.353 0 0)
(289.666 0 0)
(288.952 0 0)
(288.21 0 0)
(287.439 0 0)
(286.64 0 0)
(285.811 0 0)
(284.951 0 0)
(284.061 0 0)
(283.138 0 0)
(282.183 0 0)
(281.194 0 0)
(280.17 0 0)
(279.11 0 0)
(278.013 0 0)
(276.878 0 0)
(275.704 0 0)
(274.488 0 0)
(273.229 0 0)
(271.926 0 0)
(270.577 0 0)
(269.179 0 0)
(267.73 0 0)
(266.229 0 0)
(264.671 0 0)
(263.054 0 0)
(261.375 0 0)
(259.629 0 0)
(257.813 0 0)
(255.922 0 0)
(253.95 0 0)
(251.89 0 0)
(249.736 0 0)
(247.479 0 0)
(245.109 0 0)
(242.613 0 0)
(239.979 0 0)
(237.187 0 0)
(234.216 0 0)
(231.039 0 0)
(227.613 0 0)
(223.879 0 0)
(219.786 0 0)
(215.33 0 0)
(210.359 0 0)
(203.784 0 0)
(192.902 0 0)
(175.283 0 0)
(153.119 0 0)
(132.892 0 0)
(118.968 0 0)
(111.058 0 0)
(107.009 0 0)
(105.047 0 0)
(104.163 0 0)
(103.847 0 0)
(103.85 0 0)
(104.046 0 0)
(104.368 0 0)
(104.778 0 0)
(105.253 0 0)
(105.777 0 0)
(106.34 0 0)
(106.935 0 0)
(107.556 0 0)
(108.198 0 0)
(108.859 0 0)
(109.536 0 0)
(110.226 0 0)
(110.928 0 0)
(111.64 0 0)
(112.36 0 0)
(113.09 0 0)
(113.817 0 0)
(114.583 0 0)
(115.25 0 0)
(116.242 0 0)
(290.915 0 0)
(290.271 0 0)
(289.603 0 0)
(288.909 0 0)
(288.189 0 0)
(287.442 0 0)
(286.668 0 0)
(285.867 0 0)
(285.036 0 0)
(284.176 0 0)
(283.287 0 0)
(282.366 0 0)
(281.414 0 0)
(280.43 0 0)
(279.412 0 0)
(278.359 0 0)
(277.271 0 0)
(276.146 0 0)
(274.982 0 0)
(273.779 0 0)
(272.535 0 0)
(271.248 0 0)
(269.916 0 0)
(268.538 0 0)
(267.111 0 0)
(265.633 0 0)
(264.101 0 0)
(262.512 0 0)
(260.863 0 0)
(259.151 0 0)
(257.371 0 0)
(255.519 0 0)
(253.59 0 0)
(251.578 0 0)
(249.475 0 0)
(247.275 0 0)
(244.967 0 0)
(242.541 0 0)
(239.983 0 0)
(237.277 0 0)
(234.404 0 0)
(231.339 0 0)
(228.046 0 0)
(224.472 0 0)
(220.559 0 0)
(216.29 0 0)
(211.619 0 0)
(205.91 0 0)
(197.029 0 0)
(182.017 0 0)
(161.019 0 0)
(139.497 0 0)
(123.209 0 0)
(113.374 0 0)
(108.168 0 0)
(105.583 0 0)
(104.363 0 0)
(103.854 0 0)
(103.734 0 0)
(103.843 0 0)
(104.097 0 0)
(104.451 0 0)
(104.876 0 0)
(105.356 0 0)
(105.877 0 0)
(106.433 0 0)
(107.017 0 0)
(107.625 0 0)
(108.252 0 0)
(108.895 0 0)
(109.553 0 0)
(110.223 0 0)
(110.904 0 0)
(111.593 0 0)
(112.294 0 0)
(112.992 0 0)
(113.727 0 0)
(114.37 0 0)
(115.323 0 0)
(290.17 0 0)
(289.52 0 0)
(288.845 0 0)
(288.146 0 0)
(287.421 0 0)
(286.671 0 0)
(285.895 0 0)
(285.092 0 0)
(284.261 0 0)
(283.402 0 0)
(282.514 0 0)
(281.597 0 0)
(280.649 0 0)
(279.67 0 0)
(278.658 0 0)
(277.614 0 0)
(276.535 0 0)
(275.42 0 0)
(274.268 0 0)
(273.079 0 0)
(271.849 0 0)
(270.579 0 0)
(269.265 0 0)
(267.907 0 0)
(266.501 0 0)
(265.047 0 0)
(263.54 0 0)
(261.98 0 0)
(260.361 0 0)
(258.682 0 0)
(256.938 0 0)
(255.126 0 0)
(253.239 0 0)
(251.273 0 0)
(249.221 0 0)
(247.075 0 0)
(244.828 0 0)
(242.47 0 0)
(239.987 0 0)
(237.365 0 0)
(234.586 0 0)
(231.627 0 0)
(228.46 0 0)
(225.037 0 0)
(221.3 0 0)
(217.214 0 0)
(212.775 0 0)
(207.665 0 0)
(200.378 0 0)
(187.989 0 0)
(168.966 0 0)
(146.98 0 0)
(128.45 0 0)
(116.388 0 0)
(109.725 0 0)
(106.337 0 0)
(104.689 0 0)
(103.941 0 0)
(103.675 0 0)
(103.685 0 0)
(103.865 0 0)
(104.159 0 0)
(104.532 0 0)
(104.966 0 0)
(105.446 0 0)
(105.962 0 0)
(106.509 0 0)
(107.081 0 0)
(107.674 0 0)
(108.284 0 0)
(108.91 0 0)
(109.549 0 0)
(110.199 0 0)
(110.859 0 0)
(111.53 0 0)
(112.199 0 0)
(112.904 0 0)
(113.522 0 0)
(114.437 0 0)
(289.417 0 0)
(288.76 0 0)
(288.08 0 0)
(287.377 0 0)
(286.649 0 0)
(285.897 0 0)
(285.119 0 0)
(284.316 0 0)
(283.486 0 0)
(282.629 0 0)
(281.744 0 0)
(280.831 0 0)
(279.888 0 0)
(278.915 0 0)
(277.911 0 0)
(276.874 0 0)
(275.805 0 0)
(274.701 0 0)
(273.562 0 0)
(272.386 0 0)
(271.172 0 0)
(269.918 0 0)
(268.623 0 0)
(267.284 0 0)
(265.901 0 0)
(264.47 0 0)
(262.99 0 0)
(261.457 0 0)
(259.869 0 0)
(258.223 0 0)
(256.514 0 0)
(254.74 0 0)
(252.895 0 0)
(250.974 0 0)
(248.972 0 0)
(246.881 0 0)
(244.693 0 0)
(242.4 0 0)
(239.99 0 0)
(237.448 0 0)
(234.76 0 0)
(231.905 0 0)
(228.856 0 0)
(225.576 0 0)
(222.008 0 0)
(218.105 0 0)
(213.864 0 0)
(209.16 0 0)
(203.054 0 0)
(193.05 0 0)
(176.573 0 0)
(155.125 0 0)
(134.774 0 0)
(120.269 0 0)
(111.806 0 0)
(107.377 0 0)
(105.173 0 0)
(104.123 0 0)
(103.68 0 0)
(103.576 0 0)
(103.674 0 0)
(103.902 0 0)
(104.222 0 0)
(104.608 0 0)
(105.045 0 0)
(105.522 0 0)
(106.031 0 0)
(106.567 0 0)
(107.126 0 0)
(107.703 0 0)
(108.297 0 0)
(108.905 0 0)
(109.525 0 0)
(110.155 0 0)
(110.796 0 0)
(111.437 0 0)
(112.114 0 0)
(112.706 0 0)
(113.585 0 0)
(288.656 0 0)
(287.995 0 0)
(287.311 0 0)
(286.605 0 0)
(285.875 0 0)
(285.121 0 0)
(284.343 0 0)
(283.541 0 0)
(282.712 0 0)
(281.858 0 0)
(280.977 0 0)
(280.068 0 0)
(279.131 0 0)
(278.165 0 0)
(277.168 0 0)
(276.141 0 0)
(275.082 0 0)
(273.99 0 0)
(272.864 0 0)
(271.702 0 0)
(270.503 0 0)
(269.267 0 0)
(267.99 0 0)
(266.672 0 0)
(265.31 0 0)
(263.903 0 0)
(262.449 0 0)
(260.944 0 0)
(259.386 0 0)
(257.772 0 0)
(256.099 0 0)
(254.363 0 0)
(252.559 0 0)
(250.683 0 0)
(248.729 0 0)
(246.691 0 0)
(244.562 0 0)
(242.332 0 0)
(239.992 0 0)
(237.529 0 0)
(234.928 0 0)
(232.171 0 0)
(229.235 0 0)
(226.088 0 0)
(222.682 0 0)
(218.96 0 0)
(214.905 0 0)
(210.487 0 0)
(205.199 0 0)
(197.174 0 0)
(183.484 0 0)
(163.584 0 0)
(142.164 0 0)
(125.188 0 0)
(114.566 0 0)
(108.798 0 0)
(105.865 0 0)
(104.426 0 0)
(103.763 0 0)
(103.523 0 0)
(103.527 0 0)
(103.685 0 0)
(103.947 0 0)
(104.283 0 0)
(104.675 0 0)
(105.112 0 0)
(105.583 0 0)
(106.083 0 0)
(106.608 0 0)
(107.152 0 0)
(107.714 0 0)
(108.291 0 0)
(108.881 0 0)
(109.481 0 0)
(110.094 0 0)
(110.707 0 0)
(111.354 0 0)
(111.923 0 0)
(112.765 0 0)
(287.889 0 0)
(287.224 0 0)
(286.538 0 0)
(285.829 0 0)
(285.099 0 0)
(284.345 0 0)
(283.568 0 0)
(282.766 0 0)
(281.941 0 0)
(281.09 0 0)
(280.213 0 0)
(279.31 0 0)
(278.379 0 0)
(277.42 0 0)
(276.433 0 0)
(275.415 0 0)
(274.367 0 0)
(273.287 0 0)
(272.174 0 0)
(271.026 0 0)
(269.844 0 0)
(268.624 0 0)
(267.367 0 0)
(266.069 0 0)
(264.729 0 0)
(263.346 0 0)
(261.917 0 0)
(260.44 0 0)
(258.912 0 0)
(257.331 0 0)
(255.692 0 0)
(253.994 0 0)
(252.231 0 0)
(250.399 0 0)
(248.493 0 0)
(246.507 0 0)
(244.434 0 0)
(242.266 0 0)
(239.994 0 0)
(237.606 0 0)
(235.09 0 0)
(232.428 0 0)
(229.599 0 0)
(226.578 0 0)
(223.322 0 0)
(219.777 0 0)
(215.906 0 0)
(211.709 0 0)
(206.962 0 0)
(200.439 0 0)
(189.436 0 0)
(171.91 0 0)
(150.455 0 0)
(131.282 0 0)
(118.195 0 0)
(110.725 0 0)
(106.834 0 0)
(104.883 0 0)
(103.941 0 0)
(103.534 0 0)
(103.429 0 0)
(103.508 0 0)
(103.708 0 0)
(103.992 0 0)
(104.338 0 0)
(104.733 0 0)
(105.166 0 0)
(105.63 0 0)
(106.12 0 0)
(106.631 0 0)
(107.161 0 0)
(107.707 0 0)
(108.267 0 0)
(108.839 0 0)
(109.423 0 0)
(110.007 0 0)
(110.627 0 0)
(111.171 0 0)
(111.977 0 0)
(287.118 0 0)
(286.45 0 0)
(285.762 0 0)
(285.052 0 0)
(284.322 0 0)
(283.569 0 0)
(282.793 0 0)
(281.994 0 0)
(281.172 0 0)
(280.325 0 0)
(279.453 0 0)
(278.556 0 0)
(277.633 0 0)
(276.682 0 0)
(275.703 0 0)
(274.696 0 0)
(273.659 0 0)
(272.591 0 0)
(271.492 0 0)
(270.36 0 0)
(269.193 0 0)
(267.991 0 0)
(266.753 0 0)
(265.475 0 0)
(264.158 0 0)
(262.799 0 0)
(261.396 0 0)
(259.946 0 0)
(258.448 0 0)
(256.898 0 0)
(255.294 0 0)
(253.633 0 0)
(251.91 0 0)
(250.121 0 0)
(248.262 0 0)
(246.326 0 0)
(244.309 0 0)
(242.201 0 0)
(239.995 0 0)
(237.681 0 0)
(235.246 0 0)
(232.675 0 0)
(229.949 0 0)
(227.046 0 0)
(223.931 0 0)
(220.554 0 0)
(216.868 0 0)
(212.864 0 0)
(208.473 0 0)
(203.002 0 0)
(194.316 0 0)
(179.64 0 0)
(159.308 0 0)
(138.597 0 0)
(122.897 0 0)
(113.327 0 0)
(108.175 0 0)
(105.545 0 0)
(104.238 0 0)
(103.623 0 0)
(103.388 0 0)
(103.377 0 0)
(103.508 0 0)
(103.736 0 0)
(104.034 0 0)
(104.385 0 0)
(104.779 0 0)
(105.206 0 0)
(105.661 0 0)
(106.14 0 0)
(106.638 0 0)
(107.154 0 0)
(107.684 0 0)
(108.226 0 0)
(108.781 0 0)
(109.339 0 0)
(109.93 0 0)
(110.45 0 0)
(111.221 0 0)
(286.343 0 0)
(285.673 0 0)
(284.984 0 0)
(284.275 0 0)
(283.545 0 0)
(282.793 0 0)
(282.02 0 0)
(281.225 0 0)
(280.406 0 0)
(279.565 0 0)
(278.699 0 0)
(277.808 0 0)
(276.892 0 0)
(275.95 0 0)
(274.981 0 0)
(273.985 0 0)
(272.959 0 0)
(271.905 0 0)
(270.819 0 0)
(269.702 0 0)
(268.552 0 0)
(267.368 0 0)
(266.148 0 0)
(264.892 0 0)
(263.597 0 0)
(262.261 0 0)
(260.883 0 0)
(259.461 0 0)
(257.993 0 0)
(256.475 0 0)
(254.905 0 0)
(253.28 0 0)
(251.596 0 0)
(249.85 0 0)
(248.036 0 0)
(246.15 0 0)
(244.187 0 0)
(242.138 0 0)
(239.996 0 0)
(237.753 0 0)
(235.396 0 0)
(232.912 0 0)
(230.285 0 0)
(227.493 0 0)
(224.51 0 0)
(221.292 0 0)
(217.787 0 0)
(213.969 0 0)
(209.83 0 0)
(205.045 0 0)
(198.162 0 0)
(186.394 0 0)
(168.231 0 0)
(147.019 0 0)
(128.858 0 0)
(116.811 0 0)
(110.021 0 0)
(106.481 0 0)
(104.689 0 0)
(103.808 0 0)
(103.413 0 0)
(103.296 0 0)
(103.35 0 0)
(103.517 0 0)
(103.764 0 0)
(104.07 0 0)
(104.423 0 0)
(104.813 0 0)
(105.233 0 0)
(105.678 0 0)
(106.145 0 0)
(106.629 0 0)
(107.13 0 0)
(107.643 0 0)
(108.17 0 0)
(108.7 0 0)
(109.263 0 0)
(109.76 0 0)
(110.496 0 0)
(285.565 0 0)
(284.895 0 0)
(284.206 0 0)
(283.498 0 0)
(282.769 0 0)
(282.02 0 0)
(281.25 0 0)
(280.459 0 0)
(279.645 0 0)
(278.809 0 0)
(277.949 0 0)
(277.066 0 0)
(276.159 0 0)
(275.226 0 0)
(274.267 0 0)
(273.281 0 0)
(272.268 0 0)
(271.226 0 0)
(270.155 0 0)
(269.054 0 0)
(267.92 0 0)
(266.754 0 0)
(265.554 0 0)
(264.318 0 0)
(263.045 0 0)
(261.733 0 0)
(260.381 0 0)
(258.986 0 0)
(257.547 0 0)
(256.06 0 0)
(254.524 0 0)
(252.935 0 0)
(251.29 0 0)
(249.585 0 0)
(247.816 0 0)
(245.979 0 0)
(244.068 0 0)
(242.076 0 0)
(239.997 0 0)
(237.822 0 0)
(235.541 0 0)
(233.141 0 0)
(230.607 0 0)
(227.922 0 0)
(225.062 0 0)
(221.991 0 0)
(218.66 0 0)
(215.029 0 0)
(211.093 0 0)
(206.743 0 0)
(201.131 0 0)
(191.959 0 0)
(176.661 0 0)
(156.22 0 0)
(136.178 0 0)
(121.416 0 0)
(112.553 0 0)
(107.793 0 0)
(105.347 0 0)
(104.113 0 0)
(103.517 0 0)
(103.273 0 0)
(103.238 0 0)
(103.338 0 0)
(103.53 0 0)
(103.789 0 0)
(104.1 0 0)
(104.451 0 0)
(104.835 0 0)
(105.246 0 0)
(105.681 0 0)
(106.135 0 0)
(106.605 0 0)
(107.09 0 0)
(107.589 0 0)
(108.092 0 0)
(108.627 0 0)
(109.101 0 0)
(109.802 0 0)
(284.786 0 0)
(284.116 0 0)
(283.429 0 0)
(282.722 0 0)
(281.996 0 0)
(281.25 0 0)
(280.484 0 0)
(279.697 0 0)
(278.888 0 0)
(278.058 0 0)
(277.206 0 0)
(276.331 0 0)
(275.432 0 0)
(274.508 0 0)
(273.56 0 0)
(272.586 0 0)
(271.585 0 0)
(270.557 0 0)
(269.5 0 0)
(268.414 0 0)
(267.298 0 0)
(266.15 0 0)
(264.969 0 0)
(263.754 0 0)
(262.503 0 0)
(261.215 0 0)
(259.888 0 0)
(258.52 0 0)
(257.11 0 0)
(255.654 0 0)
(254.151 0 0)
(252.597 0 0)
(250.99 0 0)
(249.326 0 0)
(247.602 0 0)
(245.812 0 0)
(243.952 0 0)
(242.016 0 0)
(239.997 0 0)
(237.888 0 0)
(235.68 0 0)
(233.361 0 0)
(230.918 0 0)
(228.334 0 0)
(225.589 0 0)
(222.655 0 0)
(219.489 0 0)
(216.041 0 0)
(212.295 0 0)
(208.23 0 0)
(203.44 0 0)
(196.324 0 0)
(184.1 0 0)
(165.664 0 0)
(144.786 0 0)
(127.371 0 0)
(116.002 0 0)
(109.624 0 0)
(106.287 0 0)
(104.578 0 0)
(103.719 0 0)
(103.317 0 0)
(103.178 0 0)
(103.202 0 0)
(103.334 0 0)
(103.542 0 0)
(103.809 0 0)
(104.12 0 0)
(104.468 0 0)
(104.845 0 0)
(105.247 0 0)
(105.67 0 0)
(106.111 0 0)
(106.566 0 0)
(107.037 0 0)
(107.514 0 0)
(108.021 0 0)
(108.471 0 0)
(109.139 0 0)
(284.007 0 0)
(283.338 0 0)
(282.652 0 0)
(281.948 0 0)
(281.225 0 0)
(280.483 0 0)
(279.721 0 0)
(278.939 0 0)
(278.137 0 0)
(277.314 0 0)
(276.469 0 0)
(275.602 0 0)
(274.712 0 0)
(273.799 0 0)
(272.861 0 0)
(271.899 0 0)
(270.911 0 0)
(269.896 0 0)
(268.855 0 0)
(267.785 0 0)
(266.685 0 0)
(265.555 0 0)
(264.394 0 0)
(263.199 0 0)
(261.971 0 0)
(260.706 0 0)
(259.405 0 0)
(258.064 0 0)
(256.682 0 0)
(255.257 0 0)
(253.786 0 0)
(252.268 0 0)
(250.698 0 0)
(249.074 0 0)
(247.392 0 0)
(245.649 0 0)
(243.839 0 0)
(241.957 0 0)
(239.997 0 0)
(237.952 0 0)
(235.814 0 0)
(233.573 0 0)
(231.216 0 0)
(228.729 0 0)
(226.094 0 0)
(223.287 0 0)
(220.273 0 0)
(217.004 0 0)
(213.445 0 0)
(209.595 0 0)
(205.309 0 0)
(199.645 0 0)
(190.237 0 0)
(174.69 0 0)
(154.353 0 0)
(134.823 0 0)
(120.641 0 0)
(112.174 0 0)
(107.618 0 0)
(105.257 0 0)
(104.047 0 0)
(103.444 0 0)
(103.178 0 0)
(103.114 0 0)
(103.178 0 0)
(103.333 0 0)
(103.553 0 0)
(103.823 0 0)
(104.132 0 0)
(104.474 0 0)
(104.843 0 0)
(105.235 0 0)
(105.645 0 0)
(106.072 0 0)
(106.515 0 0)
(106.965 0 0)
(107.445 0 0)
(107.872 0 0)
(108.506 0 0)
(283.228 0 0)
(282.561 0 0)
(281.878 0 0)
(281.176 0 0)
(280.457 0 0)
(279.719 0 0)
(278.963 0 0)
(278.187 0 0)
(277.391 0 0)
(276.575 0 0)
(275.738 0 0)
(274.88 0 0)
(274 0 0)
(273.097 0 0)
(272.171 0 0)
(271.22 0 0)
(270.246 0 0)
(269.245 0 0)
(268.218 0 0)
(267.164 0 0)
(266.082 0 0)
(264.97 0 0)
(263.828 0 0)
(262.655 0 0)
(261.448 0 0)
(260.207 0 0)
(258.931 0 0)
(257.617 0 0)
(256.263 0 0)
(254.868 0 0)
(253.43 0 0)
(251.946 0 0)
(250.413 0 0)
(248.828 0 0)
(247.188 0 0)
(245.49 0 0)
(243.729 0 0)
(241.9 0 0)
(239.997 0 0)
(238.014 0 0)
(235.944 0 0)
(233.777 0 0)
(231.502 0 0)
(229.108 0 0)
(226.576 0 0)
(223.889 0 0)
(221.015 0 0)
(217.915 0 0)
(214.542 0 0)
(210.884 0 0)
(206.912 0 0)
(202.176 0 0)
(195.013 0 0)
(182.682 0 0)
(164.285 0 0)
(143.725 0 0)
(126.743 0 0)
(115.703 0 0)
(109.502 0 0)
(106.236 0 0)
(104.544 0 0)
(103.675 0 0)
(103.25 0 0)
(103.08 0 0)
(103.068 0 0)
(103.162 0 0)
(103.332 0 0)
(103.558 0 0)
(103.829 0 0)
(104.135 0 0)
(104.47 0 0)
(104.83 0 0)
(105.21 0 0)
(105.608 0 0)
(106.023 0 0)
(106.446 0 0)
(106.899 0 0)
(107.302 0 0)
(107.903 0 0)
(282.45 0 0)
(281.786 0 0)
(281.106 0 0)
(280.408 0 0)
(279.693 0 0)
(278.961 0 0)
(278.21 0 0)
(277.44 0 0)
(276.652 0 0)
(275.843 0 0)
(275.015 0 0)
(274.166 0 0)
(273.295 0 0)
(272.403 0 0)
(271.489 0 0)
(270.551 0 0)
(269.589 0 0)
(268.603 0 0)
(267.591 0 0)
(266.554 0 0)
(265.489 0 0)
(264.395 0 0)
(263.273 0 0)
(262.12 0 0)
(260.935 0 0)
(259.718 0 0)
(258.466 0 0)
(257.178 0 0)
(255.853 0 0)
(254.488 0 0)
(253.081 0 0)
(251.631 0 0)
(250.134 0 0)
(248.588 0 0)
(246.989 0 0)
(245.335 0 0)
(243.621 0 0)
(241.843 0 0)
(239.996 0 0)
(238.073 0 0)
(236.069 0 0)
(233.973 0 0)
(231.778 0 0)
(229.471 0 0)
(227.039 0 0)
(224.463 0 0)
(221.72 0 0)
(218.776 0 0)
(215.584 0 0)
(212.115 0 0)
(208.367 0 0)
(204.181 0 0)
(198.591 0 0)
(189.24 0 0)
(173.813 0 0)
(153.725 0 0)
(134.491 0 0)
(120.524 0 0)
(112.163 0 0)
(107.639 0 0)
(105.273 0 0)
(104.041 0 0)
(103.409 0 0)
(103.109 0 0)
(103.008 0 0)
(103.034 0 0)
(103.149 0 0)
(103.329 0 0)
(103.558 0 0)
(103.827 0 0)
(104.128 0 0)
(104.455 0 0)
(104.805 0 0)
(105.173 0 0)
(105.56 0 0)
(105.956 0 0)
(106.382 0 0)
(106.762 0 0)
(107.33 0 0)
(281.675 0 0)
(281.014 0 0)
(280.337 0 0)
(279.644 0 0)
(278.934 0 0)
(278.207 0 0)
(277.463 0 0)
(276.7 0 0)
(275.918 0 0)
(275.118 0 0)
(274.299 0 0)
(273.459 0 0)
(272.599 0 0)
(271.718 0 0)
(270.815 0 0)
(269.89 0 0)
(268.942 0 0)
(267.97 0 0)
(266.974 0 0)
(265.953 0 0)
(264.905 0 0)
(263.83 0 0)
(262.727 0 0)
(261.595 0 0)
(260.432 0 0)
(259.238 0 0)
(258.011 0 0)
(256.749 0 0)
(255.451 0 0)
(254.116 0 0)
(252.741 0 0)
(251.323 0 0)
(249.862 0 0)
(248.354 0 0)
(246.796 0 0)
(245.185 0 0)
(243.517 0 0)
(241.789 0 0)
(239.995 0 0)
(238.13 0 0)
(236.189 0 0)
(234.163 0 0)
(232.044 0 0)
(229.821 0 0)
(227.482 0 0)
(225.011 0 0)
(222.39 0 0)
(219.589 0 0)
(216.569 0 0)
(213.288 0 0)
(209.733 0 0)
(205.876 0 0)
(201.268 0 0)
(194.276 0 0)
(182.207 0 0)
(164.138 0 0)
(143.837 0 0)
(126.955 0 0)
(115.902 0 0)
(109.65 0 0)
(106.331 0 0)
(104.593 0 0)
(103.681 0 0)
(103.215 0 0)
(103.005 0 0)
(102.954 0 0)
(103.008 0 0)
(103.137 0 0)
(103.323 0 0)
(103.552 0 0)
(103.817 0 0)
(104.111 0 0)
(104.43 0 0)
(104.769 0 0)
(105.127 0 0)
(105.496 0 0)
(105.895 0 0)
(106.252 0 0)
(106.787 0 0)
(280.903 0 0)
(280.246 0 0)
(279.573 0 0)
(278.885 0 0)
(278.18 0 0)
(277.459 0 0)
(276.721 0 0)
(275.966 0 0)
(275.192 0 0)
(274.401 0 0)
(273.59 0 0)
(272.761 0 0)
(271.911 0 0)
(271.042 0 0)
(270.151 0 0)
(269.239 0 0)
(268.304 0 0)
(267.347 0 0)
(266.366 0 0)
(265.361 0 0)
(264.331 0 0)
(263.274 0 0)
(262.191 0 0)
(261.079 0 0)
(259.939 0 0)
(258.768 0 0)
(257.565 0 0)
(256.329 0 0)
(255.059 0 0)
(253.752 0 0)
(252.408 0 0)
(251.023 0 0)
(249.596 0 0)
(248.125 0 0)
(246.606 0 0)
(245.038 0 0)
(243.415 0 0)
(241.735 0 0)
(239.994 0 0)
(238.185 0 0)
(236.305 0 0)
(234.345 0 0)
(232.299 0 0)
(230.156 0 0)
(227.907 0 0)
(225.536 0 0)
(223.028 0 0)
(220.359 0 0)
(217.498 0 0)
(214.399 0 0)
(211.034 0 0)
(207.404 0 0)
(203.359 0 0)
(197.983 0 0)
(189 0 0)
(174.068 0 0)
(154.362 0 0)
(135.199 0 0)
(121.081 0 0)
(112.532 0 0)
(107.865 0 0)
(105.403 0 0)
(104.103 0 0)
(103.417 0 0)
(103.071 0 0)
(102.926 0 0)
(102.911 0 0)
(102.985 0 0)
(103.123 0 0)
(103.312 0 0)
(103.539 0 0)
(103.799 0 0)
(104.086 0 0)
(104.395 0 0)
(104.724 0 0)
(105.066 0 0)
(105.437 0 0)
(105.771 0 0)
(106.274 0 0)
(280.134 0 0)
(279.481 0 0)
(278.814 0 0)
(278.131 0 0)
(277.432 0 0)
(276.718 0 0)
(275.987 0 0)
(275.239 0 0)
(274.474 0 0)
(273.691 0 0)
(272.89 0 0)
(272.071 0 0)
(271.232 0 0)
(270.374 0 0)
(269.496 0 0)
(268.597 0 0)
(267.676 0 0)
(266.734 0 0)
(265.768 0 0)
(264.78 0 0)
(263.767 0 0)
(262.729 0 0)
(261.665 0 0)
(260.574 0 0)
(259.455 0 0)
(258.306 0 0)
(257.128 0 0)
(255.918 0 0)
(254.674 0 0)
(253.396 0 0)
(252.082 0 0)
(250.73 0 0)
(249.337 0 0)
(247.902 0 0)
(246.422 0 0)
(244.894 0 0)
(243.316 0 0)
(241.683 0 0)
(239.992 0 0)
(238.238 0 0)
(236.417 0 0)
(234.521 0 0)
(232.545 0 0)
(230.479 0 0)
(228.314 0 0)
(226.038 0 0)
(223.636 0 0)
(221.09 0 0)
(218.373 0 0)
(215.447 0 0)
(212.272 0 0)
(208.836 0 0)
(205.115 0 0)
(200.712 0 0)
(194.11 0 0)
(182.679 0 0)
(165.245 0 0)
(145.166 0 0)
(128.059 0 0)
(116.639 0 0)
(110.095 0 0)
(106.59 0 0)
(104.735 0 0)
(103.745 0 0)
(103.221 0 0)
(102.961 0 0)
(102.864 0 0)
(102.875 0 0)
(102.962 0 0)
(103.107 0 0)
(103.295 0 0)
(103.52 0 0)
(103.773 0 0)
(104.051 0 0)
(104.352 0 0)
(104.665 0 0)
(105.009 0 0)
(105.32 0 0)
(105.79 0 0)
(279.369 0 0)
(278.721 0 0)
(278.059 0 0)
(277.382 0 0)
(276.69 0 0)
(275.982 0 0)
(275.259 0 0)
(274.519 0 0)
(273.763 0 0)
(272.989 0 0)
(272.198 0 0)
(271.389 0 0)
(270.562 0 0)
(269.715 0 0)
(268.85 0 0)
(267.964 0 0)
(267.057 0 0)
(266.13 0 0)
(265.18 0 0)
(264.208 0 0)
(263.212 0 0)
(262.193 0 0)
(261.148 0 0)
(260.077 0 0)
(258.98 0 0)
(257.855 0 0)
(256.7 0 0)
(255.515 0 0)
(254.298 0 0)
(253.049 0 0)
(251.764 0 0)
(250.443 0 0)
(249.084 0 0)
(247.685 0 0)
(246.242 0 0)
(244.755 0 0)
(243.219 0 0)
(241.632 0 0)
(239.99 0 0)
(238.289 0 0)
(236.525 0 0)
(234.691 0 0)
(232.781 0 0)
(230.789 0 0)
(228.705 0 0)
(226.519 0 0)
(224.217 0 0)
(221.785 0 0)
(219.201 0 0)
(216.433 0 0)
(213.442 0 0)
(210.197 0 0)
(206.698 0 0)
(202.829 0 0)
(197.795 0 0)
(189.479 0 0)
(175.437 0 0)
(156.304 0 0)
(137.031 0 0)
(122.394 0 0)
(113.339 0 0)
(108.332 0 0)
(105.668 0 0)
(104.246 0 0)
(103.479 0 0)
(103.071 0 0)
(102.875 0 0)
(102.813 0 0)
(102.843 0 0)
(102.94 0 0)
(103.087 0 0)
(103.274 0 0)
(103.493 0 0)
(103.739 0 0)
(104.01 0 0)
(104.295 0 0)
(104.611 0 0)
(104.899 0 0)
(105.336 0 0)
(278.609 0 0)
(277.967 0 0)
(277.31 0 0)
(276.64 0 0)
(275.954 0 0)
(275.254 0 0)
(274.538 0 0)
(273.807 0 0)
(273.059 0 0)
(272.295 0 0)
(271.515 0 0)
(270.716 0 0)
(269.9 0 0)
(269.066 0 0)
(268.213 0 0)
(267.34 0 0)
(266.448 0 0)
(265.535 0 0)
(264.602 0 0)
(263.646 0 0)
(262.668 0 0)
(261.667 0 0)
(260.641 0 0)
(259.591 0 0)
(258.515 0 0)
(257.412 0 0)
(256.281 0 0)
(255.121 0 0)
(253.931 0 0)
(252.709 0 0)
(251.454 0 0)
(250.164 0 0)
(248.838 0 0)
(247.473 0 0)
(246.067 0 0)
(244.619 0 0)
(243.125 0 0)
(241.583 0 0)
(239.988 0 0)
(238.338 0 0)
(236.629 0 0)
(234.854 0 0)
(233.009 0 0)