/*--------------------------------*- C++ -*----------------------------------*\
| =========                 |                                                 |
| \\      /  F ield         | OpenFOAM: The Open Source CFD Toolbox           |
|  \\    /   O peration     | Version:  2312                                  |
|   \\  /    A nd           | Website:  www.openfoam.com                      |
|    \\/     M anipulation  |                                                 |
\*---------------------------------------------------------------------------*/
FoamFile
{
    version     2.0;
    format      ascii;
    arch        "LSB;label=32;scalar=64";
    class       volVectorField;
    location    "0.186";
    object      U;
}
// * * * * * * * * * * * * * * * * * * * * * * * * * * * * * * * * * * * * * //

dimensions      [0 1 -1 0 0 0 0];

internalField   nonuniform List<vector> 
31205
(
(272.689 0 0)
(274.102 0 0)
(275.469 0 0)
(276.791 0 0)
(278.07 0 0)
(279.307 0 0)
(280.502 0 0)
(281.657 0 0)
(282.772 0 0)
(283.847 0 0)
(284.884 0 0)
(285.884 0 0)
(286.846 0 0)
(287.771 0 0)
(288.66 0 0)
(289.512 0 0)
(290.33 0 0)
(291.112 0 0)
(291.859 0 0)
(292.571 0 0)
(293.249 0 0)
(293.893 0 0)
(294.502 0 0)
(295.078 0 0)
(295.619 0 0)
(296.127 0 0)
(296.601 0 0)
(297.041 0 0)
(297.447 0 0)
(297.819 0 0)
(298.157 0 0)
(298.461 0 0)
(298.73 0 0)
(298.965 0 0)
(299.164 0 0)
(299.328 0 0)
(299.457 0 0)
(299.549 0 0)
(299.605 0 0)
(299.624 0 0)
(299.605 0 0)
(299.547 0 0)
(299.451 0 0)
(299.315 0 0)
(299.139 0 0)
(298.921 0 0)
(298.66 0 0)
(298.357 0 0)
(298.008 0 0)
(297.613 0 0)
(297.171 0 0)
(296.679 0 0)
(296.137 0 0)
(295.542 0 0)
(294.892 0 0)
(294.184 0 0)
(293.417 0 0)
(292.587 0 0)
(291.69 0 0)
(290.724 0 0)
(289.683 0 0)
(288.563 0 0)
(287.359 0 0)
(286.064 0 0)
(284.671 0 0)
(283.163 0 0)
(281.538 0 0)
(279.818 0 0)
(277.986 0 0)
(275.819 0 0)
(273.069 0 0)
(270.578 0 0)
(270.697 0 0)
(271.769 0 0)
(257.988 0 0)
(213.155 0 0)
(158.751 0 0)
(125.962 0 0)
(113.671 0 0)
(274.187 0 0)
(275.511 0 0)
(276.793 0 0)
(278.034 0 0)
(279.236 0 0)
(280.398 0 0)
(281.522 0 0)
(282.609 0 0)
(283.659 0 0)
(284.672 0 0)
(285.65 0 0)
(286.593 0 0)
(287.5 0 0)
(288.374 0 0)
(289.213 0 0)
(290.019 0 0)
(290.792 0 0)
(291.532 0 0)
(292.239 0 0)
(292.913 0 0)
(293.555 0 0)
(294.165 0 0)
(294.743 0 0)
(295.289 0 0)
(295.803 0 0)
(296.285 0 0)
(296.736 0 0)
(297.154 0 0)
(297.541 0 0)
(297.895 0 0)
(298.217 0 0)
(298.507 0 0)
(298.765 0 0)
(298.989 0 0)
(299.181 0 0)
(299.339 0 0)
(299.464 0 0)
(299.555 0 0)
(299.611 0 0)
(299.633 0 0)
(299.619 0 0)
(299.569 0 0)
(299.483 0 0)
(299.359 0 0)
(299.197 0 0)
(298.997 0 0)
(298.757 0 0)
(298.476 0 0)
(298.153 0 0)
(297.788 0 0)
(297.379 0 0)
(296.923 0 0)
(296.421 0 0)
(295.87 0 0)
(295.269 0 0)
(294.615 0 0)
(293.905 0 0)
(293.139 0 0)
(292.312 0 0)
(291.422 0 0)
(290.465 0 0)
(289.437 0 0)
(288.333 0 0)
(287.149 0 0)
(285.879 0 0)
(284.516 0 0)
(283.045 0 0)
(281.459 0 0)
(279.779 0 0)
(278.006 0 0)
(275.965 0 0)
(273.352 0 0)
(270.695 0 0)
(270.226 0 0)
(271.998 0 0)
(263.356 0 0)
(224.727 0 0)
(168.984 0 0)
(129.183 0 0)
(275.655 0 0)
(276.895 0 0)
(278.096 0 0)
(279.259 0 0)
(280.386 0 0)
(281.477 0 0)
(282.533 0 0)
(283.554 0 0)
(284.541 0 0)
(285.495 0 0)
(286.415 0 0)
(287.302 0 0)
(288.158 0 0)
(288.981 0 0)
(289.772 0 0)
(290.533 0 0)
(291.262 0 0)
(291.96 0 0)
(292.628 0 0)
(293.265 0 0)
(293.871 0 0)
(294.448 0 0)
(294.995 0 0)
(295.511 0 0)
(295.997 0 0)
(296.454 0 0)
(296.88 0 0)
(297.277 0 0)
(297.643 0 0)
(297.979 0 0)
(298.285 0 0)
(298.561 0 0)
(298.806 0 0)
(299.02 0 0)
(299.202 0 0)
(299.354 0 0)
(299.474 0 0)
(299.562 0 0)
(299.617 0 0)
(299.64 0 0)
(299.629 0 0)
(299.585 0 0)
(299.506 0 0)
(299.392 0 0)
(299.243 0 0)
(299.057 0 0)
(298.834 0 0)
(298.574 0 0)
(298.274 0 0)
(297.934 0 0)
(297.553 0 0)
(297.13 0 0)
(296.663 0 0)
(296.151 0 0)
(295.592 0 0)
(294.985 0 0)
(294.328 0 0)
(293.617 0 0)
(292.852 0 0)
(292.029 0 0)
(291.146 0 0)
(290.198 0 0)
(289.183 0 0)
(288.096 0 0)
(286.931 0 0)
(285.686 0 0)
(284.351 0 0)
(282.916 0 0)
(281.369 0 0)
(279.726 0 0)
(278.005 0 0)
(276.077 0 0)
(273.626 0 0)
(270.883 0 0)
(269.799 0 0)
(271.679 0 0)
(267.139 0 0)
(236.695 0 0)
(174.563 0 0)
(277.057 0 0)
(278.217 0 0)
(279.342 0 0)
(280.432 0 0)
(281.489 0 0)
(282.513 0 0)
(283.505 0 0)
(284.464 0 0)
(285.391 0 0)
(286.288 0 0)
(287.154 0 0)
(287.989 0 0)
(288.794 0 0)
(289.57 0 0)
(290.315 0 0)
(291.032 0 0)
(291.719 0 0)
(292.378 0 0)
(293.008 0 0)
(293.609 0 0)
(294.182 0 0)
(294.727 0 0)
(295.243 0 0)
(295.731 0 0)
(296.191 0 0)
(296.622 0 0)
(297.026 0 0)
(297.401 0 0)
(297.748 0 0)
(298.066 0 0)
(298.356 0 0)
(298.617 0 0)
(298.849 0 0)
(299.052 0 0)
(299.226 0 0)
(299.371 0 0)
(299.485 0 0)
(299.569 0 0)
(299.623 0 0)
(299.646 0 0)
(299.638 0 0)
(299.598 0 0)
(299.525 0 0)
(299.42 0 0)
(299.282 0 0)
(299.109 0 0)
(298.901 0 0)
(298.658 0 0)
(298.379 0 0)
(298.062 0 0)
(297.707 0 0)
(297.313 0 0)
(296.878 0 0)
(296.401 0 0)
(295.881 0 0)
(295.316 0 0)
(294.705 0 0)
(294.045 0 0)
(293.335 0 0)
(292.573 0 0)
(291.755 0 0)
(290.88 0 0)
(289.943 0 0)
(288.942 0 0)
(287.871 0 0)
(286.728 0 0)
(285.507 0 0)
(284.202 0 0)
(282.803 0 0)
(281.297 0 0)
(279.693 0 0)
(278.017 0 0)
(276.19 0 0)
(273.915 0 0)
(271.158 0 0)
(269.628 0 0)
(270.429 0 0)
(272.867 0 0)
(234.045 0 0)
(278.378 0 0)
(279.465 0 0)
(280.519 0 0)
(281.541 0 0)
(282.533 0 0)
(283.494 0 0)
(284.425 0 0)
(285.326 0 0)
(286.198 0 0)
(287.041 0 0)
(287.856 0 0)
(288.642 0 0)
(289.4 0 0)
(290.13 0 0)
(290.833 0 0)
(291.509 0 0)
(292.157 0 0)
(292.778 0 0)
(293.372 0 0)
(293.94 0 0)
(294.48 0 0)
(294.994 0 0)
(295.482 0 0)
(295.943 0 0)
(296.377 0 0)
(296.785 0 0)
(297.167 0 0)
(297.522 0 0)
(297.85 0 0)
(298.151 0 0)
(298.425 0 0)
(298.672 0 0)
(298.893 0 0)
(299.085 0 0)
(299.25 0 0)
(299.388 0 0)
(299.497 0 0)
(299.578 0 0)
(299.63 0 0)
(299.653 0 0)
(299.646 0 0)
(299.61 0 0)
(299.543 0 0)
(299.446 0 0)
(299.317 0 0)
(299.156 0 0)
(298.962 0 0)
(298.736 0 0)
(298.475 0 0)
(298.179 0 0)
(297.848 0 0)
(297.48 0 0)
(297.074 0 0)
(296.63 0 0)
(296.145 0 0)
(295.62 0 0)
(295.051 0 0)
(294.438 0 0)
(293.778 0 0)
(293.071 0 0)
(292.313 0 0)
(291.502 0 0)
(290.637 0 0)
(289.712 0 0)
(288.727 0 0)
(287.676 0 0)
(286.555 0 0)
(285.361 0 0)
(284.087 0 0)
(282.725 0 0)
(281.262 0 0)
(279.701 0 0)
(278.065 0 0)
(276.34 0 0)
(274.17 0 0)
(271.863 0 0)
(268.349 0 0)
(273.807 0 0)
(263.004 0 0)
(279.619 0 0)
(280.637 0 0)
(281.626 0 0)
(282.585 0 0)
(283.516 0 0)
(284.418 0 0)
(285.293 0 0)
(286.14 0 0)
(286.96 0 0)
(287.753 0 0)
(288.519 0 0)
(289.259 0 0)
(289.973 0 0)
(290.661 0 0)
(291.323 0 0)
(291.96 0 0)
(292.571 0 0)
(293.157 0 0)
(293.717 0 0)
(294.253 0 0)
(294.763 0 0)
(295.249 0 0)
(295.709 0 0)
(296.145 0 0)
(296.555 0 0)
(296.941 0 0)
(297.301 0 0)
(297.637 0 0)
(297.947 0 0)
(298.232 0 0)
(298.492 0 0)
(298.726 0 0)
(298.934 0 0)
(299.117 0 0)
(299.274 0 0)
(299.404 0 0)
(299.508 0 0)
(299.586 0 0)
(299.636 0 0)
(299.659 0 0)
(299.654 0 0)
(299.621 0 0)
(299.56 0 0)
(299.469 0 0)
(299.349 0 0)
(299.199 0 0)
(299.019 0 0)
(298.807 0 0)
(298.564 0 0)
(298.288 0 0)
(297.979 0 0)
(297.635 0 0)
(297.257 0 0)
(296.842 0 0)
(296.391 0 0)
(295.901 0 0)
(295.371 0 0)
(294.801 0 0)
(294.188 0 0)
(293.531 0 0)
(292.828 0 0)
(292.077 0 0)
(291.276 0 0)
(290.422 0 0)
(289.512 0 0)
(288.544 0 0)
(287.515 0 0)
(286.419 0 0)
(285.253 0 0)
(284.012 0 0)
(282.689 0 0)
(281.273 0 0)
(279.75 0 0)
(278.192 0 0)
(276.396 0 0)
(274.911 0 0)
(271.251 0 0)
(271.132 0 0)
(268.571 0 0)
(280.784 0 0)
(281.738 0 0)
(282.665 0 0)
(283.565 0 0)
(284.439 0 0)
(285.287 0 0)
(286.109 0 0)
(286.905 0 0)
(287.676 0 0)
(288.422 0 0)
(289.144 0 0)
(289.841 0 0)
(290.513 0 0)
(291.161 0 0)
(291.785 0 0)
(292.385 0 0)
(292.962 0 0)
(293.514 0 0)
(294.043 0 0)
(294.549 0 0)
(295.031 0 0)
(295.489 0 0)
(295.924 0 0)
(296.335 0 0)
(296.723 0 0)
(297.088 0 0)
(297.428 0 0)
(297.746 0 0)
(298.039 0 0)
(298.309 0 0)
(298.555 0 0)
(298.777 0 0)
(298.974 0 0)
(299.148 0 0)
(299.296 0 0)
(299.421 0 0)
(299.52 0 0)
(299.594 0 0)
(299.642 0 0)
(299.665 0 0)
(299.661 0 0)
(299.632 0 0)
(299.575 0 0)
(299.491 0 0)
(299.38 0 0)
(299.24 0 0)
(299.072 0 0)
(298.874 0 0)
(298.647 0 0)
(298.39 0 0)
(298.101 0 0)
(297.78 0 0)
(297.427 0 0)
(297.041 0 0)
(296.619 0 0)
(296.163 0 0)
(295.669 0 0)
(295.138 0 0)
(294.568 0 0)
(293.958 0 0)
(293.305 0 0)
(292.609 0 0)
(291.866 0 0)
(291.077 0 0)
(290.237 0 0)
(289.344 0 0)
(288.396 0 0)
(287.389 0 0)
(286.32 0 0)
(285.184 0 0)
(283.977 0 0)
(282.698 0 0)
(281.316 0 0)
(279.893 0 0)
(278.229 0 0)
(276.883 0 0)
(274.708 0 0)
(272.752 0 0)
(270.32 0 0)
(281.876 0 0)
(282.771 0 0)
(283.641 0 0)
(284.486 0 0)
(285.307 0 0)
(286.103 0 0)
(286.876 0 0)
(287.625 0 0)
(288.351 0 0)
(289.053 0 0)
(289.732 0 0)
(290.388 0 0)
(291.022 0 0)
(291.633 0 0)
(292.221 0 0)
(292.787 0 0)
(293.331 0 0)
(293.852 0 0)
(294.351 0 0)
(294.828 0 0)
(295.283 0 0)
(295.716 0 0)
(296.127 0 0)
(296.516 0 0)
(296.882 0 0)
(297.227 0 0)
(297.549 0 0)
(297.849 0 0)
(298.127 0 0)
(298.382 0 0)
(298.615 0 0)
(298.825 0 0)
(299.012 0 0)
(299.177 0 0)
(299.318 0 0)
(299.436 0 0)
(299.53 0 0)
(299.601 0 0)
(299.648 0 0)
(299.67 0 0)
(299.668 0 0)
(299.642 0 0)
(299.589 0 0)
(299.512 0 0)
(299.408 0 0)
(299.278 0 0)
(299.121 0 0)
(298.937 0 0)
(298.725 0 0)
(298.485 0 0)
(298.215 0 0)
(297.916 0 0)
(297.586 0 0)
(297.225 0 0)
(296.832 0 0)
(296.407 0 0)
(295.947 0 0)
(295.453 0 0)
(294.922 0 0)
(294.355 0 0)
(293.748 0 0)
(293.102 0 0)
(292.414 0 0)
(291.682 0 0)
(290.905 0 0)
(290.081 0 0)
(289.207 0 0)
(288.28 0 0)
(287.298 0 0)
(286.257 0 0)
(285.152 0 0)
(283.986 0 0)
(282.734 0 0)
(281.44 0 0)
(279.98 0 0)
(278.542 0 0)
(276.951 0 0)
(275.36 0 0)
(272.76 0 0)
(282.901 0 0)
(283.741 0 0)
(284.558 0 0)
(285.352 0 0)
(286.123 0 0)
(286.872 0 0)
(287.598 0 0)
(288.303 0 0)
(288.986 0 0)
(289.647 0 0)
(290.286 0 0)
(290.905 0 0)
(291.502 0 0)
(292.077 0 0)
(292.632 0 0)
(293.166 0 0)
(293.679 0 0)
(294.171 0 0)
(294.642 0 0)
(295.092 0 0)
(295.522 0 0)
(295.93 0 0)
(296.318 0 0)
(296.686 0 0)
(297.032 0 0)
(297.358 0 0)
(297.663 0 0)
(297.947 0 0)
(298.209 0 0)
(298.451 0 0)
(298.671 0 0)
(298.87 0 0)
(299.048 0 0)
(299.204 0 0)
(299.338 0 0)
(299.451 0 0)
(299.541 0 0)
(299.608 0 0)
(299.654 0 0)
(299.676 0 0)
(299.675 0 0)
(299.651 0 0)
(299.603 0 0)
(299.531 0 0)
(299.435 0 0)
(299.314 0 0)
(299.167 0 0)
(298.996 0 0)
(298.798 0 0)
(298.573 0 0)
(298.322 0 0)
(298.042 0 0)
(297.734 0 0)
(297.398 0 0)
(297.031 0 0)
(296.634 0 0)
(296.206 0 0)
(295.745 0 0)
(295.252 0 0)
(294.723 0 0)
(294.16 0 0)
(293.56 0 0)
(292.921 0 0)
(292.243 0 0)
(291.524 0 0)
(290.762 0 0)
(289.955 0 0)
(289.101 0 0)
(288.197 0 0)
(287.241 0 0)
(286.229 0 0)
(285.161 0 0)
(284.023 0 0)
(282.831 0 0)
(281.552 0 0)
(280.207 0 0)
(278.716 0 0)
(277.431 0 0)
(275.159 0 0)
(283.864 0 0)
(284.652 0 0)
(285.419 0 0)
(286.165 0 0)
(286.89 0 0)
(287.594 0 0)
(288.278 0 0)
(288.941 0 0)
(289.584 0 0)
(290.206 0 0)
(290.809 0 0)
(291.391 0 0)
(291.954 0 0)
(292.496 0 0)
(293.02 0 0)
(293.523 0 0)
(294.007 0 0)
(294.471 0 0)
(294.916 0 0)
(295.341 0 0)
(295.747 0 0)
(296.133 0 0)
(296.5 0 0)
(296.847 0 0)
(297.174 0 0)
(297.482 0 0)
(297.77 0 0)
(298.039 0 0)
(298.288 0 0)
(298.516 0 0)
(298.725 0 0)
(298.914 0 0)
(299.082 0 0)
(299.23 0 0)
(299.358 0 0)
(299.464 0 0)
(299.55 0 0)
(299.615 0 0)
(299.659 0 0)
(299.681 0 0)
(299.681 0 0)
(299.659 0 0)
(299.616 0 0)
(299.549 0 0)
(299.46 0 0)
(299.347 0 0)
(299.211 0 0)
(299.05 0 0)
(298.866 0 0)
(298.656 0 0)
(298.421 0 0)
(298.16 0 0)
(297.873 0 0)
(297.559 0 0)
(297.217 0 0)
(296.846 0 0)
(296.447 0 0)
(296.018 0 0)
(295.558 0 0)
(295.067 0 0)
(294.542 0 0)
(293.985 0 0)
(293.392 0 0)
(292.763 0 0)
(292.097 0 0)
(291.392 0 0)
(290.646 0 0)
(289.857 0 0)
(289.024 0 0)
(288.145 0 0)
(287.215 0 0)
(286.235 0 0)
(285.198 0 0)
(284.105 0 0)
(282.944 0 0)
(281.742 0 0)
(280.371 0 0)
(279.191 0 0)
(277.2 0 0)
(284.768 0 0)
(285.509 0 0)
(286.23 0 0)
(286.931 0 0)
(287.612 0 0)
(288.275 0 0)
(288.918 0 0)
(289.542 0 0)
(290.147 0 0)
(290.733 0 0)
(291.301 0 0)
(291.85 0 0)
(292.38 0 0)
(292.892 0 0)
(293.385 0 0)
(293.86 0 0)
(294.317 0 0)
(294.755 0 0)
(295.175 0 0)
(295.576 0 0)
(295.959 0 0)
(296.324 0 0)
(296.671 0 0)
(296.999 0 0)
(297.308 0 0)
(297.6 0 0)
(297.872 0 0)
(298.126 0 0)
(298.362 0 0)
(298.578 0 0)
(298.776 0 0)
(298.955 0 0)
(299.114 0 0)
(299.255 0 0)
(299.376 0 0)
(299.478 0 0)
(299.56 0 0)
(299.622 0 0)
(299.664 0 0)
(299.686 0 0)
(299.687 0 0)
(299.668 0 0)
(299.627 0 0)
(299.566 0 0)
(299.483 0 0)
(299.378 0 0)
(299.251 0 0)
(299.101 0 0)
(298.929 0 0)
(298.733 0 0)
(298.514 0 0)
(298.27 0 0)
(298.002 0 0)
(297.709 0 0)
(297.39 0 0)
(297.044 0 0)
(296.672 0 0)
(296.272 0 0)
(295.843 0 0)
(295.386 0 0)
(294.898 0 0)
(294.38 0 0)
(293.829 0 0)
(293.245 0 0)
(292.627 0 0)
(291.974 0 0)
(291.284 0 0)
(290.555 0 0)
(289.787 0 0)
(288.976 0 0)
(288.121 0 0)
(287.221 0 0)
(286.271 0 0)
(285.272 0 0)
(284.209 0 0)
(283.118 0 0)
(281.884 0 0)
(280.805 0 0)
(279.012 0 0)
(285.619 0 0)
(286.314 0 0)
(286.992 0 0)
(287.651 0 0)
(288.292 0 0)
(288.915 0 0)
(289.52 0 0)
(290.108 0 0)
(290.678 0 0)
(291.23 0 0)
(291.765 0 0)
(292.282 0 0)
(292.782 0 0)
(293.265 0 0)
(293.73 0 0)
(294.178 0 0)
(294.609 0 0)
(295.023 0 0)
(295.419 0 0)
(295.798 0 0)
(296.16 0 0)
(296.505 0 0)
(296.832 0 0)
(297.143 0 0)
(297.435 0 0)
(297.711 0 0)
(297.969 0 0)
(298.209 0 0)
(298.432 0 0)
(298.637 0 0)
(298.824 0 0)
(298.994 0 0)
(299.145 0 0)
(299.278 0 0)
(299.393 0 0)
(299.49 0 0)
(299.568 0 0)
(299.628 0 0)
(299.668 0 0)
(299.69 0 0)
(299.692 0 0)
(299.675 0 0)
(299.638 0 0)
(299.581 0 0)
(299.504 0 0)
(299.407 0 0)
(299.288 0 0)
(299.149 0 0)
(298.988 0 0)
(298.805 0 0)
(298.601 0 0)
(298.373 0 0)
(298.123 0 0)
(297.849 0 0)
(297.551 0 0)
(297.229 0 0)
(296.882 0 0)
(296.509 0 0)
(296.109 0 0)
(295.683 0 0)
(295.229 0 0)
(294.747 0 0)
(294.235 0 0)
(293.693 0 0)
(293.119 0 0)
(292.514 0 0)
(291.875 0 0)
(291.201 0 0)
(290.49 0 0)
(289.742 0 0)
(288.955 0 0)
(288.127 0 0)
(287.254 0 0)
(286.339 0 0)
(285.368 0 0)
(284.369 0 0)
(283.249 0 0)
(282.269 0 0)
(280.652 0 0)
(286.418 0 0)
(287.072 0 0)
(287.709 0 0)
(288.329 0 0)
(288.932 0 0)
(289.518 0 0)
(290.088 0 0)
(290.641 0 0)
(291.178 0 0)
(291.698 0 0)
(292.202 0 0)
(292.69 0 0)
(293.161 0 0)
(293.617 0 0)
(294.056 0 0)
(294.479 0 0)
(294.885 0 0)
(295.276 0 0)
(295.65 0 0)
(296.008 0 0)
(296.35 0 0)
(296.676 0 0)
(296.985 0 0)
(297.279 0 0)
(297.555 0 0)
(297.816 0 0)
(298.06 0 0)
(298.287 0 0)
(298.498 0 0)
(298.692 0 0)
(298.87 0 0)
(299.03 0 0)
(299.174 0 0)
(299.301 0 0)
(299.41 0 0)
(299.502 0 0)
(299.577 0 0)
(299.634 0 0)
(299.673 0 0)
(299.694 0 0)
(299.697 0 0)
(299.682 0 0)
(299.648 0 0)
(299.596 0 0)
(299.524 0 0)
(299.434 0 0)
(299.324 0 0)
(299.194 0 0)
(299.043 0 0)
(298.873 0 0)
(298.682 0 0)
(298.469 0 0)
(298.236 0 0)
(297.98 0 0)
(297.702 0 0)
(297.401 0 0)
(297.077 0 0)
(296.729 0 0)
(296.357 0 0)
(295.96 0 0)
(295.537 0 0)
(295.088 0 0)
(294.612 0 0)
(294.108 0 0)
(293.576 0 0)
(293.014 0 0)
(292.422 0 0)
(291.798 0 0)
(291.141 0 0)
(290.45 0 0)
(289.723 0 0)
(288.96 0 0)
(288.158 0 0)
(287.317 0 0)
(286.427 0 0)
(285.513 0 0)
(284.491 0 0)
(283.597 0 0)
(282.134 0 0)
(287.17 0 0)
(287.785 0 0)
(288.384 0 0)
(288.967 0 0)
(289.534 0 0)
(290.086 0 0)
(290.623 0 0)
(291.144 0 0)
(291.649 0 0)
(292.14 0 0)
(292.615 0 0)
(293.075 0 0)
(293.519 0 0)
(293.949 0 0)
(294.363 0 0)
(294.762 0 0)
(295.146 0 0)
(295.515 0 0)
(295.868 0 0)
(296.207 0 0)
(296.53 0 0)
(296.837 0 0)
(297.13 0 0)
(297.407 0 0)
(297.669 0 0)
(297.915 0 0)
(298.146 0 0)
(298.361 0 0)
(298.561 0 0)
(298.745 0 0)
(298.913 0 0)
(299.065 0 0)
(299.202 0 0)
(299.322 0 0)
(299.426 0 0)
(299.513 0 0)
(299.585 0 0)
(299.639 0 0)
(299.677 0 0)
(299.698 0 0)
(299.702 0 0)
(299.689 0 0)
(299.658 0 0)
(299.609 0 0)
(299.543 0 0)
(299.459 0 0)
(299.356 0 0)
(299.235 0 0)
(299.095 0 0)
(298.936 0 0)
(298.757 0 0)
(298.559 0 0)
(298.341 0 0)
(298.102 0 0)
(297.842 0 0)
(297.562 0 0)
(297.259 0 0)
(296.935 0 0)
(296.588 0 0)
(296.218 0 0)
(295.824 0 0)
(295.406 0 0)
(294.963 0 0)
(294.495 0 0)
(294 0 0)
(293.478 0 0)
(292.929 0 0)
(292.35 0 0)
(291.742 0 0)
(291.103 0 0)
(290.432 0 0)
(289.728 0 0)
(288.989 0 0)
(288.216 0 0)
(287.399 0 0)
(286.561 0 0)
(285.626 0 0)
(284.808 0 0)
(283.478 0 0)
(287.878 0 0)
(288.456 0 0)
(289.019 0 0)
(289.568 0 0)
(290.102 0 0)
(290.621 0 0)
(291.126 0 0)
(291.617 0 0)
(292.094 0 0)
(292.556 0 0)
(293.004 0 0)
(293.438 0 0)
(293.857 0 0)
(294.262 0 0)
(294.653 0 0)
(295.03 0 0)
(295.392 0 0)
(295.74 0 0)
(296.074 0 0)
(296.394 0 0)
(296.699 0 0)
(296.99 0 0)
(297.267 0 0)
(297.529 0 0)
(297.776 0 0)
(298.009 0 0)
(298.228 0 0)
(298.431 0 0)
(298.62 0 0)
(298.795 0 0)
(298.954 0 0)
(299.098 0 0)
(299.228 0 0)
(299.342 0 0)
(299.441 0 0)
(299.524 0 0)
(299.592 0 0)
(299.645 0 0)
(299.681 0 0)
(299.702 0 0)
(299.706 0 0)
(299.695 0 0)
(299.667 0 0)
(299.622 0 0)
(299.561 0 0)
(299.482 0 0)
(299.387 0 0)
(299.274 0 0)
(299.143 0 0)
(298.995 0 0)
(298.828 0 0)
(298.643 0 0)
(298.439 0 0)
(298.216 0 0)
(297.974 0 0)
(297.712 0 0)
(297.429 0 0)
(297.127 0 0)
(296.803 0 0)
(296.458 0 0)
(296.091 0 0)
(295.702 0 0)
(295.289 0 0)
(294.854 0 0)
(294.394 0 0)
(293.909 0 0)
(293.399 0 0)
(292.863 0 0)
(292.299 0 0)
(291.708 0 0)
(291.087 0 0)
(290.437 0 0)
(289.755 0 0)
(289.043 0 0)
(288.291 0 0)
(287.521 0 0)
(286.666 0 0)
(285.915 0 0)
(284.704 0 0)
(288.544 0 0)
(289.088 0 0)
(289.617 0 0)
(290.134 0 0)
(290.636 0 0)
(291.126 0 0)
(291.601 0 0)
(292.064 0 0)
(292.513 0 0)
(292.949 0 0)
(293.371 0 0)
(293.78 0 0)
(294.176 0 0)
(294.558 0 0)
(294.927 0 0)
(295.283 0 0)
(295.625 0 0)
(295.954 0 0)
(296.269 0 0)
(296.571 0 0)
(296.859 0 0)
(297.134 0 0)
(297.396 0 0)
(297.644 0 0)
(297.878 0 0)
(298.098 0 0)
(298.305 0 0)
(298.498 0 0)
(298.677 0 0)
(298.842 0 0)
(298.993 0 0)
(299.13 0 0)
(299.253 0 0)
(299.361 0 0)
(299.455 0 0)
(299.535 0 0)
(299.599 0 0)
(299.65 0 0)
(299.685 0 0)
(299.705 0 0)
(299.711 0 0)
(299.7 0 0)
(299.675 0 0)
(299.634 0 0)
(299.577 0 0)
(299.504 0 0)
(299.415 0 0)
(299.31 0 0)
(299.188 0 0)
(299.05 0 0)
(298.894 0 0)
(298.721 0 0)
(298.531 0 0)
(298.323 0 0)
(298.096 0 0)
(297.852 0 0)
(297.588 0 0)
(297.306 0 0)
(297.004 0 0)
(296.682 0 0)
(296.34 0 0)
(295.977 0 0)
(295.593 0 0)
(295.188 0 0)
(294.76 0 0)
(294.31 0 0)
(293.836 0 0)
(293.338 0 0)
(292.815 0 0)
(292.268 0 0)
(291.693 0 0)
(291.092 0 0)
(290.462 0 0)
(289.805 0 0)
(289.113 0 0)
(288.404 0 0)
(287.619 0 0)
(286.93 0 0)
(285.823 0 0)
(289.171 0 0)
(289.682 0 0)
(290.181 0 0)
(290.667 0 0)
(291.14 0 0)
(291.601 0 0)
(292.049 0 0)
(292.485 0 0)
(292.908 0 0)
(293.319 0 0)
(293.717 0 0)
(294.103 0 0)
(294.476 0 0)
(294.837 0 0)
(295.186 0 0)
(295.521 0 0)
(295.844 0 0)
(296.155 0 0)
(296.453 0 0)
(296.738 0 0)
(297.011 0 0)
(297.271 0 0)
(297.518 0 0)
(297.752 0 0)
(297.974 0 0)
(298.182 0 0)
(298.378 0 0)
(298.561 0 0)
(298.73 0 0)
(298.887 0 0)
(299.03 0 0)
(299.16 0 0)
(299.276 0 0)
(299.379 0 0)
(299.469 0 0)
(299.544 0 0)
(299.606 0 0)
(299.654 0 0)
(299.689 0 0)
(299.709 0 0)
(299.714 0 0)
(299.706 0 0)
(299.683 0 0)
(299.645 0 0)
(299.592 0 0)
(299.525 0 0)
(299.442 0 0)
(299.344 0 0)
(299.23 0 0)
(299.101 0 0)
(298.956 0 0)
(298.794 0 0)
(298.616 0 0)
(298.422 0 0)
(298.211 0 0)
(297.982 0 0)
(297.736 0 0)
(297.473 0 0)
(297.191 0 0)
(296.891 0 0)
(296.572 0 0)
(296.234 0 0)
(295.876 0 0)
(295.499 0 0)
(295.101 0 0)
(294.682 0 0)
(294.241 0 0)
(293.779 0 0)
(293.294 0 0)
(292.786 0 0)
(292.254 0 0)
(291.698 0 0)
(291.116 0 0)
(290.509 0 0)
(289.87 0 0)
(289.217 0 0)
(288.495 0 0)
(287.861 0 0)
(286.848 0 0)
(289.761 0 0)
(290.243 0 0)
(290.712 0 0)
(291.169 0 0)
(291.615 0 0)
(292.049 0 0)
(292.472 0 0)
(292.882 0 0)
(293.281 0 0)
(293.669 0 0)
(294.044 0 0)
(294.408 0 0)
(294.76 0 0)
(295.101 0 0)
(295.43 0 0)
(295.747 0 0)
(296.052 0 0)
(296.345 0 0)
(296.627 0 0)
(296.896 0 0)
(297.154 0 0)
(297.4 0 0)
(297.633 0 0)
(297.855 0 0)
(298.065 0 0)
(298.262 0 0)
(298.447 0 0)
(298.62 0 0)
(298.781 0 0)
(298.929 0 0)
(299.065 0 0)
(299.188 0 0)
(299.299 0 0)
(299.396 0 0)
(299.481 0 0)
(299.554 0 0)
(299.613 0 0)
(299.659 0 0)
(299.692 0 0)
(299.712 0 0)
(299.718 0 0)
(299.711 0 0)
(299.69 0 0)
(299.655 0 0)
(299.606 0 0)
(299.544 0 0)
(299.467 0 0)
(299.375 0 0)
(299.269 0 0)
(299.149 0 0)
(299.013 0 0)
(298.863 0 0)
(298.697 0 0)
(298.515 0 0)
(298.318 0 0)
(298.104 0 0)
(297.875 0 0)
(297.629 0 0)
(297.366 0 0)
(297.086 0 0)
(296.788 0 0)
(296.473 0 0)
(296.14 0 0)
(295.788 0 0)
(295.418 0 0)
(295.028 0 0)
(294.619 0 0)
(294.189 0 0)
(293.739 0 0)
(293.267 0 0)
(292.774 0 0)
(292.259 0 0)
(291.72 0 0)
(291.159 0 0)
(290.569 0 0)
(289.967 0 0)
(289.302 0 0)
(288.717 0 0)
(287.788 0 0)
(290.318 0 0)
(290.77 0 0)
(291.212 0 0)
(291.643 0 0)
(292.063 0 0)
(292.472 0 0)
(292.87 0 0)
(293.257 0 0)
(293.633 0 0)
(293.998 0 0)
(294.353 0 0)
(294.696 0 0)
(295.028 0 0)
(295.35 0 0)
(295.66 0 0)
(295.96 0 0)
(296.248 0 0)
(296.525 0 0)
(296.791 0 0)
(297.046 0 0)
(297.289 0 0)
(297.522 0 0)
(297.743 0 0)
(297.952 0 0)
(298.151 0 0)
(298.337 0 0)
(298.513 0 0)
(298.677 0 0)
(298.829 0 0)
(298.969 0 0)
(299.098 0 0)
(299.215 0 0)
(299.32 0 0)
(299.413 0 0)
(299.494 0 0)
(299.563 0 0)
(299.619 0 0)
(299.663 0 0)
(299.695 0 0)
(299.715 0 0)
(299.721 0 0)
(299.715 0 0)
(299.696 0 0)
(299.665 0 0)
(299.62 0 0)
(299.561 0 0)
(299.49 0 0)
(299.405 0 0)
(299.306 0 0)
(299.193 0 0)
(299.067 0 0)
(298.926 0 0)
(298.771 0 0)
(298.602 0 0)
(298.417 0 0)
(298.218 0 0)
(298.004 0 0)
(297.774 0 0)
(297.529 0 0)
(297.267 0 0)
(296.99 0 0)
(296.696 0 0)
(296.386 0 0)
(296.058 0 0)
(295.713 0 0)
(295.35 0 0)
(294.969 0 0)
(294.57 0 0)
(294.152 0 0)
(293.714 0 0)
(293.256 0 0)
(292.779 0 0)
(292.28 0 0)
(291.761 0 0)
(291.216 0 0)
(290.659 0 0)
(290.046 0 0)
(289.506 0 0)
(288.653 0 0)
(290.842 0 0)
(291.268 0 0)
(291.684 0 0)
(292.089 0 0)
(292.485 0 0)
(292.87 0 0)
(293.245 0 0)
(293.61 0 0)
(293.965 0 0)
(294.31 0 0)
(294.644 0 0)
(294.968 0 0)
(295.282 0 0)
(295.585 0 0)
(295.878 0 0)
(296.161 0 0)
(296.433 0 0)
(296.695 0 0)
(296.946 0 0)
(297.187 0 0)
(297.417 0 0)
(297.637 0 0)
(297.846 0 0)
(298.044 0 0)
(298.232 0 0)
(298.409 0 0)
(298.575 0 0)
(298.73 0 0)
(298.874 0 0)
(299.007 0 0)
(299.129 0 0)
(299.24 0 0)
(299.34 0 0)
(299.428 0 0)
(299.505 0 0)
(299.571 0 0)
(299.625 0 0)
(299.668 0 0)
(299.698 0 0)
(299.717 0 0)
(299.724 0 0)
(299.72 0 0)
(299.703 0 0)
(299.673 0 0)
(299.632 0 0)
(299.578 0 0)
(299.511 0 0)
(299.432 0 0)
(299.34 0 0)
(299.235 0 0)
(299.117 0 0)
(298.986 0 0)
(298.841 0 0)
(298.683 0 0)
(298.511 0 0)
(298.325 0 0)
(298.124 0 0)
(297.91 0 0)
(297.681 0 0)
(297.437 0 0)
(297.178 0 0)
(296.904 0 0)
(296.614 0 0)
(296.309 0 0)
(295.988 0 0)
(295.65 0 0)
(295.296 0 0)
(294.924 0 0)
(294.535 0 0)
(294.129 0 0)
(293.704 0 0)
(293.261 0 0)
(292.798 0 0)
(292.318 0 0)
(291.813 0 0)
(291.299 0 0)
(290.733 0 0)
(290.234 0 0)
(289.45 0 0)
(291.335 0 0)
(291.737 0 0)
(292.128 0 0)
(292.51 0 0)
(292.883 0 0)
(293.246 0 0)
(293.6 0 0)
(293.944 0 0)
(294.278 0 0)
(294.603 0 0)
(294.919 0 0)
(295.224 0 0)
(295.521 0 0)
(295.807 0 0)
(296.084 0 0)
(296.351 0 0)
(296.608 0 0)
(296.855 0 0)
(297.093 0 0)
(297.321 0 0)
(297.538 0 0)
(297.746 0 0)
(297.944 0 0)
(298.131 0 0)
(298.309 0 0)
(298.476 0 0)
(298.634 0 0)
(298.781 0 0)
(298.917 0 0)
(299.043 0 0)
(299.159 0 0)
(299.264 0 0)
(299.359 0 0)
(299.443 0 0)
(299.517 0 0)
(299.579 0 0)
(299.631 0 0)
(299.672 0 0)
(299.701 0 0)
(299.72 0 0)
(299.727 0 0)
(299.723 0 0)
(299.708 0 0)
(299.682 0 0)
(299.643 0 0)
(299.593 0 0)
(299.531 0 0)
(299.458 0 0)
(299.372 0 0)
(299.274 0 0)
(299.164 0 0)
(299.041 0 0)
(298.906 0 0)
(298.758 0 0)
(298.598 0 0)
(298.424 0 0)
(298.237 0 0)
(298.037 0 0)
(297.823 0 0)
(297.595 0 0)
(297.354 0 0)
(297.098 0 0)
(296.828 0 0)
(296.543 0 0)
(296.244 0 0)
(295.929 0 0)
(295.599 0 0)
(295.254 0 0)
(294.892 0 0)
(294.514 0 0)
(294.12 0 0)
(293.708 0 0)
(293.279 0 0)
(292.834 0 0)
(292.367 0 0)
(291.89 0 0)
(291.368 0 0)
(290.907 0 0)
(290.184 0 0)
(291.801 0 0)
(292.178 0 0)
(292.547 0 0)
(292.907 0 0)
(293.258 0 0)
(293.601 0 0)
(293.934 0 0)
(294.258 0 0)
(294.574 0 0)
(294.881 0 0)
(295.178 0 0)
(295.467 0 0)
(295.746 0 0)
(296.017 0 0)
(296.278 0 0)
(296.53 0 0)
(296.773 0 0)
(297.007 0 0)
(297.232 0 0)
(297.447 0 0)
(297.653 0 0)
(297.849 0 0)
(298.036 0 0)
(298.214 0 0)
(298.382 0 0)
(298.54 0 0)
(298.689 0 0)
(298.829 0 0)
(298.958 0 0)
(299.078 0 0)
(299.188 0 0)
(299.287 0 0)
(299.377 0 0)
(299.457 0 0)
(299.527 0 0)
(299.587 0 0)
(299.636 0 0)
(299.675 0 0)
(299.704 0 0)
(299.722 0 0)
(299.73 0 0)
(299.727 0 0)
(299.714 0 0)
(299.689 0 0)
(299.654 0 0)
(299.608 0 0)
(299.55 0 0)
(299.482 0 0)
(299.402 0 0)
(299.311 0 0)
(299.208 0 0)
(299.093 0 0)
(298.967 0 0)
(298.829 0 0)
(298.679 0 0)
(298.517 0 0)
(298.342 0 0)
(298.155 0 0)
(297.955 0 0)
(297.743 0 0)
(297.517 0 0)
(297.279 0 0)
(297.027 0 0)
(296.762 0 0)
(296.482 0 0)
(296.189 0 0)
(295.882 0 0)
(295.56 0 0)
(295.224 0 0)
(294.873 0 0)
(294.506 0 0)
(294.124 0 0)
(293.726 0 0)
(293.312 0 0)
(292.88 0 0)
(292.439 0 0)
(291.955 0 0)
(291.528 0 0)
(290.862 0 0)
(292.239 0 0)
(292.595 0 0)
(292.942 0 0)
(293.282 0 0)
(293.612 0 0)
(293.935 0 0)
(294.249 0 0)
(294.555 0 0)
(294.853 0 0)
(295.142 0 0)
(295.423 0 0)
(295.696 0 0)
(295.959 0 0)
(296.215 0 0)
(296.462 0 0)
(296.7 0 0)
(296.93 0 0)
(297.15 0 0)
(297.363 0 0)
(297.566 0 0)
(297.761 0 0)
(297.947 0 0)
(298.124 0 0)
(298.292 0 0)
(298.451 0 0)
(298.601 0 0)
(298.742 0 0)
(298.874 0 0)
(298.997 0 0)
(299.11 0 0)
(299.214 0 0)
(299.309 0 0)
(299.395 0 0)
(299.471 0 0)
(299.537 0 0)
(299.594 0 0)
(299.641 0 0)
(299.679 0 0)
(299.707 0 0)
(299.725 0 0)
(299.733 0 0)
(299.731 0 0)
(299.718 0 0)
(299.696 0 0)
(299.664 0 0)
(299.621 0 0)
(299.568 0 0)
(299.504 0 0)
(299.43 0 0)
(299.344 0 0)
(299.249 0 0)
(299.142 0 0)
(299.024 0 0)
(298.895 0 0)
(298.755 0 0)
(298.603 0 0)
(298.44 0 0)
(298.266 0 0)
(298.079 0 0)
(297.881 0 0)
(297.67 0 0)
(297.448 0 0)
(297.213 0 0)
(296.965 0 0)
(296.705 0 0)
(296.432 0 0)
(296.145 0 0)
(295.846 0 0)
(295.533 0 0)
(295.206 0 0)
(294.865 0 0)
(294.51 0 0)
(294.14 0 0)
(293.757 0 0)
(293.356 0 0)
(292.947 0 0)
(292.499 0 0)
(292.104 0 0)
(291.489 0 0)
(292.653 0 0)
(292.988 0 0)
(293.315 0 0)
(293.635 0 0)
(293.947 0 0)
(294.251 0 0)
(294.547 0 0)
(294.836 0 0)
(295.116 0 0)
(295.389 0 0)
(295.654 0 0)
(295.912 0 0)
(296.161 0 0)
(296.402 0 0)
(296.635 0 0)
(296.86 0 0)
(297.077 0 0)
(297.286 0 0)
(297.487 0 0)
(297.679 0 0)
(297.863 0 0)
(298.039 0 0)
(298.207 0 0)
(298.366 0 0)
(298.516 0 0)
(298.658 0 0)
(298.792 0 0)
(298.917 0 0)
(299.033 0 0)
(299.141 0 0)
(299.24 0 0)
(299.33 0 0)
(299.411 0 0)
(299.483 0 0)
(299.547 0 0)
(299.601 0 0)
(299.646 0 0)
(299.682 0 0)
(299.709 0 0)
(299.727 0 0)
(299.735 0 0)
(299.734 0 0)
(299.723 0 0)
(299.703 0 0)
(299.673 0 0)
(299.633 0 0)
(299.584 0 0)
(299.525 0 0)
(299.455 0 0)
(299.376 0 0)
(299.287 0 0)
(299.187 0 0)
(299.077 0 0)
(298.957 0 0)
(298.826 0 0)
(298.684 0 0)
(298.532 0 0)
(298.369 0 0)
(298.195 0 0)
(298.009 0 0)
(297.813 0 0)
(297.605 0 0)
(297.386 0 0)
(297.155 0 0)
(296.912 0 0)
(296.658 0 0)
(296.391 0 0)
(296.112 0 0)
(295.82 0 0)
(295.516 0 0)
(295.199 0 0)
(294.869 0 0)
(294.526 0 0)
(294.17 0 0)
(293.797 0 0)
(293.418 0 0)
(293.003 0 0)
(292.637 0 0)
(292.069 0 0)
(293.043 0 0)
(293.358 0 0)
(293.667 0 0)
(293.968 0 0)
(294.262 0 0)
(294.549 0 0)
(294.828 0 0)
(295.1 0 0)
(295.365 0 0)
(295.623 0 0)
(295.873 0 0)
(296.116 0 0)
(296.351 0 0)
(296.579 0 0)
(296.799 0 0)
(297.012 0 0)
(297.217 0 0)
(297.414 0 0)
(297.604 0 0)
(297.786 0 0)
(297.96 0 0)
(298.126 0 0)
(298.285 0 0)
(298.436 0 0)
(298.578 0 0)
(298.713 0 0)
(298.839 0 0)
(298.958 0 0)
(299.068 0 0)
(299.17 0 0)
(299.264 0 0)
(299.35 0 0)
(299.427 0 0)
(299.496 0 0)
(299.556 0 0)
(299.608 0 0)
(299.651 0 0)
(299.686 0 0)
(299.712 0 0)
(299.729 0 0)
(299.737 0 0)
(299.737 0 0)
(299.727 0 0)
(299.709 0 0)
(299.681 0 0)
(299.645 0 0)
(299.599 0 0)
(299.544 0 0)
(299.479 0 0)
(299.406 0 0)
(299.322 0 0)
(299.229 0 0)
(299.127 0 0)
(299.014 0 0)
(298.892 0 0)
(298.76 0 0)
(298.618 0 0)
(298.465 0 0)
(298.303 0 0)
(298.13 0 0)
(297.946 0 0)
(297.752 0 0)
(297.548 0 0)
(297.332 0 0)
(297.106 0 0)
(296.868 0 0)
(296.62 0 0)
(296.36 0 0)
(296.088 0 0)
(295.805 0 0)
(295.51 0 0)
(295.203 0 0)
(294.884 0 0)
(294.553 0 0)
(294.207 0 0)
(293.855 0 0)
(293.471 0 0)
(293.131 0 0)
(292.607 0 0)
(293.411 0 0)
(293.708 0 0)
(293.998 0 0)
(294.282 0 0)
(294.559 0 0)
(294.83 0 0)
(295.093 0 0)
(295.35 0 0)
(295.6 0 0)
(295.843 0 0)
(296.079 0 0)
(296.309 0 0)
(296.531 0 0)
(296.746 0 0)
(296.954 0 0)
(297.155 0 0)
(297.349 0 0)
(297.535 0 0)
(297.715 0 0)
(297.887 0 0)
(298.052 0 0)
(298.209 0 0)
(298.359 0 0)
(298.502 0 0)
(298.637 0 0)
(298.764 0 0)
(298.884 0 0)
(298.996 0 0)
(299.101 0 0)
(299.198 0 0)
(299.287 0 0)
(299.368 0 0)
(299.442 0 0)
(299.507 0 0)
(299.565 0 0)
(299.614 0 0)
(299.656 0 0)
(299.689 0 0)
(299.714 0 0)
(299.731 0 0)
(299.739 0 0)
(299.739 0 0)
(299.731 0 0)
(299.715 0 0)
(299.689 0 0)
(299.656 0 0)
(299.613 0 0)
(299.562 0 0)
(299.502 0 0)
(299.433 0 0)
(299.355 0 0)
(299.269 0 0)
(299.173 0 0)
(299.068 0 0)
(298.954 0 0)
(298.83 0 0)
(298.698 0 0)
(298.555 0 0)
(298.403 0 0)
(298.242 0 0)
(298.071 0 0)
(297.89 0 0)
(297.699 0 0)
(297.498 0 0)
(297.286 0 0)
(297.065 0 0)
(296.833 0 0)
(296.591 0 0)
(296.338 0 0)
(296.074 0 0)
(295.8 0 0)
(295.514 0 0)
(295.217 0 0)
(294.91 0 0)
(294.589 0 0)
(294.262 0 0)
(293.906 0 0)
(293.59 0 0)
(293.105 0 0)
(293.757 0 0)
(294.038 0 0)
(294.311 0 0)
(294.579 0 0)
(294.84 0 0)
(295.095 0 0)
(295.344 0 0)
(295.586 0 0)
(295.822 0 0)
(296.051 0 0)
(296.274 0 0)
(296.491 0 0)
(296.701 0 0)
(296.904 0 0)
(297.1 0 0)
(297.29 0 0)
(297.474 0 0)
(297.65 0 0)
(297.82 0 0)
(297.982 0 0)
(298.138 0 0)
(298.287 0 0)
(298.429 0 0)
(298.564 0 0)
(298.692 0 0)
(298.813 0 0)
(298.927 0 0)
(299.033 0 0)
(299.132 0 0)
(299.224 0 0)
(299.309 0 0)
(299.386 0 0)
(299.456 0 0)
(299.518 0 0)
(299.573 0 0)
(299.62 0 0)
(299.66 0 0)
(299.692 0 0)
(299.716 0 0)