/*--------------------------------*- C++ -*----------------------------------*\
| =========                 |                                                 |
| \\      /  F ield         | OpenFOAM: The Open Source CFD Toolbox           |
|  \\    /   O peration     | Version:  2312                                  |
|   \\  /    A nd           | Website:  www.openfoam.com                      |
|    \\/     M anipulation  |                                                 |
\*---------------------------------------------------------------------------*/
FoamFile
{
    version     2.0;
    format      ascii;
    arch        "LSB;label=32;scalar=64";
    class       surfaceScalarField;
    location    "0.528";
    object      phi;
}
// * * * * * * * * * * * * * * * * * * * * * * * * * * * * * * * * * * * * * //

dimensions      [0 3 -1 0 0 0 0];

oriented        oriented;

internalField   nonuniform List<scalar> 
62015
(
35.665
0.187787
-36.7472
34.5834
0.179355
33.5067
0.171004
32.4402
0.162768
31.3916
0.15469
30.3715
0.146826
29.3933
0.139238
28.4732
0.131995
27.6281
0.125167
26.874
0.118809
26.2233
0.112959
25.683
0.107622
25.2542
0.102779
24.9327
0.0983817
24.7102
0.0943691
24.5762
0.0906712
24.5192
0.0872178
24.5281
0.0839436
24.5927
0.0807901
24.7037
0.0777076
24.8537
0.0746541
25.036
0.0715953
25.2452
0.0685033
25.4771
0.0653553
25.7278
0.0621338
25.9947
0.0588241
26.2752
0.0554151
26.5674
0.0518979
26.8699
0.048266
27.1813
0.0445142
27.5007
0.0406386
27.8272
0.0366364
28.1603
0.0325065
28.4993
0.0282472
28.844
0.0238588
29.194
0.0193411
29.5491
0.0146952
29.9091
0.0099219
30.274
0.00502291
30.6435
0
31.0178
-0.00514492
31.3967
-0.0104091
31.7804
-0.0157907
32.1688
-0.0212863
32.5619
-0.0268936
32.96
-0.0326091
33.3629
-0.03843
33.7709
-0.0443525
34.1839
-0.0503738
34.6021
-0.0564897
35.0256
-0.0626967
35.4545
-0.0689913
35.8889
-0.0753695
36.3288
-0.0818274
36.7745
-0.0883608
37.2259
-0.0949656
37.6831
-0.101638
38.1464
-0.108374
38.6157
-0.115168
39.0911
-0.122017
39.5728
-0.128916
40.0608
-0.135861
40.5552
-0.142847
41.056
-0.14987
41.5633
-0.156925
42.0773
-0.164007
42.5979
-0.171113
43.1252
-0.178237
43.6592
-0.185374
44.2001
-0.19252
44.7477
-0.199671
45.3023
-0.20682
45.8636
-0.213965
46.4324
-0.221098
47.0062
-0.228224
47.5926
-0.235304
48.1688
-0.242442
48.8046
-0.249295
-0.256913
49.286
33.8139
0.361377
-34.8464
32.7844
0.345107
31.7638
0.329036
30.7587
0.313245
29.778
0.29783
28.8333
0.282908
27.9386
0.268606
27.1093
0.255054
26.3602
0.242367
25.7039
0.230626
25.1486
0.219864
24.6972
0.210058
24.3477
0.201139
24.0936
0.193001
23.9263
0.185518
23.8354
0.178557
23.8106
0.171993
23.8421
0.165709
23.9211
0.159604
24.04
0.153593
24.1923
0.147604
24.3724
0.141577
24.576
0.135466
24.7993
0.129232
25.0392
0.122844
25.2934
0.116277
25.5598
0.109511
25.8367
0.102533
26.123
0.0953288
26.4174
0.0878913
26.7192
0.0802134
27.0277
0.0722907
27.3423
0.0641203
27.6625
0.0557009
27.9881
0.047032
28.3189
0.0381145
28.6545
0.0289499
28.9948
0.0195404
29.3398
0.00988938
29.6895
0
30.0437
-0.0101235
30.4025
-0.0204766
30.7658
-0.0310546
31.1338
-0.0418521
31.5065
-0.0528631
31.8839
-0.0640823
32.2662
-0.0755032
32.6533
-0.0871192
33.0453
-0.098924
33.4425
-0.11091
33.8448
-0.123071
34.2523
-0.1354
34.6651
-0.147888
35.0834
-0.160528
35.5072
-0.173313
35.9366
-0.186234
36.3717
-0.199284
36.8126
-0.212454
37.2594
-0.225736
37.7121
-0.239122
38.1708
-0.252602
38.6357
-0.266169
39.1067
-0.279814
39.584
-0.293528
40.0676
-0.307302
40.5575
-0.321127
41.0539
-0.334994
41.5567
-0.348895
42.066
-0.36282
42.5819
-0.37676
43.1044
-0.390706
43.6335
-0.404648
44.169
-0.418579
44.7118
-0.432484
45.2595
-0.446373
45.8191
-0.460173
46.3695
-0.474078
46.9753
-0.487442
-0.502242
47.4396
32.0178
0.521115
-33
31.0426
0.497642
30.0813
0.474541
29.1417
0.451946
28.2338
0.430014
27.3697
0.408924
26.5633
0.388859
25.8281
0.369986
25.1761
0.352434
24.616
0.336267
24.1519
0.321479
23.7833
0.307991
23.5056
0.295672
23.3115
0.284354
23.1923
0.273853
23.1383
0.263989
23.1406
0.254592
23.1907
0.245513
23.2812
0.236621
23.4056
0.227806
23.5586
0.218976
23.7356
0.210058
23.9329
0.200989
24.1474
0.191721
24.3766
0.182214
24.6184
0.172437
24.8711
0.162363
25.1334
0.151974
25.4041
0.141255
25.6823
0.130194
25.9673
0.118783
26.2586
0.107017
26.5556
0.0948909
26.858
0.0824047
27.1655
0.0695577
27.4779
0.0563516
27.795
0.0427889
28.1168
0.0288727
28.443
0.0146082
28.7737
0
29.1089
-0.0149456
29.4485
-0.0302218
29.7927
-0.0458217
30.1413
-0.0617375
30.4945
-0.0779612
30.8524
-0.0944836
31.2149
-0.111296
31.5823
-0.12839
31.9544
-0.145754
32.3315
-0.16338
32.7137
-0.181256
33.1009
-0.199372
33.4933
-0.217717
33.891
-0.23628
34.2941
-0.25505
34.7026
-0.274016
35.1166
-0.293165
35.5363
-0.312485
35.9616
-0.331966
36.3927
-0.351593
36.8297
-0.371355
37.2725
-0.39124
37.7214
-0.411235
38.1762
-0.431327
38.6372
-0.451503
39.1043
-0.47175
39.5776
-0.492056
40.0572
-0.512406
40.543
-0.532789
41.0352
-0.55319
41.5336
-0.573596
42.0385
-0.593994
42.5496
-0.614372
43.0677
-0.634709
43.5906
-0.655019
44.1246
-0.675198
44.6504
-0.695519
45.2279
-0.71507
-0.736651
45.6741
30.3008
0.66777
-31.2312
29.382
0.637774
28.4829
0.608386
27.6122
0.5798
26.7807
0.552235
26.0004
0.525919
25.2839
0.501067
24.6423
0.477851
24.0842
0.456374
23.6144
0.436649
23.2335
0.418606
22.9386
0.402099
22.7237
0.386931
22.5811
0.37288
22.5024
0.359719
22.4792
0.347232
22.5036
0.335221
22.5684
0.323513
22.6674
0.311962
22.7954
0.300442
22.9478
0.288851
23.1209
0.277103
23.3116
0.26513
23.5173
0.252875
23.736
0.240294
23.9658
0.22735
24.2054
0.214015
24.4537
0.200266
24.7096
0.186086
24.9725
0.171463
25.2417
0.156386
25.5167
0.140851
25.7971
0.124852
26.0827
0.10839
26.3731
0.0914634
26.6682
0.0740757
26.9678
0.0562301
27.2719
0.0379315
27.5804
0.0191858
27.8933
0
28.2105
-0.0196181
28.532
-0.0396597
28.858
-0.0601157
29.1883
-0.0809758
29.5231
-0.10223
29.8624
-0.123866
30.2064
-0.145873
30.5549
-0.168239
30.9082
-0.19095
31.2664
-0.213996
31.6294
-0.23736
31.9973
-0.261031
32.3704
-0.284994
32.7485
-0.309235
33.1319
-0.333738
33.5206
-0.35849
33.9146
-0.383475
34.3141
-0.408677
34.7191
-0.434082
35.1297
-0.459672
35.5459
-0.485433
35.9678
-0.511348
36.3956
-0.537401
36.8292
-0.563574
37.2686
-0.589852
37.714
-0.616218
38.1654
-0.642655
38.6228
-0.669146
39.0862
-0.695673
39.5558
-0.72222
40.0314
-0.74877
40.5132
-0.775303
41.0011
-0.801808
41.4955
-0.828254
41.9947
-0.85466
42.5045
-0.880894
43.0068
-0.907303
43.5574
-0.932728
-0.96072
43.9856
28.6743
0.802298
-29.551
27.8145
0.766515
26.9805
0.731645
26.1818
0.69794
25.4293
0.665667
24.734
0.635082
24.1065
0.606398
23.5549
0.579753
23.0844
0.555189
22.6965
0.532648
22.3893
0.511983
22.1581
0.492981
21.9964
0.475391
21.8967
0.458948
21.8512
0.443396
21.8527
0.428494
21.8944
0.414031
21.9704
0.399822
22.0754
0.385709
22.205
0.371563
22.3556
0.357272
22.5241
0.342748
22.7078
0.327916
22.9048
0.312718
23.1131
0.297105
23.3314
0.281038
23.5585
0.264487
23.7934
0.247429
24.0354
0.229844
24.2837
0.211719
24.5379
0.193044
24.7976
0.173814
25.0624
0.154025
25.332
0.133675
25.6063
0.112766
25.8851
0.0913015
26.1683
0.0692858
26.4557
0.0467252
26.7475
0.023627
27.0435
0
27.3437
-0.0241462
27.6481
-0.0488013
27.9569
-0.0739534
28.2699
-0.0995906
28.5873
-0.1257
28.9091
-0.152268
29.2354
-0.17928
29.5662
-0.206722
29.9016
-0.234579
30.2418
-0.262834
30.5866
-0.291471
30.9364
-0.320474
31.291
-0.349827
31.6506
-0.37951
32.0153
-0.409507
32.3851
-0.4398
32.7602
-0.47037
33.1405
-0.501198
33.5261
-0.532266
33.9172
-0.563555
34.3137
-0.595044
34.7158
-0.626715
35.1235
-0.658547
35.5368
-0.690521
35.9557
-0.722616
36.3805
-0.754812
36.811
-0.787088
37.2473
-0.819424
37.6894
-0.8518
38.1374
-0.884193
38.5913
-0.916584
39.0511
-0.94895
39.5167
-0.981275
39.9887
-1.01352
40.4653
-1.04572
40.952
-1.0777
41.4317
-1.10988
41.9571
-1.14088
-1.17494
42.3675
27.1434
0.925753
-27.9641
26.3452
0.884979
25.5792
0.845488
24.8549
0.807577
24.1825
0.771536
23.5714
0.737615
23.0296
0.705986
22.5621
0.67672
22.1712
0.649779
21.8558
0.625022
21.6121
0.60223
21.4348
0.581132
21.3173
0.561436
21.2525
0.542851
21.2338
0.525101
21.2547
0.507938
21.3096
0.491142
21.3935
0.474524
21.5021
0.457925
21.6319
0.441212
21.7796
0.424272
21.9428
0.407016
22.1193
0.389367
22.3075
0.371265
22.5057
0.352661
22.7129
0.333515
22.928
0.313795
23.1502
0.293478
23.3789
0.272543
23.6135
0.250979
23.8535
0.228774
24.0987
0.205924
24.3487
0.182424
24.6034
0.158276
24.8624
0.13348
25.1258
0.108042
25.3935
0.0819662
25.6653
0.0552613
25.9412
0.0279358
26.2213
0
26.5055
-0.0285347
26.7938
-0.0576559
27.0862
-0.0873501
27.3829
-0.117603
27.6838
-0.1484
27.9891
-0.179724
28.2987
-0.21156
28.6127
-0.24389
28.9312
-0.276697
29.2543
-0.309961
29.582
-0.343664
29.9144
-0.377787
30.2516
-0.41231
30.5936
-0.447212
30.9406
-0.482474
31.2925
-0.518073
31.6495
-0.553989
32.0116
-0.5902
32.3788
-0.626683
32.7514
-0.663416
33.1292
-0.700377
33.5123
-0.737542
33.9009
-0.77489
34.2949
-0.812395
34.6944
-0.850035
35.0994
-0.887786
35.5101
-0.925625
35.9263
-0.963526
36.3481
-1.00147
36.7756
-1.03942
37.2087
-1.07737
37.6476
-1.11528
38.0921
-1.15313
38.5426
-1.19089
38.9976
-1.22858
39.4623
-1.26602
39.9205
-1.30368
40.4218
-1.33997
-1.37976
40.815
25.7099
1.03926
-26.4721
24.976
0.994345
24.2801
0.951133
23.6315
0.90994
23.0386
0.871045
22.5088
0.834651
22.0474
0.800859
21.6567
0.769651
21.3364
0.740902
21.0836
0.714392
20.8939
0.689842
20.7614
0.666939
20.68
0.645365
20.6434
0.624814
20.6457
0.605005
20.6815
0.585688
20.7462
0.566644
20.8354
0.547686
20.9458
0.528657
21.0742
0.509424
21.2183
0.489878
21.3757
0.469929
21.5449
0.449501
21.7243
0.428534
21.9127
0.406978
22.1092
0.384795
22.3128
0.361953
22.5229
0.338428
22.739
0.314201
22.9605
0.289259
23.1872
0.263592
23.4187
0.237195
23.6548
0.210067
23.8953
0.182207
24.14
0.153619
24.3889
0.124308
24.6419
0.0942808
24.8989
0.0635465
25.1599
0.0321158
25.4249
0
25.694
-0.0327876
25.967
-0.0662324
26.2441
-0.10032
26.5254
-0.135033
26.8107
-0.170355
27.1003
-0.206268
27.394
-0.242752
27.6922
-0.27979
27.9946
-0.317359
28.3016
-0.35544
28.613
-0.394012
28.929
-0.433051
29.2496
-0.472536
29.575
-0.512443
29.9051
-0.55275
30.2401
-0.593432
30.5799
-0.634465
30.9247
-0.675825
31.2745
-0.717486
31.6294
-0.759423
31.9894
-0.80161
32.3546
-0.844022
32.725
-0.886632
33.1007
-0.929414
33.4816
-0.972341
33.8679
-1.01539
34.2596
-1.05852
34.6567
-1.10172
35.0592
-1.14496
35.4671
-1.1882
35.8805
-1.23143
36.2994
-1.27461
36.7237
-1.31772
37.1538
-1.36071
37.5883
-1.40362
38.0319
-1.44623
38.4697
-1.48908
38.948
-1.5304
-1.5756
39.3246
24.3742
1.14399
-25.0754
23.7067
1.09583
23.0822
1.04981
22.5087
1.00623
21.993
0.965322
21.5399
0.927213
21.1521
0.891909
20.8298
0.859301
20.5709
0.829176
20.3715
0.801253
20.2268
0.775208
20.1312
0.750702
20.079
0.727405
20.0647
0.705009
20.0834
0.683236
20.1305
0.66184
20.2019
0.640608
20.2944
0.619361
20.405
0.597944
20.5311
0.576231
20.6708
0.554114
20.8222
0.531506
20.9839
0.508334
21.1547
0.484539
21.3336
0.460072
21.5197
0.434895
21.7123
0.408978
21.9109
0.382296
22.115
0.354833
22.3242
0.326576
22.5382
0.297515
22.7568
0.267647
22.9797
0.236969
23.2068
0.205485
23.438
0.173197
23.6733
0.140112
23.9124
0.106239
24.1555
0.0715881
24.4024
0.0361705
24.6533
0
24.908
-0.0369088
25.1666
-0.0745398
25.4292
-0.112876
25.6958
-0.151899
25.9664
-0.191591
26.2412
-0.231929
26.52
-0.272895
26.8031
-0.314466
27.0904
-0.35662
27.382
-0.399334
27.678
-0.442583
27.9784
-0.486344
28.2834
-0.530591
28.5929
-0.575299
28.907
-0.620442
29.2259
-0.665994
29.5494
-0.711926
29.8778
-0.758213
30.211
-0.804826
30.5492
-0.851737
30.8923
-0.898917
31.2404
-0.946338
31.5935
-0.993971
31.9517
-1.04179
32.315
-1.08975
32.6835
-1.13784
33.0571
-1.18603
33.436
-1.23427
33.8201
-1.28255
34.2094
-1.33083
34.604
-1.37907
35.0039
-1.42726
35.4089
-1.47536
35.8196
-1.52333
36.2345
-1.57118
36.6581
-1.61871
37.0763
-1.66648
37.5327
-1.71257
-1.76289
37.8936
23.1356
1.24118
-23.774
22.5357
1.19067
21.9824
1.14272
21.482
1.09757
21.0391
1.05539
20.6566
1.01619
20.3348
0.979884
20.0723
0.946277
19.866
0.915087
19.7115
0.885985
19.604
0.858621
19.5383
0.832645
19.5094
0.807728
19.5127
0.783566
19.5438
0.75989
19.5991
0.736466
19.6751
0.71309
19.769
0.68959
19.8786
0.66582
20.0016
0.641658
20.1364
0.617002
20.2816
0.591767
20.4358
0.565885
20.5982
0.539297
20.7678
0.511958
20.944
0.483831
21.1261
0.454886
21.3138
0.425101
21.5065
0.394459
21.7041
0.362948
21.9061
0.330561
22.1125
0.297295
22.323
0.263148
22.5375
0.228124
22.7559
0.192228
22.9782
0.155467
23.2043
0.117852
23.4342
0.0793927
23.6679
0.040104
23.9053
0
24.1465
-0.0409028
24.3916
-0.0825867
24.6404
-0.125033
24.8932
-0.168222
25.1499
-0.212132
25.4106
-0.256741
25.6753
-0.302027
25.9441
-0.347965
26.217
-0.394532
26.4941
-0.441701
26.7755
-0.489447
27.0612
-0.537743
27.3513
-0.586562
27.6458
-0.635875
27.9448
-0.685654
28.2483
-0.735871
28.5564
-0.786496
28.8692
-0.837498
29.1867
-0.888847
29.5089
-0.940513
29.8359
-0.992464
30.1677
-1.04467
30.5044
-1.0971
30.846
-1.14971
31.1926
-1.20249
31.5441
-1.25538
31.9006
-1.30837
32.2621
-1.36142
32.6287
-1.4145
33.0003
-1.46756
33.3769
-1.52059
33.7587
-1.57353
34.1454
-1.62638
34.5376
-1.67906
34.9338
-1.73162
35.3383
-1.78381
35.7378
-1.83625
36.1735
-1.88687
-1.94201
36.5192
21.9924
1.33206
-22.5668
21.4599
1.28006
20.976
1.23098
20.545
1.18498
20.1695
1.14212
19.8504
1.10231
19.5867
1.06538
19.3756
1.03106
19.2136
0.999009
19.0964
0.968877
19.0192
0.940302
18.9776
0.912937
18.9672
0.886459
18.984
0.86058
19.0245
0.835041
19.0854
0.809623
19.1641
0.784132
19.2582
0.758407
19.3658
0.732311
19.4851
0.705728
19.6148
0.678561
19.7535
0.65073
19.9004
0.62217
20.0545
0.592827
20.2152
0.562655
20.3819
0.531621
20.554
0.499696
20.7313
0.466859
20.9132
0.433096
21.0997
0.398395
21.2904
0.362749
21.4853
0.326157
21.684
0.28862
21.8867
0.250141
22.0931
0.210726
22.3032
0.170384
22.517
0.129127
22.7344
0.0869674
22.9555
0.0439195
23.1803
0
23.4088
-0.0447734
23.641
-0.0903815
23.8769
-0.136804
24.1166
-0.184018
24.3601
-0.232002
24.6075
-0.280732
24.8588
-0.330183
25.1141
-0.38033
25.3734
-0.431144
25.6368
-0.4826
25.9043
-0.534669
26.176
-0.587322
26.452
-0.640529
26.7322
-0.694261
27.0169
-0.748487
27.3059
-0.803174
27.5993
-0.858292
27.8973
-0.913807
28.1998
-0.969688
28.5069
-1.0259
28.8186
-1.08241
29.1349
-1.13918
29.456
-1.19619
29.7818
-1.25339
30.1124
-1.31074
30.4478
-1.36822
30.788
-1.42579
31.133
-1.48342
31.4829
-1.54106
31.8376
-1.59868
32.1972
-1.65625
32.5617
-1.71372
32.931
-1.77107
33.3055
-1.82823
33.6839
-1.88525
34.0702
-1.94187
34.452
-1.99873
34.8678
-2.05364
-2.11335
35.199
20.9418
1.41783
-21.4523
20.4751
1.36513
20.0571
1.31561
19.6904
1.26933
19.3758
1.22625
19.1128
1.18618
18.8991
1.14888
18.7316
1.11401
18.6066
1.08122
18.5199
1.05014
18.4673
1.02041
18.4449
0.991699
18.4489
0.963694
18.476
0.936122
18.5232
0.908744
18.5878
0.881352
18.6678
0.853768
18.761
0.82584
18.8659
0.79744
18.9811
0.76846
19.1053
0.738809
19.2377
0.708412
19.3773
0.677208
19.5234
0.645144
19.6755
0.61218
19.8331
0.578282
19.9957
0.543426
20.1631
0.507591
20.3349
0.470763
20.5109
0.432934
20.6909
0.394097
20.8748
0.354253
21.0625
0.313402
21.2539
0.27155
21.4489
0.228705
21.6476
0.184876
21.8497
0.140076
22.0555
0.0943187
22.2647
0.0476208
22.4776
0
22.694
-0.0485246
22.914
-0.0979323
23.1377
-0.148201
23.365
-0.199307
23.5961
-0.251226
23.8309
-0.303933
24.0695
-0.3574
24.312
-0.411601
24.5585
-0.466506
24.8088
-0.522086
25.0632
-0.578311
25.3217
-0.635151
25.5843
-0.692573
25.851
-0.750545
26.122
-0.809034
26.3972
-0.868007
26.6767
-0.927429
26.9606
-0.987265
27.2489
-1.04748
27.5416
-1.10804
27.8388
-1.16891
28.1404
-1.23005
28.4467
-1.29142
28.7575
-1.35299
29.0729
-1.41472
29.3929
-1.47657
29.7175
-1.53851
30.0468
-1.60049
30.3808
-1.66247
30.7195
-1.72443
31.0628
-1.78631
31.4109
-1.84809
31.7636
-1.90972
32.1213
-1.97114
32.4827
-2.03239
32.8517
-2.09321
33.2165
-2.15426
33.6134
-2.21326
-2.27727
33.9308
19.9796
1.49963
-20.4278
19.5756
1.44689
19.2188
1.39747
18.9104
1.35135
18.6498
1.30835
18.4353
1.26824
18.2642
1.23071
18.1333
1.19539
18.0387
1.16192
17.9768
1.12993
17.9439
1.09907
17.9366
1.06902
17.9517
1.0395
17.9864
1.01024
18.0382
0.981039
18.1051
0.951687
18.1851
0.922025
18.2766
0.891911
18.3783
0.861228
18.489
0.829874
18.6078
0.797765
18.7338
0.764831
18.8663
0.731014
19.0047
0.696266
19.1485
0.66055
19.2974
0.623834
19.451
0.586094
19.6089
0.547314
19.7711
0.50748
19.9372
0.466584
20.1071
0.424624
20.2808
0.381598
20.458
0.337511
20.6388
0.292368
20.8231
0.246178
21.0109
0.198953
21.2021
0.150706
21.3967
0.101453
21.5948
0.0512115
21.7964
0
22.0014
-0.0521604
22.2099
-0.105247
22.422
-0.159237
22.6377
-0.214105
22.8569
-0.269826
23.0799
-0.32637
23.3065
-0.383711
23.5369
-0.441819
23.7711
-0.500663
24.0092
-0.560213
24.2511
-0.620435
24.497
-0.681298
24.7469
-0.742768
25.0008
-0.80481
25.2588
-0.867389
25.5209
-0.930469
25.7872
-0.994015
26.0577
-1.05799
26.3325
-1.12235
26.6116
-1.18707
26.8949
-1.2521
27.1826
-1.31741
27.4748
-1.38296
27.7713
-1.4487
28.0722
-1.5146
28.3776
-1.58062
28.6875
-1.64671
29.0018
-1.71284
29.3207
-1.77897
29.6441
-1.84505
29.972
-1.91104
30.3044
-1.9769
30.6412
-2.0426
30.9829
-2.10807
31.3281
-2.17334
31.6806
-2.23814
32.0292
-2.30317
32.4082
-2.36603
-2.4341
32.7124
19.1004
1.57845
-19.4891
18.7547
1.52619
18.4536
1.47728
18.1969
1.43158
17.9832
1.38887
17.8102
1.34884
17.675
1.31114
17.5742
1.2754
17.5045
1.24125
17.4626
1.20835
17.4453
1.17635
17.4497
1.14496
17.4732
1.11392
17.5134
1.08299
17.5682
1.05196
17.636
1.02065
17.7151
0.988922
17.8043
0.956638
17.9024
0.92369
18.0085
0.889984
18.1218
0.855443
18.2415
0.820001
18.3671
0.783605
18.4981
0.746211
18.634
0.707783
18.7746
0.668293
18.9196
0.62772
19.0686
0.586047
19.2216
0.543264
19.3784
0.499364
19.5388
0.454346
19.7027
0.408211
19.8701
0.360962
20.0409
0.312608
20.215
0.263159
20.3926
0.212628
20.5734
0.161028
20.7576
0.108377
20.9451
0.0546945
21.136
0
21.3303
-0.0556841
21.528
-0.112334
21.7291
-0.169925
21.9337
-0.22843
22.1418
-0.287822
22.3535
-0.348071
22.5688
-0.409149
22.7877
-0.471022
23.0104
-0.533661
23.2367
-0.597031
23.4669
-0.661098
23.7008
-0.725829
23.9387
-0.791187
24.1804
-0.857136
24.4261
-0.923639
24.6758
-0.990658
24.9296
-1.05816
25.1874
-1.12609
25.4493
-1.19443
25.7154
-1.26312
25.9856
-1.33214
26.2601
-1.40143
26.5388
-1.47096
26.8217
-1.54069
27.1089
-1.61057
27.4004
-1.68056
27.6962
-1.75061
27.9963
-1.8207
28.3008
-1.89076
28.6096
-1.96077
28.9227
-2.03066
29.2402
-2.10041
29.562
-2.16998
29.8884
-2.23929
30.2182
-2.30837
30.555
-2.37695
30.8882
-2.44575
31.25
-2.51229
-2.58419
31.5416
18.2979
1.65514
-18.6312
18.0052
1.60372
17.7537
1.55557
17.5422
1.51047
17.3686
1.46812
17.2306
1.4282
17.125
1.39034
17.049
1.35416
16.9995
1.31932
16.9735
1.28547
16.9684
1.25231
16.9818
1.21957
17.0114
1.18699
17.0554
1.15437
17.1119
1.12152
17.1796
1.08827
17.2572
1.05448
17.3436
1.02004
17.4379
0.984843
17.5393
0.948808
17.647
0.91186
17.7606
0.87394
17.8795
0.834999
18.0033
0.794995
18.1317
0.753897
18.2644
0.711679
18.4012
0.668321
18.5418
0.623809
18.6862
0.578135
18.8341
0.531293
18.9855
0.483283
19.1402
0.434108
19.2983
0.383773
19.4597
0.332287
19.6243
0.279662
19.7921
0.22591
19.9632
0.17105
20.1375
0.115097
20.3151
0.0580734
20.4959
0
20.68
-0.0590995
20.8674
-0.1192
21.0582
-0.180275
21.2524
-0.242297
21.45
-0.305236
21.651
-0.369063
21.8555
-0.433744
22.0636
-0.499249
22.2752
-0.565542
22.4905
-0.63259
22.7095
-0.700356
22.9321
-0.768805
23.1586
-0.837899
23.3888
-0.907599
23.6228
-0.977867
23.8607
-1.04866
24.1025
-1.11995
24.3483
-1.19168
24.598
-1.26382
24.8517
-1.33632
25.1095
-1.40914
25.3713
-1.48225
25.6372
-1.55558
25.9072
-1.62911
26.1814
-1.70279
26.4596
-1.77656
26.742
-1.8504
27.0286
-1.92425
27.3194
-1.99806
27.6143
-2.0718
27.9134
-2.14542
28.2167
-2.21886
28.5241
-2.2921
28.8359
-2.36505
29.1511
-2.43776
29.4729
-2.50993
29.7914
-2.5823
30.1369
-2.65233
-2.72784
30.4164
17.565
1.73036
-17.8479
17.3196
1.68001
17.1115
1.63275
16.9387
1.5883
16.7991
1.54633
16.6901
1.50649
16.609
1.46842
16.5531
1.43176
16.5197
1.39617
16.5063
1.36134
16.5107
1.32699
16.5308
1.29287
16.5648
1.25874
16.6111
1.22442
16.6683
1.18974
16.7352
1.15455
16.8108
1.11871
16.8941
1.08213
16.9843
1.0447
17.0809
1.00636
17.1832
0.967031
17.2908
0.926663
17.4032
0.885211
17.5202
0.842636
17.6414
0.79891
17.7667
0.754009
17.8957
0.707916
18.0283
0.660619
18.1645
0.612111
18.304
0.562388
18.4469
0.511452
18.593
0.459307
18.7423
0.405958
18.8948
0.351418
19.0504
0.295697
19.2091
0.238812
19.3709
0.180779
19.5359
0.121619
19.7041
0.0613512
19.8754
0
20.0499
-0.06241
20.2276
-0.125852
20.4086
-0.190299
20.5929
-0.255722
20.7805
-0.322089
20.9714
-0.389368
21.1658
-0.457528
21.3636
-0.526533
21.5648
-0.596347
21.7696
-0.666936
21.978
-0.738262
22.1899
-0.810286
22.4055
-0.882969
22.6247
-0.956273
22.8477
-1.03015
23.0744
-1.10457
23.3049
-1.17949
23.5392
-1.25486
23.7773
-1.33064
24.0193
-1.40678
24.2652
-1.48324
24.515
-1.55999
24.7688
-1.63696
25.0265
-1.71412
25.2882
-1.79142
25.5539
-1.86881
25.8235
-1.94625
26.0972
-2.02368
26.3749
-2.10107
26.6566
-2.17837
26.9424
-2.25552
27.2321
-2.33247
27.5259
-2.4092
27.8238
-2.48562
28.125
-2.56177
28.4325
-2.63734
28.737
-2.71309
29.0669
-2.78643
-2.86535
29.335
16.8945
1.80462
-17.1323
16.6906
1.75544
16.5197
1.70909
16.3797
1.66527
16.2685
1.62363
16.1835
1.58381
16.1224
1.54546
16.0826
1.50824
16.062
1.47185
16.0585
1.43599
16.0701
1.40041
16.0951
1.36487
16.132
1.32918
16.1796
1.29316
16.2366
1.25664
16.3021
1.2195
16.3752
1.18163
16.4552
1.14292
16.5413
1.10328
16.6331
1.06265
16.7301
1.02097
16.8319
0.978187
16.9382
0.934258
17.0486
0.889151
17.163
0.842839
17.2811
0.795301
17.4027
0.746523
17.5278
0.696495
17.6563
0.64521
17.7879
0.592668
17.9227
0.538871
18.0607
0.483823
18.2017
0.427534
18.3457
0.370015
18.4928
0.311279
18.6429
0.251343
18.7961
0.190226
18.9523
0.127948
19.1115
0.0645308
19.2739
-1.30737e-07
19.4393
-0.0656187
19.6078
-0.132298
19.7796
-0.200008
19.9545
-0.268719
20.1326
-0.338398
20.314
-0.409013
20.4987
-0.480528
20.6868
-0.552908
20.8782
-0.626117
21.073
-0.700116
21.2713
-0.774866
21.4731
-0.850329
21.6784
-0.926462
21.8873
-1.00323
22.0997
-1.08058
22.3158
-1.15847
22.5355
-1.23687
22.7589
-1.31572
22.986
-1.39499
23.2169
-1.47462
23.4515
-1.55456
23.6899
-1.63479
23.9321
-1.71523
24.1781
-1.79586
24.428
-1.87662
24.6816
-1.95746
24.9392
-2.03833
25.2006
-2.11918
25.4659
-2.19997
25.735
-2.28065
26.008
-2.36117
26.2849
-2.44146
26.5656
-2.52151
26.8503
-2.60122
27.1382
-2.68063
27.432
-2.75943
27.7232
-2.83839
28.0383
-2.91487
-2.99701
28.2953
16.2792
1.87827
-16.4776
16.1111
1.83026
15.9718
1.78478
15.8593
1.74151
15.7715
1.70009
15.7062
1.6602
15.6612
1.62148
15.6343
1.58363
15.6238
1.54637
15.6278
1.50943
15.6447
1.47258
15.6732
1.4356
15.712
1.39832
15.7599
1.36058
15.8162
1.32223
15.8798
1.28315
15.9501
1.24325
16.0266
1.20242
16.1086
1.16059
16.1957
1.1177
16.2875
1.0737
16.3837
1.02853
16.484
0.982158
16.5882
0.934558
16.6961
0.885703
16.8074
0.835575
16.9221
0.784162
17.0401
0.731455
17.1612
0.677452
17.2854
0.622151
17.4126
0.565556
17.5428
0.507674
17.676
0.448515
17.8121
0.388092
17.9512
0.326419
18.0932
0.263514
18.2381
0.199397
18.386
0.13409
18.5369
0.0676153
18.6907
0
18.8476
-0.0687293
19.0074
-0.138543
19.1704
-0.209412
19.3365
-0.281303
19.5057
-0.354184
19.678
-0.428019
19.8536
-0.502773
20.0324
-0.578408
20.2145
-0.654887
20.3999
-0.732171
20.5887
-0.810218
20.7808
-0.888988
20.9763
-0.968438
21.1753
-1.04853
21.3778
-1.12921
21.5838
-1.21044
21.7933
-1.29217
22.0063
-1.37437
22.223
-1.45697
22.4432
-1.53993
22.6671
-1.62322
22.8947
-1.70677
23.1259
-1.79054
23.3608
-1.87447
23.5993
-1.95853
23.8416
-2.04266
24.0876
-2.1268
24.3373
-2.21092
24.5908
-2.29495
24.8479
-2.37885
25.1088
-2.46256
25.3734
-2.54604
25.6417
-2.62923
25.9138
-2.71207
26.189
-2.79458
26.4699
-2.87644
26.7483
-2.95844
27.0493
-3.03791
-3.12307
27.2958
15.7124
1.95155
-15.8768
15.5746
1.90462
15.4619
1.85991
15.3722
1.81707
15.3037
1.77577
15.2543
1.73568
15.2221
1.6965
15.2055
1.65795
15.2028
1.61975
15.2124
1.58167
15.2333
1.54351
15.264
1.50506
15.3037
1.46618
15.3514
1.4267
15.4063
1.38651
15.4677
1.3455
15.5352
1.30358
15.608
1.26065
15.6859
1.21665
15.7684
1.17153
15.8552
1.12522
15.946
1.0777
16.0407
1.02893
16.1389
0.978874
16.2405
0.927519
16.3455
0.874848
16.4536
0.82085
16.5648
0.765519
16.679
0.708853
16.7962
0.650853
16.9162
0.591524
17.0392
0.530875
17.165
0.468916
17.2936
0.405662
17.4251
0.341129
17.5594
0.275335
17.6966
0.208301
17.8366
0.14005
17.9795
0.0706076
18.1254
0
18.2741
-0.0717443
18.4258
-0.144595
18.5805
-0.218521
18.7382
-0.293488
18.8989
-0.369463
19.0627
-0.446409
19.2297
-0.524289
19.3997
-0.603064
19.573
-0.682696
19.7494
-0.763143
19.9291
-0.844363
20.1121
-0.926315
20.2984
-1.00895
20.488
-1.09224
20.681
-1.17612
20.8774
-1.26055
21.0772
-1.34548
21.2804
-1.43088
21.4871
-1.51668
21.6973
-1.60284
21.911
-1.68931
22.1282
-1.77605
22.3489
-1.86299
22.5732
-1.95009
22.8011
-2.0373
23.0325
-2.12456
23.2675
-2.21183
23.5061
-2.29905
23.7483
-2.38617
23.994
-2.47314
24.2433
-2.5599
24.4962
-2.6464
24.7527
-2.73259
25.0128
-2.81839
25.2759
-2.90384
25.5444
-2.98861
25.8107
-3.07349
26.0982
-3.15579
-3.24381
26.3347
15.1878
2.02457
-15.3232
15.0755
1.9786
14.9848
1.93451
14.9139
1.89196
14.861
1.85065
14.8244
1.81026
14.8025
1.77053
14.7939
1.73118
14.7971
1.69197
14.811
1.65271
14.8345
1.61319
14.8665
1.57325
14.9064
1.53274
14.9533
1.49153
15.0065
1.44951
15.0656
1.40657
15.13
1.36263
15.1992
1.31762
15.273
1.27147
15.351
1.22414
15.433
1.17557
15.5187
1.12573
15.6078
1.07458
15.7004
1.02212
15.7962
0.968307
15.895
0.91314
15.9969
0.856607
16.1017
0.798705
16.2094
0.739432
16.3199
0.678793
16.4333
0.616793
16.5493
0.553442
16.6682
0.488752
16.7897
0.422739
16.9141
0.35542
17.0412
0.286814
17.171
0.216944
17.3036
0.145835
17.439
0.0735104
17.5773
0
17.7184
-0.074667
17.8623
-0.15046
18.0091
-0.227344
18.1589
-0.305287
18.3116
-0.384253
18.4674
-0.464203
18.6261
-0.545101
18.7879
-0.626905
18.9527
-0.709576
19.1207
-0.793071
19.2918
-0.877348
19.4661
-0.962361
19.6436
-1.04807
19.8243
-1.13442
20.0083
-1.22137
20.1956
-1.30888
20.3861
-1.39688
20.58
-1.48535
20.7773
-1.57421
20.9779
-1.66343
21.1819
-1.75296
21.3893
-1.84274
21.6001
-1.93271
21.8143
-2.02284
22.0319
-2.11306
22.253
-2.20332
22.4776
-2.29356
22.7056
-2.38375
22.937
-2.47381
23.1719
-2.56369
23.4102
-2.65335
23.652
-2.74272
23.8971
-2.83176
24.1458
-2.92038
24.3974
-3.00862
24.6541
-3.09616
24.9088
-3.18377
25.1835
-3.26875
-3.35946
25.4104
14.6997
2.09738
-14.8107
14.6087
2.05221
14.5362
2.00858
14.4805
1.96618
14.4402
1.92472
14.4139
1.88392
14.4001
1.84353
14.3976
1.80331
14.4053
1.76304
14.4221
1.72254
14.4473
1.68164
14.48
1.64018
14.5195
1.59803
14.5652
1.55507
14.6165
1.51121
14.673
1.46635
14.7342
1.42042
14.7999
1.37334
14.8697
1.32507
14.9434
1.27555
15.0207
1.22474
15.1014
1.17262
15.1854
1.11914
15.2726
1.06431
15.3627
1.00808
15.4559
0.950467
15.5519
0.89145
15.6506
0.83103
15.7522
0.769207
15.8564
0.705988
15.9634
0.641378
16.073
0.575391
16.1852
0.508038
16.3001
0.439336
16.4177
0.369304
16.538
0.297963
16.6609
0.225336
16.7865
0.151448
16.9148
0.0763263
17.0459
0
17.1797
-0.0775003
17.3164
-0.156142
17.4558
-0.235892
17.5981
-0.316713
17.7432
-0.39857
17.8912
-0.481424
18.0422
-0.565234
18.1961
-0.649961
18.3531
-0.735563
18.513
-0.821995
18.676
-0.909214
18.842
-0.997174
19.0112
-1.08583
19.1835
-1.17513
19.3589
-1.26504
19.5375
-1.35549
19.7193
-1.44644
19.9043
-1.53785
20.0925
-1.62965
20.284
-1.72181
20.4788
-1.81425
20.6768
-1.90694
20.8782
-1.99982
21.0828
-2.09283
21.2908
-2.18593
21.502
-2.27905
21.7166
-2.37214
21.9345
-2.46514
22.1557
-2.558
22.3802
-2.65067
22.6081
-2.74308
22.8392
-2.83519
23.0736
-2.92693
23.3114
-3.01824
23.552
-3.10913
23.7975
-3.19928
24.0412
-3.28948
24.3037
-3.37702
-3.47026
24.5213
14.2433
2.16998
-14.334
14.1698
2.12543
14.1121
2.08209
14.0689
2.0397
14.0387
1.99796
14.0204
1.95664
14.0129
1.9155
14.015
1.87433
14.026
1.83294
14.0449
1.79116
14.0711
1.74884
14.1038
1.70584
14.1424
1.66204
14.1866
1.61734
14.2358
1.57164
14.2896
1.52487
14.3477
1.47695
14.4098
1.42783
14.4758
1.37745
14.5452
1.32578
14.618
1.27277
14.694
1.21839
14.7731
1.16263
14.8552
1.10546
14.9401
1.04687
15.0278
0.98685
15.1182
0.925398
15.2113
0.862513
15.307
0.798196
15.4053
0.732454
15.5062
0.665297
15.6097
0.596736
15.7158
0.526786
15.8244
0.455465
15.9356
0.382792
16.0494
0.30879
16.1658
0.233482
16.2848
0.156895
16.4064
0.0790582
16.5307
-1.30637e-07
16.6577
-0.080247
16.7874
-0.161649
16.9198
-0.244172
17.055
-0.327779
17.193
-0.412431
17.3337
-0.498089
17.4773
-0.584713
17.6238
-0.67226
17.7732
-0.760687
17.9255
-0.84995
18.0808
-0.940003
18.239
-1.0308
18.4002
-1.12229
18.5645
-1.21443
18.7318
-1.30717
18.9022
-1.40046
19.0756
-1.49424
19.2522
-1.58847
19.4319
-1.68309
19.6147
-1.77805
19.8007
-1.87329
19.9899
-1.96877
20.1822
-2.06442
20.3777
-2.1602
20.5764
-2.25604
20.7783
-2.35188
20.9834
-2.44768
21.1917
-2.54338
21.4032
-2.63891
21.6178
-2.73423
21.8357
-2.82927
22.0567
-2.92397
22.2809
-3.01829
22.5083
-3.11214
22.7384
-3.20555
22.9732
-3.29819
23.2063
-3.39084
23.4572
-3.4808
-3.57643
23.6661
13.8143
2.24231
-13.8882
13.7552
2.1982
13.7096
2.155
13.6762
2.11246
13.6541
2.07033
13.6421
2.02838
13.6394
1.9864
13.645
1.94422
13.6583
1.90166
13.6785
1.85856
13.7049
1.81479
13.7372
1.77023
13.7747
1.72477
13.8171
1.67832
13.8641
1.6308
13.9152
1.58213
13.9702
1.53225
14.0289
1.4811
14.091
1.42864
14.1564
1.37484
14.2249
1.31966
14.2964
1.26307
14.3708
1.20505
14.448
1.14559
14.5279
1.08468
14.6105
1.02231
14.6956
0.95847
14.7833
0.893172
14.8736
0.826416
14.9663
0.75821
15.0616
0.688565
15.1593
0.617493
15.2595
0.545011
15.3622
0.471138
15.4674
0.395894
15.5751
0.319303
15.6853
0.24139
15.7981
0.162182
15.9134
0.0817082
16.0313
0
16.1518
-0.0829098
16.2749
-0.166986
16.4007
-0.252194
16.5291
-0.338495
16.6603
-0.42585
16.7942
-0.514218
16.9308
-0.603559
17.0702
-0.693827
17.2125
-0.78498