/*--------------------------------*- C++ -*----------------------------------*\
| =========                 |                                                 |
| \\      /  F ield         | OpenFOAM: The Open Source CFD Toolbox           |
|  \\    /   O peration     | Version:  2312                                  |
|   \\  /    A nd           | Website:  www.openfoam.com                      |
|    \\/     M anipulation  |                                                 |
\*---------------------------------------------------------------------------*/
FoamFile
{
    version     2.0;
    format      ascii;
    arch        "LSB;label=32;scalar=64";
    class       volScalarField;
    location    "1.15";
    object      wave;
}
// * * * * * * * * * * * * * * * * * * * * * * * * * * * * * * * * * * * * * //

dimensions      [0 0 0 0 0 0 0];

internalField   nonuniform List<scalar> 
100
(
0.942266
0.983339
0.999709
0.990964
0.957323
0.899633
0.819342
0.718467
0.599542
0.465556
0.319874
0.166156
0.0082639
-0.149836
-0.304171
-0.450866
-0.586233
-0.706873
-0.809755
-0.892293
-0.952416
-0.988612
-0.999971
-0.986209
-0.947671
-0.885326
-0.800739
-0.696036
-0.573847
-0.437242
-0.289652
-0.134786
0.0234671
0.18113
0.334243
0.478959
0.611642
0.728959
0.827964
0.906168
0.961607
0.992889
0.999226
0.980462
0.937065
0.870128
0.781331
0.672905
0.547574
0.408488
0.259139
0.103279
-0.0551744
-0.212242
-0.363978
-0.506569
-0.636435
-0.750312
-0.845339
-0.91913
-0.96983
-0.996166
-0.997476
-0.973727
-0.925516
-0.854053
-0.761136
-0.649096
-0.52075
-0.379322
-0.228364
-0.0716692
0.0868262
0.24314
0.393346
0.53367
0.660587
0.770909
0.861864
0.931167
0.977076
0.99844
0.994721
0.966011
0.913034
0.837119
0.740174
0.624634
0.493402
0.349774
0.19736
0.0399868
-0.118391
-0.273794
-0.422318
-0.560234
-0.684074
-0.79073
-0.87752
-0.942266
)
;

boundaryField
{
    movingWall
    {
        type            calculated;
        value           uniform 0;
    }
    fixedWalls
    {
        type            calculated;
        value           uniform 0;
    }
    frontAndBack
    {
        type            empty;
    }
}


// ************************************************************************* //
