/*--------------------------------*- C++ -*----------------------------------*\
| =========                 |                                                 |
| \\      /  F ield         | OpenFOAM: The Open Source CFD Toolbox           |
|  \\    /   O peration     | Version:  2312                                  |
|   \\  /    A nd           | Website:  www.openfoam.com                      |
|    \\/     M anipulation  |                                                 |
\*---------------------------------------------------------------------------*/
FoamFile
{
    version     2.0;
    format      ascii;
    arch        "LSB;label=32;scalar=64";
    class       volVectorField;
    location    "0.687";
    object      U;
}
// * * * * * * * * * * * * * * * * * * * * * * * * * * * * * * * * * * * * * //

dimensions      [0 1 -1 0 0 0 0];

internalField   nonuniform List<vector> 
31205
(
(246.865 0 0)
(244.715 0 0)
(242.498 0 0)
(240.211 0 0)
(237.85 0 0)
(235.411 0 0)
(232.889 0 0)
(230.279 0 0)
(227.576 0 0)
(224.773 0 0)
(221.863 0 0)
(218.838 0 0)
(215.688 0 0)
(212.401 0 0)
(208.965 0 0)
(205.365 0 0)
(201.582 0 0)
(197.594 0 0)
(193.374 0 0)
(188.889 0 0)
(184.097 0 0)
(178.944 0 0)
(173.363 0 0)
(167.26 0 0)
(160.528 0 0)
(153.093 0 0)
(145.025 0 0)
(136.65 0 0)
(128.538 0 0)
(121.305 0 0)
(115.368 0 0)
(110.846 0 0)
(107.618 0 0)
(105.454 0 0)
(104.108 0 0)
(103.374 0 0)
(103.091 0 0)
(103.142 0 0)
(103.442 0 0)
(103.931 0 0)
(104.565 0 0)
(105.311 0 0)
(106.146 0 0)
(107.052 0 0)
(108.015 0 0)
(109.024 0 0)
(110.071 0 0)
(111.15 0 0)
(112.255 0 0)
(113.382 0 0)
(114.526 0 0)
(115.686 0 0)
(116.858 0 0)
(118.04 0 0)
(119.231 0 0)
(120.429 0 0)
(121.632 0 0)
(122.841 0 0)
(124.053 0 0)
(125.267 0 0)
(126.484 0 0)
(127.702 0 0)
(128.921 0 0)
(130.14 0 0)
(131.359 0 0)
(132.577 0 0)
(133.795 0 0)
(135.011 0 0)
(136.226 0 0)
(137.44 0 0)
(138.651 0 0)
(139.86 0 0)
(141.067 0 0)
(142.27 0 0)
(143.476 0 0)
(144.661 0 0)
(145.901 0 0)
(146.961 0 0)
(148.559 0 0)
(244.921 0 0)
(242.77 0 0)
(240.554 0 0)
(238.268 0 0)
(235.908 0 0)
(233.47 0 0)
(230.95 0 0)
(228.343 0 0)
(225.643 0 0)
(222.843 0 0)
(219.937 0 0)
(216.914 0 0)
(213.767 0 0)
(210.483 0 0)
(207.049 0 0)
(203.45 0 0)
(199.667 0 0)
(195.677 0 0)
(191.453 0 0)
(186.96 0 0)
(182.156 0 0)
(176.986 0 0)
(171.379 0 0)
(165.242 0 0)
(158.474 0 0)
(151.027 0 0)
(143.016 0 0)
(134.807 0 0)
(126.971 0 0)
(120.078 0 0)
(114.479 0 0)
(110.241 0 0)
(107.226 0 0)
(105.206 0 0)
(103.951 0 0)
(103.269 0 0)
(103.011 0 0)
(103.068 0 0)
(103.363 0 0)
(103.837 0 0)
(104.45 0 0)
(105.172 0 0)
(105.979 0 0)
(106.856 0 0)
(107.788 0 0)
(108.766 0 0)
(109.781 0 0)
(110.827 0 0)
(111.899 0 0)
(112.992 0 0)
(114.104 0 0)
(115.23 0 0)
(116.368 0 0)
(117.518 0 0)
(118.675 0 0)
(119.84 0 0)
(121.011 0 0)
(122.187 0 0)
(123.366 0 0)
(124.548 0 0)
(125.733 0 0)
(126.919 0 0)
(128.106 0 0)
(129.293 0 0)
(130.481 0 0)
(131.668 0 0)
(132.854 0 0)
(134.04 0 0)
(135.224 0 0)
(136.406 0 0)
(137.587 0 0)
(138.765 0 0)
(139.942 0 0)
(141.115 0 0)
(142.291 0 0)
(143.446 0 0)
(144.654 0 0)
(145.69 0 0)
(147.241 0 0)
(242.875 0 0)
(240.724 0 0)
(238.506 0 0)
(236.22 0 0)
(233.86 0 0)
(231.422 0 0)
(228.903 0 0)
(226.296 0 0)
(223.597 0 0)
(220.797 0 0)
(217.891 0 0)
(214.868 0 0)
(211.72 0 0)
(208.435 0 0)
(204.999 0 0)
(201.396 0 0)
(197.606 0 0)
(193.608 0 0)
(189.372 0 0)
(184.863 0 0)
(180.036 0 0)
(174.836 0 0)
(169.189 0 0)
(163.002 0 0)
(156.188 0 0)
(148.731 0 0)
(140.795 0 0)
(132.789 0 0)
(125.275 0 0)
(118.762 0 0)
(113.53 0 0)
(109.597 0 0)
(106.81 0 0)
(104.945 0 0)
(103.79 0 0)
(103.166 0 0)
(102.938 0 0)
(103.006 0 0)
(103.298 0 0)
(103.76 0 0)
(104.356 0 0)
(105.055 0 0)
(105.837 0 0)
(106.686 0 0)
(107.589 0 0)
(108.536 0 0)
(109.521 0 0)
(110.535 0 0)
(111.575 0 0)
(112.636 0 0)
(113.715 0 0)
(114.809 0 0)
(115.915 0 0)
(117.032 0 0)
(118.158 0 0)
(119.291 0 0)
(120.429 0 0)
(121.573 0 0)
(122.721 0 0)
(123.872 0 0)
(125.025 0 0)
(126.179 0 0)
(127.335 0 0)
(128.492 0 0)
(129.649 0 0)
(130.805 0 0)
(131.961 0 0)
(133.116 0 0)
(134.27 0 0)
(135.423 0 0)
(136.573 0 0)
(137.722 0 0)
(138.87 0 0)
(140.013 0 0)
(141.16 0 0)
(142.286 0 0)
(143.463 0 0)
(144.476 0 0)
(145.98 0 0)
(240.785 0 0)
(238.631 0 0)
(236.412 0 0)
(234.124 0 0)
(231.763 0 0)
(229.324 0 0)
(226.804 0 0)
(224.196 0 0)
(221.495 0 0)
(218.694 0 0)
(215.785 0 0)
(212.76 0 0)
(209.609 0 0)
(206.318 0 0)
(202.876 0 0)
(199.264 0 0)
(195.464 0 0)
(191.451 0 0)
(187.196 0 0)
(182.662 0 0)
(177.804 0 0)
(172.562 0 0)
(166.862 0 0)
(160.613 0 0)
(153.746 0 0)
(146.285 0 0)
(138.451 0 0)
(130.682 0 0)
(123.521 0 0)
(117.411 0 0)
(112.56 0 0)
(108.939 0 0)
(106.383 0 0)
(104.679 0 0)
(103.627 0 0)
(103.066 0 0)
(102.872 0 0)
(102.954 0 0)
(103.246 0 0)
(103.7 0 0)
(104.279 0 0)
(104.959 0 0)
(105.717 0 0)
(106.54 0 0)
(107.416 0 0)
(108.335 0 0)
(109.289 0 0)
(110.274 0 0)
(111.283 0 0)
(112.313 0 0)
(113.361 0 0)
(114.424 0 0)
(115.499 0 0)
(116.584 0 0)
(117.679 0 0)
(118.781 0 0)
(119.888 0 0)
(121.001 0 0)
(122.118 0 0)
(123.238 0 0)
(124.361 0 0)
(125.485 0 0)
(126.611 0 0)
(127.737 0 0)
(128.864 0 0)
(129.991 0 0)
(131.117 0 0)
(132.243 0 0)
(133.367 0 0)
(134.49 0 0)
(135.612 0 0)
(136.732 0 0)
(137.851 0 0)
(138.965 0 0)
(140.083 0 0)
(141.182 0 0)
(142.329 0 0)
(143.318 0 0)
(144.779 0 0)
(238.677 0 0)
(236.522 0 0)
(234.301 0 0)
(232.011 0 0)
(229.648 0 0)
(227.208 0 0)
(224.685 0 0)
(222.075 0 0)
(219.372 0 0)
(216.568 0 0)
(213.656 0 0)
(210.627 0 0)
(207.469 0 0)
(204.172 0 0)
(200.72 0 0)
(197.097 0 0)
(193.283 0 0)
(189.251 0 0)
(184.972 0 0)
(180.408 0 0)
(175.511 0 0)
(170.22 0 0)
(164.459 0 0)
(158.143 0 0)
(151.227 0 0)
(143.781 0 0)
(136.079 0 0)
(128.581 0 0)
(121.796 0 0)
(116.096 0 0)
(111.619 0 0)
(108.302 0 0)
(105.97 0 0)
(104.419 0 0)
(103.468 0 0)
(102.969 0 0)
(102.809 0 0)
(102.907 0 0)
(103.201 0 0)
(103.647 0 0)
(104.213 0 0)
(104.873 0 0)
(105.61 0 0)
(106.409 0 0)
(107.259 0 0)
(108.15 0 0)
(109.076 0 0)
(110.032 0 0)
(111.012 0 0)
(112.012 0 0)
(113.03 0 0)
(114.062 0 0)
(115.107 0 0)
(116.163 0 0)
(117.227 0 0)
(118.298 0 0)
(119.376 0 0)
(120.459 0 0)
(121.546 0 0)
(122.636 0 0)
(123.729 0 0)
(124.824 0 0)
(125.92 0 0)
(127.017 0 0)
(128.115 0 0)
(129.212 0 0)
(130.31 0 0)
(131.407 0 0)
(132.502 0 0)
(133.597 0 0)
(134.69 0 0)
(135.782 0 0)
(136.872 0 0)
(137.958 0 0)
(139.048 0 0)
(140.12 0 0)
(141.237 0 0)
(142.203 0 0)
(143.624 0 0)
(236.567 0 0)
(234.41 0 0)
(232.187 0 0)
(229.895 0 0)
(227.53 0 0)
(225.088 0 0)
(222.563 0 0)
(219.951 0 0)
(217.245 0 0)
(214.437 0 0)
(211.521 0 0)
(208.486 0 0)
(205.322 0 0)
(202.016 0 0)
(198.554 0 0)
(194.917 0 0)
(191.085 0 0)
(187.032 0 0)
(182.726 0 0)
(178.127 0 0)
(173.187 0 0)
(167.841 0 0)
(162.013 0 0)
(155.631 0 0)
(148.678 0 0)
(141.274 0 0)
(133.74 0 0)
(126.542 0 0)
(120.146 0 0)
(114.851 0 0)
(110.734 0 0)
(107.703 0 0)
(105.58 0 0)
(104.175 0 0)
(103.318 0 0)
(102.877 0 0)
(102.75 0 0)
(102.862 0 0)
(103.159 0 0)
(103.598 0 0)
(104.151 0 0)
(104.794 0 0)
(105.51 0 0)
(106.286 0 0)
(107.111 0 0)
(107.976 0 0)
(108.875 0 0)
(109.803 0 0)
(110.754 0 0)
(111.726 0 0)
(112.715 0 0)
(113.718 0 0)
(114.734 0 0)
(115.76 0 0)
(116.794 0 0)
(117.837 0 0)
(118.885 0 0)
(119.939 0 0)
(120.997 0 0)
(122.058 0 0)
(123.122 0 0)
(124.188 0 0)
(125.255 0 0)
(126.324 0 0)
(127.393 0 0)
(128.462 0 0)
(129.531 0 0)
(130.6 0 0)
(131.668 0 0)
(132.734 0 0)
(133.8 0 0)
(134.863 0 0)
(135.926 0 0)
(136.985 0 0)
(138.047 0 0)
(139.092 0 0)
(140.181 0 0)
(141.124 0 0)
(142.506 0 0)
(234.46 0 0)
(232.301 0 0)
(230.076 0 0)
(227.783 0 0)
(225.416 0 0)
(222.972 0 0)
(220.445 0 0)
(217.83 0 0)
(215.12 0 0)
(212.309 0 0)
(209.387 0 0)
(206.346 0 0)
(203.174 0 0)
(199.858 0 0)
(196.384 0 0)
(192.732 0 0)
(188.881 0 0)
(184.804 0 0)
(180.467 0 0)
(175.831 0 0)
(170.842 0 0)
(165.437 0 0)
(159.542 0 0)
(153.099 0 0)
(146.126 0 0)
(138.797 0 0)
(131.465 0 0)
(124.594 0 0)
(118.592 0 0)
(113.689 0 0)
(109.913 0 0)
(107.149 0 0)
(105.22 0 0)
(103.948 0 0)
(103.179 0 0)
(102.791 0 0)
(102.695 0 0)
(102.821 0 0)
(103.119 0 0)
(103.552 0 0)
(104.092 0 0)
(104.719 0 0)
(105.415 0 0)
(106.169 0 0)
(106.969 0 0)
(107.809 0 0)
(108.682 0 0)
(109.583 0 0)
(110.507 0 0)
(111.451 0 0)
(112.412 0 0)
(113.387 0 0)
(114.374 0 0)
(115.372 0 0)
(116.378 0 0)
(117.392 0 0)
(118.412 0 0)
(119.437 0 0)
(120.466 0 0)
(121.499 0 0)
(122.535 0 0)
(123.573 0 0)
(124.613 0 0)
(125.653 0 0)
(126.695 0 0)
(127.736 0 0)
(128.778 0 0)
(129.819 0 0)
(130.859 0 0)
(131.899 0 0)
(132.937 0 0)
(133.974 0 0)
(135.009 0 0)
(136.041 0 0)
(137.076 0 0)
(138.095 0 0)
(139.156 0 0)
(140.076 0 0)
(141.42 0 0)
(232.358 0 0)
(230.197 0 0)
(227.971 0 0)
(225.676 0 0)
(223.308 0 0)
(220.861 0 0)
(218.332 0 0)
(215.714 0 0)
(213.001 0 0)
(210.185 0 0)
(207.257 0 0)
(204.209 0 0)
(201.029 0 0)
(197.702 0 0)
(194.214 0 0)
(190.545 0 0)
(186.673 0 0)
(182.57 0 0)
(178.2 0 0)
(173.522 0 0)
(168.482 0 0)
(163.015 0 0)
(157.053 0 0)
(150.559 0 0)
(143.591 0 0)
(136.369 0 0)
(129.275 0 0)
(122.748 0 0)
(117.14 0 0)
(112.615 0 0)
(109.158 0 0)
(106.64 0 0)
(104.889 0 0)
(103.739 0 0)
(103.05 0 0)
(102.712 0 0)
(102.643 0 0)
(102.781 0 0)
(103.081 0 0)
(103.508 0 0)
(104.036 0 0)
(104.646 0 0)
(105.324 0 0)
(106.056 0 0)
(106.833 0 0)
(107.649 0 0)
(108.497 0 0)
(109.371 0 0)
(110.269 0 0)
(111.186 0 0)
(112.119 0 0)
(113.067 0 0)
(114.027 0 0)
(114.997 0 0)
(115.975 0 0)
(116.962 0 0)
(117.954 0 0)
(118.952 0 0)
(119.953 0 0)
(120.959 0 0)
(121.967 0 0)
(122.978 0 0)
(123.99 0 0)
(125.004 0 0)
(126.018 0 0)
(127.033 0 0)
(128.047 0 0)
(129.062 0 0)
(130.075 0 0)
(131.088 0 0)
(132.1 0 0)
(133.11 0 0)
(134.119 0 0)
(135.125 0 0)
(136.134 0 0)
(137.126 0 0)
(138.16 0 0)
(139.058 0 0)
(140.366 0 0)
(230.262 0 0)
(228.1 0 0)
(225.872 0 0)
(223.576 0 0)
(221.205 0 0)
(218.757 0 0)
(216.225 0 0)
(213.604 0 0)
(210.887 0 0)
(208.066 0 0)
(205.133 0 0)
(202.077 0 0)
(198.887 0 0)
(195.548 0 0)
(192.045 0 0)
(188.358 0 0)
(184.463 0 0)
(180.33 0 0)
(175.925 0 0)
(171.203 0 0)
(166.108 0 0)
(160.577 0 0)
(154.551 0 0)
(148.02 0 0)
(141.085 0 0)
(134.007 0 0)
(127.18 0 0)
(121.012 0 0)
(115.791 0 0)
(111.626 0 0)
(108.467 0 0)
(106.175 0 0)
(104.586 0 0)
(103.547 0 0)
(102.931 0 0)
(102.639 0 0)
(102.595 0 0)
(102.744 0 0)
(103.045 0 0)
(103.465 0 0)
(103.982 0 0)
(104.577 0 0)
(105.235 0 0)
(105.947 0 0)
(106.702 0 0)
(107.494 0 0)
(108.317 0 0)
(109.167 0 0)
(110.039 0 0)
(110.93 0 0)
(111.837 0 0)
(112.758 0 0)
(113.691 0 0)
(114.634 0 0)
(115.586 0 0)
(116.545 0 0)
(117.511 0 0)
(118.482 0 0)
(119.457 0 0)
(120.436 0 0)
(121.417 0 0)
(122.401 0 0)
(123.387 0 0)
(124.374 0 0)
(125.362 0 0)
(126.35 0 0)
(127.339 0 0)
(128.327 0 0)
(129.315 0 0)
(130.301 0 0)
(131.287 0 0)
(132.272 0 0)
(133.255 0 0)
(134.236 0 0)
(135.219 0 0)
(136.186 0 0)
(137.193 0 0)
(138.069 0 0)
(139.342 0 0)
(228.171 0 0)
(226.008 0 0)
(223.78 0 0)
(221.482 0 0)
(219.11 0 0)
(216.659 0 0)
(214.125 0 0)
(211.5 0 0)
(208.779 0 0)
(205.952 0 0)
(203.012 0 0)
(199.948 0 0)
(196.747 0 0)
(193.396 0 0)
(189.877 0 0)
(186.169 0 0)
(182.249 0 0)
(178.085 0 0)
(173.641 0 0)
(168.871 0 0)
(163.719 0 0)
(158.124 0 0)
(152.042 0 0)
(145.492 0 0)
(138.62 0 0)
(131.722 0 0)
(125.189 0 0)
(119.387 0 0)
(114.544 0 0)
(110.718 0 0)
(107.834 0 0)
(105.75 0 0)
(104.31 0 0)
(103.373 0 0)
(102.823 0 0)
(102.571 0 0)
(102.551 0 0)
(102.71 0 0)
(103.011 0 0)
(103.425 0 0)
(103.93 0 0)
(104.509 0 0)
(105.15 0 0)
(105.841 0 0)
(106.575 0 0)
(107.345 0 0)
(108.144 0 0)
(108.969 0 0)
(109.816 0 0)
(110.682 0 0)
(111.564 0 0)
(112.459 0 0)
(113.366 0 0)
(114.284 0 0)
(115.209 0 0)
(116.143 0 0)
(117.082 0 0)
(118.027 0 0)
(118.976 0 0)
(119.929 0 0)
(120.885 0 0)
(121.843 0 0)
(122.803 0 0)
(123.764 0 0)
(124.726 0 0)
(125.689 0 0)
(126.652 0 0)
(127.614 0 0)
(128.577 0 0)
(129.538 0 0)
(130.499 0 0)
(131.458 0 0)
(132.417 0 0)
(133.372 0 0)
(134.33 0 0)
(135.273 0 0)
(136.254 0 0)
(137.109 0 0)
(138.346 0 0)
(226.087 0 0)
(223.923 0 0)
(221.694 0 0)
(219.394 0 0)
(217.021 0 0)
(214.568 0 0)
(212.03 0 0)
(209.402 0 0)
(206.676 0 0)
(203.844 0 0)
(200.896 0 0)
(197.822 0 0)
(194.61 0 0)
(191.244 0 0)
(187.707 0 0)
(183.978 0 0)
(180.03 0 0)
(175.833 0 0)
(171.348 0 0)
(166.527 0 0)
(161.315 0 0)
(155.658 0 0)
(149.529 0 0)
(142.984 0 0)
(136.208 0 0)
(129.522 0 0)
(123.304 0 0)
(117.871 0 0)
(113.393 0 0)
(109.886 0 0)
(107.257 0 0)
(105.363 0 0)
(104.058 0 0)
(103.213 0 0)
(102.724 0 0)
(102.51 0 0)
(102.51 0 0)
(102.677 0 0)
(102.978 0 0)
(103.386 0 0)
(103.88 0 0)
(104.444 0 0)
(105.068 0 0)
(105.74 0 0)
(106.453 0 0)
(107.2 0 0)
(107.977 0 0)
(108.779 0 0)
(109.602 0 0)
(110.443 0 0)
(111.3 0 0)
(112.17 0 0)
(113.053 0 0)
(113.945 0 0)
(114.845 0 0)
(115.753 0 0)
(116.667 0 0)
(117.587 0 0)
(118.51 0 0)
(119.438 0 0)
(120.368 0 0)
(121.301 0 0)
(122.236 0 0)
(123.172 0 0)
(124.11 0 0)
(125.047 0 0)
(125.985 0 0)
(126.923 0 0)
(127.861 0 0)
(128.798 0 0)
(129.734 0 0)
(130.669 0 0)
(131.603 0 0)
(132.534 0 0)
(133.467 0 0)
(134.386 0 0)
(135.342 0 0)
(136.176 0 0)
(137.38 0 0)
(224.009 0 0)
(221.845 0 0)
(219.614 0 0)
(217.313 0 0)
(214.938 0 0)
(212.483 0 0)
(209.942 0 0)
(207.309 0 0)
(204.578 0 0)
(201.739 0 0)
(198.783 0 0)
(195.7 0 0)
(192.475 0 0)
(189.093 0 0)
(185.537 0 0)
(181.783 0 0)
(177.806 0 0)
(173.573 0 0)
(169.043 0 0)
(164.169 0 0)
(158.896 0 0)
(153.181 0 0)
(147.02 0 0)
(140.506 0 0)
(133.861 0 0)
(127.418 0 0)
(121.53 0 0)
(116.463 0 0)
(112.334 0 0)
(109.125 0 0)
(106.73 0 0)
(105.01 0 0)
(103.828 0 0)
(103.067 0 0)
(102.634 0 0)
(102.453 0 0)
(102.472 0 0)
(102.647 0 0)
(102.947 0 0)
(103.348 0 0)
(103.831 0 0)
(104.382 0 0)
(104.989 0 0)
(105.642 0 0)
(106.335 0 0)
(107.061 0 0)
(107.816 0 0)
(108.595 0 0)
(109.395 0 0)
(110.212 0 0)
(111.045 0 0)
(111.891 0 0)
(112.749 0 0)
(113.617 0 0)
(114.493 0 0)
(115.376 0 0)
(116.266 0 0)
(117.16 0 0)
(118.06 0 0)
(118.963 0 0)
(119.869 0 0)
(120.777 0 0)
(121.688 0 0)
(122.599 0 0)
(123.512 0 0)
(124.426 0 0)
(125.34 0 0)
(126.253 0 0)
(127.167 0 0)
(128.08 0 0)
(128.992 0 0)
(129.903 0 0)
(130.813 0 0)
(131.72 0 0)
(132.63 0 0)
(133.525 0 0)
(134.457 0 0)
(135.27 0 0)
(136.44 0 0)
(221.938 0 0)
(219.773 0 0)
(217.541 0 0)
(215.239 0 0)
(212.862 0 0)
(210.404 0 0)
(207.859 0 0)
(205.222 0 0)
(202.485 0 0)
(199.639 0 0)
(196.674 0 0)
(193.579 0 0)
(190.34 0 0)
(186.941 0 0)
(183.364 0 0)
(179.584 0 0)
(175.575 0 0)
(171.303 0 0)
(166.726 0 0)
(161.796 0 0)
(156.464 0 0)
(150.698 0 0)
(144.523 0 0)
(138.069 0 0)
(131.588 0 0)
(125.415 0 0)
(119.867 0 0)
(115.159 0 0)
(111.362 0 0)
(108.429 0 0)
(106.249 0 0)
(104.688 0 0)
(103.619 0 0)
(102.935 0 0)
(102.551 0 0)
(102.402 0 0)
(102.437 0 0)
(102.619 0 0)
(102.918 0 0)
(103.313 0 0)
(103.785 0 0)
(104.322 0 0)
(104.912 0 0)
(105.548 0 0)
(106.221 0 0)
(106.927 0 0)
(107.66 0 0)
(108.417 0 0)
(109.195 0 0)
(109.989 0 0)
(110.799 0 0)
(111.622 0 0)
(112.456 0 0)
(113.3 0 0)
(114.152 0 0)
(115.012 0 0)
(115.877 0 0)
(116.748 0 0)
(117.623 0 0)
(118.503 0 0)
(119.385 0 0)
(120.269 0 0)
(121.156 0 0)
(122.044 0 0)
(122.933 0 0)
(123.823 0 0)
(124.713 0 0)
(125.604 0 0)
(126.494 0 0)
(127.383 0 0)
(128.272 0 0)
(129.159 0 0)
(130.046 0 0)
(130.93 0 0)
(131.817 0 0)
(132.69 0 0)
(133.597 0 0)
(134.39 0 0)
(135.529 0 0)
(219.874 0 0)
(217.708 0 0)
(215.475 0 0)
(213.171 0 0)
(210.792 0 0)
(208.331 0 0)
(205.782 0 0)
(203.14 0 0)
(200.396 0 0)
(197.542 0 0)
(194.567 0 0)
(191.46 0 0)
(188.206 0 0)
(184.788 0 0)
(181.188 0 0)
(177.38 0 0)
(173.337 0 0)
(169.022 0 0)
(164.395 0 0)
(159.409 0 0)
(154.02 0 0)
(148.214 0 0)
(142.048 0 0)
(135.685 0 0)
(129.401 0 0)
(123.518 0 0)
(118.315 0 0)
(113.955 0 0)
(110.471 0 0)
(107.795 0 0)
(105.812 0 0)
(104.395 0 0)
(103.428 0 0)
(102.814 0 0)
(102.476 0 0)
(102.355 0 0)
(102.405 0 0)
(102.593 0 0)
(102.891 0 0)
(103.279 0 0)
(103.741 0 0)
(104.264 0 0)
(104.839 0 0)
(105.457 0 0)
(106.112 0 0)
(106.798 0 0)
(107.51 0 0)
(108.246 0 0)
(109.001 0 0)
(109.774 0 0)
(110.561 0 0)
(111.361 0 0)
(112.173 0 0)
(112.994 0 0)
(113.823 0 0)
(114.659 0 0)
(115.501 0 0)
(116.349 0 0)
(117.201 0 0)
(118.057 0 0)
(118.916 0 0)
(119.778 0 0)
(120.641 0 0)
(121.506 0 0)
(122.372 0 0)
(123.239 0 0)
(124.107 0 0)
(124.974 0 0)
(125.841 0 0)
(126.708 0 0)
(127.574 0 0)
(128.439 0 0)
(129.303 0 0)
(130.164 0 0)
(131.028 0 0)
(131.879 0 0)
(132.762 0 0)
(133.536 0 0)
(134.643 0 0)
(217.817 0 0)
(215.65 0 0)
(213.416 0 0)
(211.11 0 0)
(208.728 0 0)
(206.263 0 0)
(203.711 0 0)
(201.063 0 0)
(198.312 0 0)
(195.449 0 0)
(192.463 0 0)
(189.342 0 0)
(186.071 0 0)
(182.634 0 0)
(179.008 0 0)
(175.17 0 0)
(171.089 0 0)
(166.731 0 0)
(162.052 0 0)
(157.008 0 0)
(151.567 0 0)
(145.736 0 0)
(139.604 0 0)
(133.366 0 0)
(127.308 0 0)
(121.731 0 0)
(116.873 0 0)
(112.848 0 0)
(109.656 0 0)
(107.216 0 0)
(105.413 0 0)
(104.128 0 0)
(103.254 0 0)
(102.703 0 0)
(102.407 0 0)
(102.312 0 0)
(102.376 0 0)
(102.568 0 0)
(102.865 0 0)
(103.246 0 0)
(103.698 0 0)
(104.209 0 0)
(104.768 0 0)
(105.369 0 0)
(106.006 0 0)
(106.673 0 0)
(107.366 0 0)
(108.081 0 0)
(108.815 0 0)
(109.566 0 0)
(110.332 0 0)
(111.11 0 0)
(111.899 0 0)
(112.697 0 0)
(113.504 0 0)
(114.318 0 0)
(115.138 0 0)
(115.963 0 0)
(116.793 0 0)
(117.626 0 0)
(118.463 0 0)
(119.302 0 0)
(120.143 0 0)
(120.985 0 0)
(121.829 0 0)
(122.674 0 0)
(123.518 0 0)
(124.364 0 0)
(125.208 0 0)
(126.053 0 0)
(126.897 0 0)
(127.739 0 0)
(128.581 0 0)
(129.421 0 0)
(130.263 0 0)
(131.092 0 0)
(131.953 0 0)
(132.707 0 0)
(133.783 0 0)
(215.767 0 0)
(213.599 0 0)
(211.364 0 0)
(209.056 0 0)
(206.671 0 0)
(204.202 0 0)
(201.645 0 0)
(198.991 0 0)
(196.232 0 0)
(193.359 0 0)
(190.361 0 0)
(187.225 0 0)
(183.936 0 0)
(180.476 0 0)
(176.823 0 0)
(172.953 0 0)
(168.833 0 0)
(164.427 0 0)
(159.694 0 0)
(154.596 0 0)
(149.111 0 0)
(143.274 0 0)
(137.204 0 0)
(131.122 0 0)
(125.315 0 0)
(120.056 0 0)
(115.537 0 0)
(111.831 0 0)
(108.911 0 0)
(106.689 0 0)
(105.05 0 0)
(103.885 0 0)
(103.096 0 0)
(102.603 0 0)
(102.345 0 0)
(102.272 0 0)
(102.349 0 0)
(102.546 0 0)
(102.84 0 0)
(103.215 0 0)
(103.657 0 0)
(104.155 0 0)
(104.7 0 0)
(105.285 0 0)
(105.904 0 0)
(106.552 0 0)
(107.226 0 0)
(107.921 0 0)
(108.635 0 0)
(109.365 0 0)
(110.11 0 0)
(110.867 0 0)
(111.634 0 0)
(112.411 0 0)
(113.196 0 0)
(113.988 0 0)
(114.787 0 0)
(115.59 0 0)
(116.398 0 0)
(117.209 0 0)
(118.024 0 0)
(118.841 0 0)
(119.66 0 0)
(120.481 0 0)
(121.303 0 0)
(122.125 0 0)
(122.949 0 0)
(123.772 0 0)
(124.595 0 0)
(125.418 0 0)
(126.24 0 0)
(127.061 0 0)
(127.882 0 0)
(128.7 0 0)
(129.52 0 0)
(130.328 0 0)
(131.167 0 0)
(131.903 0 0)
(132.949 0 0)
(213.724 0 0)
(211.556 0 0)
(209.318 0 0)
(207.008 0 0)
(204.62 0 0)
(202.147 0 0)
(199.584 0 0)
(196.923 0 0)
(194.155 0 0)
(191.271 0 0)
(188.26 0 0)
(185.108 0 0)
(181.799 0 0)
(178.315 0 0)
(174.633 0 0)
(170.727 0 0)
(166.565 0 0)
(162.111 0 0)
(157.324 0 0)
(152.174 0 0)
(146.658 0 0)
(140.836 0 0)
(134.859 0 0)
(128.964 0 0)
(123.428 0 0)
(118.493 0 0)
(114.303 0 0)
(110.899 0 0)
(108.232 0 0)
(106.209 0 0)
(104.72 0 0)
(103.664 0 0)
(102.952 0 0)
(102.512 0 0)
(102.288 0 0)
(102.237 0 0)
(102.324 0 0)
(102.524 0 0)
(102.817 0 0)
(103.186 0 0)
(103.618 0 0)
(104.103 0 0)
(104.634 0 0)
(105.204 0 0)
(105.806 0 0)
(106.436 0 0)
(107.091 0 0)
(107.767 0 0)
(108.461 0 0)
(109.171 0 0)
(109.896 0 0)
(110.632 0 0)
(111.379 0 0)
(112.135 0 0)
(112.899 0 0)
(113.67 0 0)
(114.447 0 0)
(115.229 0 0)
(116.015 0 0)
(116.805 0 0)
(117.599 0 0)
(118.394 0 0)
(119.192 0 0)
(119.992 0 0)
(120.793 0 0)
(121.594 0 0)
(122.396 0 0)
(123.199 0 0)
(124.001 0 0)
(124.803 0 0)
(125.604 0 0)
(126.404 0 0)
(127.203 0 0)
(128.001 0 0)
(128.8 0 0)
(129.587 0 0)
(130.404 0 0)
(131.122 0 0)
(132.139 0 0)
(211.689 0 0)
(209.519 0 0)
(207.28 0 0)
(204.967 0 0)
(202.574 0 0)
(200.097 0 0)
(197.527 0 0)
(194.859 0 0)
(192.081 0 0)
(189.186 0 0)
(186.16 0 0)
(182.99 0 0)
(179.66 0 0)
(176.15 0 0)
(172.436 0 0)
(168.493 0 0)
(164.287 0 0)
(159.782 0 0)
(154.943 0 0)
(149.748 0 0)
(144.216 0 0)
(138.435 0 0)
(132.581 0 0)
(126.9 0 0)
(121.652 0 0)
(117.039 0 0)
(113.168 0 0)
(110.046 0 0)
(107.613 0 0)
(105.772 0 0)
(104.42 0 0)
(103.463 0 0)
(102.82 0 0)
(102.428 0 0)
(102.236 0 0)
(102.204 0 0)
(102.301 0 0)
(102.505 0 0)
(102.795 0 0)
(103.157 0 0)
(103.58 0 0)
(104.054 0 0)
(104.571 0 0)
(105.125 0 0)
(105.711 0 0)
(106.324 0 0)
(106.961 0 0)
(107.618 0 0)
(108.294 0 0)
(108.984 0 0)
(109.689 0 0)
(110.405 0 0)
(111.132 0 0)
(111.867 0 0)
(112.611 0 0)
(113.361 0 0)
(114.118 0 0)
(114.879 0 0)
(115.645 0 0)
(116.415 0 0)
(117.187 0 0)
(117.963 0 0)
(118.74 0 0)
(119.519 0 0)
(120.299 0 0)
(121.08 0 0)
(121.861 0 0)
(122.643 0 0)
(123.425 0 0)
(124.206 0 0)
(124.987 0 0)
(125.767 0 0)
(126.546 0 0)
(127.323 0 0)
(128.101 0 0)
(128.869 0 0)
(129.664 0 0)
(130.365 0 0)
(131.353 0 0)
(209.661 0 0)
(207.489 0 0)
(205.248 0 0)
(202.932 0 0)
(200.535 0 0)
(198.052 0 0)
(195.476 0 0)
(192.798 0 0)
(190.011 0 0)
(187.102 0 0)
(184.06 0 0)
(180.871 0 0)
(177.517 0 0)
(173.979 0 0)
(170.232 0 0)
(166.249 0 0)
(161.997 0 0)
(157.441 0 0)
(152.553 0 0)
(147.323 0 0)
(141.794 0 0)
(136.08 0 0)
(130.38 0 0)
(124.937 0 0)
(119.987 0 0)
(115.693 0 0)
(112.126 0 0)
(109.268 0 0)
(107.049 0 0)
(105.374 0 0)
(104.147 0 0)
(103.28 0 0)
(102.701 0 0)
(102.353 0 0)
(102.189 0 0)
(102.174 0 0)
(102.281 0 0)
(102.486 0 0)
(102.774 0 0)
(103.13 0 0)
(103.544 0 0)
(104.006 0 0)
(104.51 0 0)
(105.049 0 0)
(105.62 0 0)
(106.216 0 0)
(106.835 0 0)
(107.475 0 0)
(108.132 0 0)
(108.804 0 0)
(109.489 0 0)
(110.186 0 0)
(110.893 0 0)
(111.609 0 0)
(112.333 0 0)
(113.064 0 0)
(113.8 0 0)
(114.541 0 0)
(115.287 0 0)
(116.037 0 0)
(116.789 0 0)
(117.544 0 0)
(118.302 0 0)
(119.061 0 0)
(119.821 0 0)
(120.582 0 0)
(121.343 0 0)
(122.105 0 0)
(122.867 0 0)
(123.628 0 0)
(124.389 0 0)
(125.149 0 0)
(125.908 0 0)
(126.665 0 0)
(127.423 0 0)
(128.171 0 0)
(128.946 0 0)
(129.63 0 0)
(130.591 0 0)
(207.64 0 0)
(205.467 0 0)
(203.223 0 0)
(200.903 0 0)
(198.501 0 0)
(196.012 0 0)
(193.428 0 0)
(190.741 0 0)
(187.942 0 0)
(185.019 0 0)
(181.96 0 0)
(178.75 0 0)
(175.371 0 0)
(171.803 0 0)
(168.02 0 0)
(163.995 0 0)
(159.696 0 0)
(155.09 0 0)
(150.157 0 0)
(144.906 0 0)
(139.401 0 0)
(133.785 0 0)
(128.266 0 0)
(123.081 0 0)
(118.433 0 0)
(114.451 0 0)
(111.171 0 0)
(108.558 0 0)
(106.536 0 0)
(105.013 0 0)
(103.898 0 0)
(103.113 0 0)
(102.593 0 0)
(102.284 0 0)
(102.147 0 0)
(102.148 0 0)
(102.262 0 0)
(102.469 0 0)
(102.754 0 0)
(103.104 0 0)
(103.509 0 0)
(103.96 0 0)
(104.451 0 0)
(104.977 0 0)
(105.531 0 0)
(106.112 0 0)
(106.714 0 0)
(107.336 0 0)
(107.975 0 0)
(108.629 0 0)
(109.296 0 0)
(109.974 0 0)
(110.663 0 0)
(111.36 0 0)
(112.064 0 0)
(112.776 0 0)
(113.493 0 0)
(114.215 0 0)
(114.941 0 0)
(115.671 0 0)
(116.404 0 0)
(117.14 0 0)
(117.878 0 0)
(118.617 0 0)
(119.358 0 0)
(120.099 0 0)
(120.841 0 0)
(121.583 0 0)
(122.326 0 0)
(123.068 0 0)
(123.809 0 0)
(124.55 0 0)
(125.289 0 0)
(126.027 0 0)
(126.766 0 0)
(127.495 0 0)
(128.25 0 0)
(128.917 0 0)
(129.851 0 0)
(205.627 0 0)
(203.451 0 0)
(201.204 0 0)
(198.88 0 0)
(196.473 0 0)
(193.977 0 0)
(191.385 0 0)
(188.687 0 0)
(185.875 0 0)
(182.936 0 0)
(179.859 0 0)
(176.626 0 0)
(173.22 0 0)
(169.62 0 0)
(165.799 0 0)
(161.731 0 0)
(157.383 0 0)
(152.73 0 0)
(147.761 0 0)
(142.504 0 0)
(137.05 0 0)
(131.559 0 0)
(126.248 0 0)
(121.334 0 0)
(116.99 0 0)
(113.308 0 0)
(110.298 0 0)
(107.912 0 0)
(106.07 0 0)
(104.685 0 0)
(103.672 0 0)
(102.962 0 0)
(102.494 0 0)
(102.222 0 0)
(102.108 0 0)
(102.123 0 0)
(102.244 0 0)
(102.453 0 0)
(102.735 0 0)
(103.079 0 0)
(103.475 0 0)
(103.916 0 0)
(104.395 0 0)
(104.906 0 0)
(105.446 0 0)
(106.011 0 0)
(106.598 0 0)
(107.203 0 0)
(107.825 0 0)
(108.461 0 0)
(109.11 0 0)
(109.77 0 0)
(110.44 0 0)
(111.118 0 0)
(111.804 0 0)
(112.497 0 0)
(113.195 0 0)
(113.899 0 0)
(114.606 0 0)
(115.317 0 0)
(116.031 0 0)
(116.748 0 0)
(117.467 0 0)
(118.187 0 0)
(118.909 0 0)
(119.632 0 0)
(120.355 0 0)
(121.078 0 0)
(121.802 0 0)
(122.525 0 0)
(123.247 0 0)
(123.969 0 0)
(124.69 0 0)
(125.409 0 0)
(126.129 0 0)
(126.84 0 0)
(127.575 0 0)
(128.225 0 0)
(129.133 0 0)
(203.62 0 0)
(201.442 0 0)
(199.191 0 0)
(196.863 0 0)
(194.45 0 0)
(191.946 0 0)
(189.344 0 0)
(186.635 0 0)
(183.809 0 0)
(180.854 0 0)
(177.755 0 0)
(174.498 0 0)
(171.064 0 0)
(167.429 0 0)
(163.569 0 0)
(159.456 0 0)
(155.061 0 0)
(150.364 0 0)
(145.37 0 0)
(140.128 0 0)
(134.75 0 0)
(129.414 0 0)
(124.331 0 0)
(119.698 0 0)
(115.654 0 0)
(112.259 0 0)
(109.501 0 0)
(107.323 0 0)
(105.646 0 0)
(104.386 0 0)
(103.467 0 0)
(102.825 0 0)
(102.405 0 0)
(102.166 0 0)
(102.073 0 0)
(102.101 0 0)
(102.228 0 0)
(102.438 0 0)
(102.718 0 0)
(103.055 0 0)
(103.443 0 0)
(103.873 0 0)
(104.34 0 0)
(104.838 0 0)
(105.364 0 0)
(105.914 0 0)
(106.485 0 0)
(107.074 0 0)
(107.679 0 0)
(108.298 0 0)
(108.93 0 0)
(109.573 0 0)
(110.225 0 0)
(110.885 0 0)
(111.553 0 0)
(112.228 0 0)
(112.908 0 0)
(113.593 0 0)
(114.282 0 0)
(114.975 0 0)
(115.671 0 0)
(116.369 0 0)
(117.07 0 0)
(117.772 0 0)
(118.475 0 0)
(119.179 0 0)
(119.884 0 0)
(120.589 0 0)
(121.294 0 0)
(121.999 0 0)
(122.703 0 0)
(123.406 0 0)
(124.109 0 0)
(124.81 0 0)
(125.512 0 0)
(126.204 0 0)
(126.92 0 0)
(127.555 0 0)
(128.437 0 0)
(201.621 0 0)
(199.439 0 0)
(197.185 0 0)
(194.851 0 0)
(192.431 0 0)
(189.919 0 0)
(187.307 0 0)
(184.585 0 0)
(181.744 0 0)
(178.77 0 0)
(175.65 0 0)
(172.367 0 0)
(168.901 0 0)
(165.23 0 0)
(161.329 0 0)
(157.17 0 0)
(152.73 0 0)
(147.998 0 0)
(142.994 0 0)
(137.788 0 0)
(132.515 0 0)
(127.359 0 0)
(122.521 0 0)
(118.174 0 0)
(114.422 0 0)
(111.298 0 0)
(108.774 0 0)
(106.788 0 0)
(105.261 0 0)
(104.115 0 0)
(103.281 0 0)
(102.7 0 0)
(102.324 0 0)
(102.114 0 0)
(102.042 0 0)
(102.081 0 0)
(102.214 0 0)
(102.425 0 0)
(102.701 0 0)
(103.033 0 0)
(103.412 0 0)
(103.832 0 0)
(104.287 0 0)
(104.773 0 0)
(105.285 0 0)
(105.82 0 0)
(106.376 0 0)
(106.949 0 0)
(107.539 0 0)
(108.141 0 0)
(108.756 0 0)
(109.382 0 0)
(110.017 0 0)
(110.66 0 0)
(111.311 0 0)
(111.968 0 0)
(112.63 0 0)
(113.298 0 0)
(113.969 0 0)
(114.644 0 0)
(115.322 0 0)
(116.003 0 0)
(116.685 0 0)
(117.369 0 0)
(118.055 0 0)
(118.741 0 0)
(119.428 0 0)
(120.115 0 0)
(120.802 0 0)
(121.489 0 0)
(122.175 0 0)
(122.861 0 0)
(123.546 0 0)
(124.229 0 0)
(124.913 0 0)
(125.588 0 0)
(126.285 0 0)
(126.904 0 0)
(127.761 0 0)
(199.628 0 0)
(197.443 0 0)
(195.184 0 0)
(192.844 0 0)
(190.417 0 0)
(187.896 0 0)
(185.272 0 0)
(182.537 0 0)
(179.678 0 0)
(176.685 0 0)
(173.541 0 0)
(170.23 0 0)
(166.732 0 0)
(163.023 0 0)
(159.08 0 0)
(154.876 0 0)
(150.395 0 0)
(145.637 0 0)
(140.639 0 0)
(135.495 0 0)
(130.353 0 0)
(125.4 0 0)
(120.821 0 0)
(116.759 0 0)
(113.288 0 0)
(110.419 0 0)
(108.112 0 0)
(106.301 0 0)
(104.91 0 0)
(103.868 0 0)
(103.111 0 0)
(102.586 0 0)
(102.25 0 0)
(102.068 0 0)
(102.013 0 0)
(102.063 0 0)
(102.201 0 0)
(102.412 0 0)
(102.685 0 0)
(103.011 0 0)
(103.382 0 0)
(103.793 0 0)
(104.237 0 0)
(104.71 0 0)
(105.209 0 0)
(105.73 0 0)
(106.271 0 0)
(106.829 0 0)
(107.403 0 0)
(107.99 0 0)
(108.589 0 0)
(109.198 0 0)
(109.816 0 0)
(110.443 0 0)
(111.076 0 0)
(111.716 0 0)
(112.362 0 0)
(113.012 0 0)
(113.666 0 0)
(114.324 0 0)
(114.985 0 0)
(115.648 0 0)
(116.313 0 0)
(116.98 0 0)
(117.648 0 0)
(118.317 0 0)
(118.986 0 0)
(119.656 0 0)
(120.326 0 0)
(120.995 0 0)
(121.664 0 0)
(122.333 0 0)
(123 0 0)
(123.666 0 0)
(124.332 0 0)
(124.99 0 0)
(125.669 0 0)
(126.274 0 0)
(127.107 0 0)
(197.642 0 0)
(195.453 0 0)
(193.189 0 0)
(190.842 0 0)
(188.407 0 0)
(185.875 0 0)
(183.239 0 0)
(180.489 0 0)
(177.613 0 0)
(174.598 0 0)
(171.429 0 0)
(168.088 0 0)
(164.555 0 0)
(160.807 0 0)
(156.821 0 0)
(152.575 0 0)
(148.059 0 0)
(143.287 0 0)
(138.318 0 0)
(133.26 0 0)
(128.275 0 0)
(123.544 0 0)
(119.231 0 0)
(115.45 0 0)
(112.248 0 0)
(109.617 0 0)
(107.51 0 0)
(105.858 0 0)
(104.592 0 0)
(103.644 0 0)
(102.957 0 0)
(102.483 0 0)
(102.183 0 0)
(102.026 0 0)
(101.988 0 0)
(102.047 0 0)
(102.189 0 0)
(102.4 0 0)
(102.67 0 0)
(102.99 0 0)
(103.354 0 0)
(103.754 0 0)
(104.188 0 0)
(104.649 0 0)
(105.135 0 0)
(105.643 0 0)
(106.17 0 0)
(106.713 0 0)
(107.272 0 0)
(107.843 0 0)
(108.427 0 0)
(109.02 0 0)
(109.622 0 0)
(110.233 0 0)
(110.85 0 0)
(111.473 0 0)
(112.102 0 0)
(112.736 0 0)
(113.373 0 0)
(114.014 0 0)
(114.658 0 0)
(115.305 0 0)
(115.953 0 0)
(116.603 0 0)
(117.254 0 0)
(117.906 0 0)
(118.559 0 0)
(119.212 0 0)
(119.865 0 0)
(120.517 0 0)
(121.169 0 0)
(121.821 0 0)
(122.471 0 0)
(123.12 0 0)
(123.77 0 0)
(124.411 0 0)
(125.073 0 0)
(125.662 0 0)
(126.471 0 0)
(195.662 0 0)
(193.469 0 0)
(191.198 0 0)
(188.844 0 0)
(186.4 0 0)
(183.857 0 0)
(181.208 0 0)
(178.441 0 0)
(175.545 0 0)
(172.508 0 0)
(169.312 0 0)
(165.939 0 0)
(162.371 0 0)
(158.583 0 0)
(154.554 0 0)
(150.269 0 0)
(145.727 0 0)
(140.958 0 0)
(136.039 0 0)
(131.095 0 0)
(126.29 0 0)
(121.796 0 0)
(117.751 0 0)
(114.243 0 0)
(111.296 0 0)
(108.886 0 0)
(106.962 0 0)
(105.456 0 0)
(104.303 0 0)
(103.44 0 0)
(102.817 0 0)
(102.389 0 0)
(102.123 0 0)
(101.989 0 0)
(101.965 0 0)
(102.033 0 0)
(102.178 0 0)
(102.389 0 0)
(102.656 0 0)
(102.97 0 0)
(103.326 0 0)
(103.718 0 0)
(104.14 0 0)
(104.59 0 0)
(105.064 0 0)
(105.559 0 0)
(106.072 0 0)
(106.602 0 0)
(107.146 0 0)
(107.702 0 0)
(108.27 0 0)
(108.848 0 0)
(109.435 0 0)
(110.029 0 0)
(110.631 0 0)
(111.238 0 0)
(111.851 0 0)
(112.469 0 0)
(113.09 0 0)
(113.715 0 0)
(114.342 0 0)
(114.972 0 0)
(115.605 0 0)
(116.238 0 0)
(116.873 0 0)
(117.509 0 0)
(118.145 0 0)
(118.781 0 0)
(119.418 0 0)
(120.054 0 0)
(120.69 0 0)
(121.325 0 0)
(121.959 0 0)
(122.591 0 0)
(123.225 0 0)
(123.849 0 0)
(124.494 0 0)
(125.07 0 0)
(125.856 0 0)
(193.689 0 0)
(191.49 0 0)
(189.213 0 0)
(186.851 0 0)
(184.396 0 0)
(181.841 0 0)
(179.177 0 0)
(176.393 0 0)
(173.476 0 0)
(170.414 0 0)
(167.19 0 0)
(163.784 0 0)
(160.178 0 0)
(156.35 0 0)
(152.282 0 0)
(147.963 0 0)
(143.407 0 0)
(138.659 0 0)
(133.814 0 0)
(129.008 0 0)
(124.404 0 0)
(120.156 0 0)
(116.379 0 0)
(113.133 0 0)
(110.425 0 0)
(108.221 0 0)
(106.464 0 0)
(105.091 0 0)
(104.04 0 0)
(103.255 0 0)
(102.69 0 0)
(102.305 0 0)
(102.068 0 0)
(101.955 0 0)
(101.944 0 0)
(102.02 0 0)
(102.168 0 0)
(102.379 0 0)
(102.642 0 0)
(102.951 0 0)
(103.3 0 0)
(103.682 0 0)
(104.095 0 0)