/*--------------------------------*- C++ -*----------------------------------*\
| =========                 |                                                 |
| \\      /  F ield         | OpenFOAM: The Open Source CFD Toolbox           |
|  \\    /   O peration     | Version:  2312                                  |
|   \\  /    A nd           | Website:  www.openfoam.com                      |
|    \\/     M anipulation  |                                                 |
\*---------------------------------------------------------------------------*/
FoamFile
{
    version     2.0;
    format      ascii;
    arch        "LSB;label=32;scalar=64";
    class       volVectorField;
    location    "0.734";
    object      U;
}
// * * * * * * * * * * * * * * * * * * * * * * * * * * * * * * * * * * * * * //

dimensions      [0 1 -1 0 0 0 0];

internalField   nonuniform List<vector> 
31205
(
(245.391 0 0)
(247.425 0 0)
(249.402 0 0)
(251.326 0 0)
(253.197 0 0)
(255.019 0 0)
(256.792 0 0)
(258.517 0 0)
(260.197 0 0)
(261.833 0 0)
(263.425 0 0)
(264.975 0 0)
(266.484 0 0)
(267.953 0 0)
(269.383 0 0)
(270.774 0 0)
(272.128 0 0)
(273.445 0 0)
(274.726 0 0)
(275.97 0 0)
(277.18 0 0)
(278.356 0 0)
(279.497 0 0)
(280.605 0 0)
(281.68 0 0)
(282.722 0 0)
(283.731 0 0)
(284.709 0 0)
(285.654 0 0)
(286.568 0 0)
(287.451 0 0)
(288.302 0 0)
(289.123 0 0)
(289.912 0 0)
(290.671 0 0)
(291.4 0 0)
(292.097 0 0)
(292.764 0 0)
(293.401 0 0)
(294.007 0 0)
(294.582 0 0)
(295.126 0 0)
(295.64 0 0)
(296.122 0 0)
(296.574 0 0)
(296.994 0 0)
(297.382 0 0)
(297.738 0 0)
(298.062 0 0)
(298.354 0 0)
(298.612 0 0)
(298.838 0 0)
(299.029 0 0)
(299.186 0 0)
(299.307 0 0)
(299.393 0 0)
(299.443 0 0)
(299.456 0 0)
(299.431 0 0)
(299.366 0 0)
(299.262 0 0)
(299.117 0 0)
(298.93 0 0)
(298.7 0 0)
(298.424 0 0)
(298.102 0 0)
(297.732 0 0)
(297.311 0 0)
(296.838 0 0)
(296.311 0 0)
(295.725 0 0)
(295.081 0 0)
(294.369 0 0)
(293.595 0 0)
(292.745 0 0)
(291.831 0 0)
(290.759 0 0)
(289.842 0 0)
(288.159 0 0)
(247.548 0 0)
(249.464 0 0)
(251.329 0 0)
(253.145 0 0)
(254.914 0 0)
(256.637 0 0)
(258.316 0 0)
(259.951 0 0)
(261.545 0 0)
(263.098 0 0)
(264.611 0 0)
(266.085 0 0)
(267.521 0 0)
(268.92 0 0)
(270.283 0 0)
(271.61 0 0)
(272.902 0 0)
(274.16 0 0)
(275.384 0 0)
(276.575 0 0)
(277.733 0 0)
(278.859 0 0)
(279.953 0 0)
(281.016 0 0)
(282.047 0 0)
(283.048 0 0)
(284.019 0 0)
(284.959 0 0)
(285.869 0 0)
(286.75 0 0)
(287.601 0 0)
(288.423 0 0)
(289.216 0 0)
(289.98 0 0)
(290.715 0 0)
(291.421 0 0)
(292.098 0 0)
(292.746 0 0)
(293.366 0 0)
(293.956 0 0)
(294.518 0 0)
(295.051 0 0)
(295.555 0 0)
(296.029 0 0)
(296.475 0 0)
(296.89 0 0)
(297.277 0 0)
(297.633 0 0)
(297.958 0 0)
(298.254 0 0)
(298.518 0 0)
(298.751 0 0)
(298.952 0 0)
(299.122 0 0)
(299.258 0 0)
(299.362 0 0)
(299.431 0 0)
(299.466 0 0)
(299.466 0 0)
(299.43 0 0)
(299.357 0 0)
(299.246 0 0)
(299.097 0 0)
(298.907 0 0)
(298.677 0 0)
(298.404 0 0)
(298.087 0 0)
(297.725 0 0)
(297.315 0 0)
(296.857 0 0)
(296.346 0 0)
(295.783 0 0)
(295.162 0 0)
(294.483 0 0)
(293.733 0 0)
(292.946 0 0)
(292.006 0 0)
(291.199 0 0)
(289.74 0 0)
(249.675 0 0)
(251.478 0 0)
(253.236 0 0)
(254.949 0 0)
(256.62 0 0)
(258.249 0 0)
(259.837 0 0)
(261.386 0 0)
(262.896 0 0)
(264.369 0 0)
(265.806 0 0)
(267.206 0 0)
(268.572 0 0)
(269.903 0 0)
(271.201 0 0)
(272.465 0 0)
(273.697 0 0)
(274.897 0 0)
(276.066 0 0)
(277.204 0 0)
(278.311 0 0)
(279.388 0 0)
(280.436 0 0)
(281.454 0 0)
(282.443 0 0)
(283.403 0 0)
(284.334 0 0)
(285.238 0 0)
(286.113 0 0)
(286.96 0 0)
(287.78 0 0)
(288.572 0 0)
(289.337 0 0)
(290.075 0 0)
(290.785 0 0)
(291.468 0 0)
(292.124 0 0)
(292.753 0 0)
(293.355 0 0)
(293.929 0 0)
(294.477 0 0)
(294.997 0 0)
(295.49 0 0)
(295.955 0 0)
(296.393 0 0)
(296.803 0 0)
(297.185 0 0)
(297.539 0 0)
(297.864 0 0)
(298.161 0 0)
(298.429 0 0)
(298.668 0 0)
(298.877 0 0)
(299.056 0 0)
(299.204 0 0)
(299.322 0 0)
(299.407 0 0)
(299.461 0 0)
(299.482 0 0)
(299.47 0 0)
(299.424 0 0)
(299.343 0 0)
(299.226 0 0)
(299.072 0 0)
(298.881 0 0)
(298.651 0 0)
(298.38 0 0)
(298.068 0 0)
(297.714 0 0)
(297.315 0 0)
(296.869 0 0)
(296.376 0 0)
(295.831 0 0)
(295.236 0 0)
(294.577 0 0)
(293.882 0 0)
(293.064 0 0)
(292.352 0 0)
(291.08 0 0)
(251.716 0 0)
(253.415 0 0)
(255.072 0 0)
(256.689 0 0)
(258.267 0 0)
(259.808 0 0)
(261.311 0 0)
(262.778 0 0)
(264.209 0 0)
(265.607 0 0)
(266.97 0 0)
(268.301 0 0)
(269.599 0 0)
(270.866 0 0)
(272.101 0 0)
(273.306 0 0)
(274.481 0 0)
(275.625 0 0)
(276.741 0 0)
(277.828 0 0)
(278.886 0 0)
(279.917 0 0)
(280.919 0 0)
(281.894 0 0)
(282.842 0 0)
(283.762 0 0)
(284.656 0 0)
(285.524 0 0)
(286.365 0 0)
(287.18 0 0)
(287.969 0 0)
(288.732 0 0)
(289.47 0 0)
(290.181 0 0)
(290.867 0 0)
(291.528 0 0)
(292.163 0 0)
(292.772 0 0)
(293.356 0 0)
(293.914 0 0)
(294.447 0 0)
(294.954 0 0)
(295.436 0 0)
(295.891 0 0)
(296.321 0 0)
(296.724 0 0)
(297.102 0 0)
(297.452 0 0)
(297.777 0 0)
(298.074 0 0)
(298.344 0 0)
(298.586 0 0)
(298.801 0 0)
(298.988 0 0)
(299.146 0 0)
(299.275 0 0)
(299.375 0 0)
(299.445 0 0)
(299.485 0 0)
(299.494 0 0)
(299.471 0 0)
(299.415 0 0)
(299.327 0 0)
(299.205 0 0)
(299.048 0 0)
(298.855 0 0)
(298.626 0 0)
(298.359 0 0)
(298.053 0 0)
(297.706 0 0)
(297.318 0 0)
(296.886 0 0)
(296.408 0 0)
(295.885 0 0)
(295.306 0 0)
(294.694 0 0)
(293.974 0 0)
(293.347 0 0)
(292.235 0 0)
(253.653 0 0)
(255.255 0 0)
(256.819 0 0)
(258.346 0 0)
(259.838 0 0)
(261.295 0 0)
(262.719 0 0)
(264.109 0 0)
(265.467 0 0)
(266.793 0 0)
(268.088 0 0)
(269.353 0 0)
(270.587 0 0)
(271.793 0 0)
(272.969 0 0)
(274.117 0 0)
(275.237 0 0)
(276.33 0 0)
(277.395 0 0)
(278.433 0 0)
(279.445 0 0)
(280.43 0 0)
(281.39 0 0)
(282.324 0 0)
(283.232 0 0)
(284.115 0 0)
(284.973 0 0)
(285.806 0 0)
(286.614 0 0)
(287.398 0 0)
(288.158 0 0)
(288.893 0 0)
(289.603 0 0)
(290.29 0 0)
(290.953 0 0)
(291.591 0 0)
(292.205 0 0)
(292.796 0 0)
(293.362 0 0)
(293.905 0 0)
(294.423 0 0)
(294.917 0 0)
(295.387 0 0)
(295.832 0 0)
(296.254 0 0)
(296.65 0 0)
(297.022 0 0)
(297.369 0 0)
(297.691 0 0)
(297.988 0 0)
(298.259 0 0)
(298.505 0 0)
(298.724 0 0)
(298.918 0 0)
(299.084 0 0)
(299.224 0 0)
(299.336 0 0)
(299.42 0 0)
(299.476 0 0)
(299.503 0 0)
(299.501 0 0)
(299.469 0 0)
(299.406 0 0)
(299.312 0 0)
(299.186 0 0)
(299.027 0 0)
(298.834 0 0)
(298.607 0 0)
(298.344 0 0)
(298.045 0 0)
(297.707 0 0)
(297.33 0 0)
(296.912 0 0)
(296.453 0 0)
(295.944 0 0)
(295.405 0 0)
(294.772 0 0)
(294.218 0 0)
(293.241 0 0)
(255.485 0 0)
(256.996 0 0)
(258.473 0 0)
(259.917 0 0)
(261.328 0 0)
(262.708 0 0)
(264.057 0 0)
(265.375 0 0)
(266.663 0 0)
(267.923 0 0)
(269.153 0 0)
(270.356 0 0)
(271.531 0 0)
(272.678 0 0)
(273.799 0 0)
(274.894 0 0)
(275.962 0 0)
(277.005 0 0)
(278.022 0 0)
(279.014 0 0)
(279.982 0 0)
(280.925 0 0)
(281.843 0 0)
(282.738 0 0)
(283.609 0 0)
(284.456 0 0)
(285.279 0 0)
(286.079 0 0)
(286.856 0 0)
(287.61 0 0)
(288.341 0 0)
(289.049 0 0)
(289.734 0 0)
(290.397 0 0)
(291.037 0 0)
(291.654 0 0)
(292.249 0 0)
(292.82 0 0)
(293.37 0 0)
(293.897 0 0)
(294.401 0 0)
(294.882 0 0)
(295.34 0 0)
(295.776 0 0)
(296.189 0 0)
(296.578 0 0)
(296.945 0 0)
(297.288 0 0)
(297.607 0 0)
(297.903 0 0)
(298.175 0 0)
(298.422 0 0)
(298.646 0 0)
(298.844 0 0)
(299.018 0 0)
(299.167 0 0)
(299.289 0 0)
(299.386 0 0)
(299.457 0 0)
(299.5 0 0)
(299.517 0 0)
(299.505 0 0)
(299.466 0 0)
(299.397 0 0)
(299.299 0 0)
(299.17 0 0)
(299.011 0 0)
(298.819 0 0)
(298.595 0 0)
(298.338 0 0)
(298.046 0 0)
(297.718 0 0)
(297.353 0 0)
(296.951 0 0)
(296.504 0 0)
(296.031 0 0)
(295.474 0 0)
(294.986 0 0)
(294.126 0 0)
(257.215 0 0)
(258.642 0 0)
(260.038 0 0)
(261.404 0 0)
(262.74 0 0)
(264.048 0 0)
(265.326 0 0)
(266.577 0 0)
(267.801 0 0)
(268.997 0 0)
(270.167 0 0)
(271.311 0 0)
(272.43 0 0)
(273.523 0 0)
(274.591 0 0)
(275.635 0 0)
(276.654 0 0)
(277.65 0 0)
(278.622 0 0)
(279.57 0 0)
(280.496 0 0)
(281.398 0 0)
(282.278 0 0)
(283.135 0 0)
(283.97 0 0)
(284.783 0 0)
(285.574 0 0)
(286.342 0 0)
(287.089 0 0)
(287.814 0 0)
(288.518 0 0)
(289.2 0 0)
(289.861 0 0)
(290.5 0 0)
(291.118 0 0)
(291.715 0 0)
(292.291 0 0)
(292.845 0 0)
(293.377 0 0)
(293.889 0 0)
(294.379 0 0)
(294.848 0 0)
(295.295 0 0)
(295.721 0 0)
(296.125 0 0)
(296.508 0 0)
(296.868 0 0)
(297.207 0 0)
(297.523 0 0)
(297.818 0 0)
(298.09 0 0)
(298.339 0 0)
(298.565 0 0)
(298.768 0 0)
(298.948 0 0)
(299.104 0 0)
(299.237 0 0)
(299.345 0 0)
(299.428 0 0)
(299.487 0 0)
(299.52 0 0)
(299.527 0 0)
(299.508 0 0)
(299.462 0 0)
(299.389 0 0)
(299.288 0 0)
(299.158 0 0)
(299 0 0)
(298.811 0 0)
(298.591 0 0)
(298.34 0 0)
(298.057 0 0)
(297.739 0 0)
(297.388 0 0)
(296.997 0 0)
(296.582 0 0)
(296.092 0 0)
(295.663 0 0)
(294.907 0 0)
(258.85 0 0)
(260.199 0 0)
(261.52 0 0)
(262.813 0 0)
(264.079 0 0)
(265.318 0 0)
(266.532 0 0)
(267.719 0 0)
(268.881 0 0)
(270.019 0 0)
(271.132 0 0)
(272.221 0 0)
(273.286 0 0)
(274.328 0 0)
(275.346 0 0)
(276.342 0 0)
(277.315 0 0)
(278.266 0 0)
(279.195 0 0)
(280.102 0 0)
(280.988 0 0)
(281.852 0 0)
(282.695 0 0)
(283.516 0 0)
(284.317 0 0)
(285.097 0 0)
(285.856 0 0)
(286.595 0 0)
(287.313 0 0)
(288.011 0 0)
(288.689 0 0)
(289.346 0 0)
(289.983 0 0)
(290.6 0 0)
(291.197 0 0)
(291.774 0 0)
(292.331 0 0)
(292.868 0 0)
(293.385 0 0)
(293.882 0 0)
(294.358 0 0)
(294.815 0 0)
(295.251 0 0)
(295.667 0 0)
(296.063 0 0)
(296.438 0 0)
(296.793 0 0)
(297.127 0 0)
(297.44 0 0)
(297.733 0 0)
(298.004 0 0)
(298.254 0 0)
(298.483 0 0)
(298.689 0 0)
(298.875 0 0)
(299.038 0 0)
(299.178 0 0)
(299.296 0 0)
(299.391 0 0)
(299.463 0 0)
(299.511 0 0)
(299.535 0 0)
(299.535 0 0)
(299.509 0 0)
(299.459 0 0)
(299.383 0 0)
(299.28 0 0)
(299.151 0 0)
(298.994 0 0)
(298.808 0 0)
(298.594 0 0)
(298.35 0 0)
(298.076 0 0)
(297.771 0 0)
(297.43 0 0)
(297.066 0 0)
(296.637 0 0)
(296.26 0 0)
(295.595 0 0)
(260.397 0 0)
(261.673 0 0)
(262.924 0 0)
(264.149 0 0)
(265.349 0 0)
(266.525 0 0)
(267.676 0 0)
(268.804 0 0)
(269.909 0 0)
(270.991 0 0)
(272.05 0 0)
(273.087 0 0)
(274.102 0 0)
(275.095 0 0)
(276.067 0 0)
(277.017 0 0)
(277.947 0 0)
(278.855 0 0)
(279.743 0 0)
(280.611 0 0)
(281.459 0 0)
(282.286 0 0)
(283.094 0 0)
(283.881 0 0)
(284.65 0 0)
(285.398 0 0)
(286.128 0 0)
(286.838 0 0)
(287.528 0 0)
(288.2 0 0)
(288.853 0 0)
(289.486 0 0)
(290.101 0 0)
(290.697 0 0)
(291.273 0 0)
(291.831 0 0)
(292.37 0 0)
(292.89 0 0)
(293.392 0 0)
(293.874 0 0)
(294.338 0 0)
(294.782 0 0)
(295.208 0 0)
(295.614 0 0)
(296.001 0 0)
(296.369 0 0)
(296.718 0 0)
(297.048 0 0)
(297.357 0 0)
(297.647 0 0)
(297.918 0 0)
(298.168 0 0)
(298.398 0 0)
(298.608 0 0)
(298.798 0 0)
(298.967 0 0)
(299.115 0 0)
(299.241 0 0)
(299.346 0 0)
(299.43 0 0)
(299.492 0 0)
(299.531 0 0)
(299.547 0 0)
(299.541 0 0)
(299.511 0 0)
(299.457 0 0)
(299.379 0 0)
(299.276 0 0)
(299.147 0 0)
(298.993 0 0)
(298.812 0 0)
(298.604 0 0)
(298.368 0 0)
(298.104 0 0)
(297.808 0 0)
(297.491 0 0)
(297.115 0 0)
(296.785 0 0)
(296.201 0 0)
(261.861 0 0)
(263.07 0 0)
(264.254 0 0)
(265.416 0 0)
(266.554 0 0)
(267.67 0 0)
(268.764 0 0)
(269.836 0 0)
(270.887 0 0)
(271.916 0 0)
(272.925 0 0)
(273.912 0 0)
(274.88 0 0)
(275.827 0 0)
(276.754 0 0)
(277.662 0 0)
(278.55 0 0)
(279.418 0 0)
(280.268 0 0)
(281.098 0 0)
(281.909 0 0)
(282.702 0 0)
(283.476 0 0)
(284.232 0 0)
(284.969 0 0)
(285.688 0 0)
(286.388 0 0)
(287.071 0 0)
(287.736 0 0)
(288.382 0 0)
(289.011 0 0)
(289.621 0 0)
(290.214 0 0)
(290.789 0 0)
(291.347 0 0)
(291.886 0 0)
(292.408 0 0)
(292.912 0 0)
(293.398 0 0)
(293.867 0 0)
(294.318 0 0)
(294.75 0 0)
(295.165 0 0)
(295.562 0 0)
(295.941 0 0)
(296.302 0 0)
(296.645 0 0)
(296.969 0 0)
(297.275 0 0)
(297.563 0 0)
(297.832 0 0)
(298.082 0 0)
(298.313 0 0)
(298.525 0 0)
(298.719 0 0)
(298.892 0 0)
(299.046 0 0)
(299.181 0 0)
(299.295 0 0)
(299.389 0 0)
(299.463 0 0)
(299.515 0 0)
(299.547 0 0)
(299.557 0 0)
(299.546 0 0)
(299.512 0 0)
(299.456 0 0)
(299.377 0 0)
(299.274 0 0)
(299.148 0 0)
(298.997 0 0)
(298.822 0 0)
(298.62 0 0)
(298.394 0 0)
(298.138 0 0)
(297.862 0 0)
(297.535 0 0)
(297.246 0 0)
(296.734 0 0)
(263.249 0 0)
(264.394 0 0)
(265.517 0 0)
(266.618 0 0)
(267.699 0 0)
(268.759 0 0)
(269.798 0 0)
(270.818 0 0)
(271.817 0 0)
(272.797 0 0)
(273.758 0 0)
(274.699 0 0)
(275.622 0 0)
(276.526 0 0)
(277.411 0 0)
(278.277 0 0)
(279.126 0 0)
(279.957 0 0)
(280.769 0 0)
(281.564 0 0)
(282.341 0 0)
(283.101 0 0)
(283.843 0 0)
(284.568 0 0)
(285.275 0 0)
(285.966 0 0)
(286.639 0 0)
(287.295 0 0)
(287.935 0 0)
(288.557 0 0)
(289.163 0 0)
(289.752 0 0)
(290.324 0 0)
(290.879 0 0)
(291.418 0 0)
(291.94 0 0)
(292.445 0 0)
(292.933 0 0)
(293.405 0 0)
(293.86 0 0)
(294.298 0 0)
(294.719 0 0)
(295.124 0 0)
(295.511 0 0)
(295.882 0 0)
(296.236 0 0)
(296.572 0 0)
(296.891 0 0)
(297.193 0 0)
(297.478 0 0)
(297.745 0 0)
(297.995 0 0)
(298.227 0 0)
(298.441 0 0)
(298.637 0 0)
(298.815 0 0)
(298.974 0 0)
(299.115 0 0)
(299.238 0 0)
(299.341 0 0)
(299.425 0 0)
(299.49 0 0)
(299.535 0 0)
(299.561 0 0)
(299.566 0 0)
(299.55 0 0)
(299.514 0 0)
(299.457 0 0)
(299.377 0 0)
(299.276 0 0)
(299.153 0 0)
(299.007 0 0)
(298.837 0 0)
(298.644 0 0)
(298.424 0 0)
(298.186 0 0)
(297.902 0 0)
(297.65 0 0)
(297.203 0 0)
(264.564 0 0)
(265.65 0 0)
(266.715 0 0)
(267.761 0 0)
(268.787 0 0)
(269.794 0 0)
(270.783 0 0)
(271.752 0 0)
(272.704 0 0)
(273.637 0 0)
(274.552 0 0)
(275.45 0 0)
(276.33 0 0)
(277.193 0 0)
(278.038 0 0)
(278.866 0 0)
(279.677 0 0)
(280.472 0 0)
(281.249 0 0)
(282.01 0 0)
(282.755 0 0)
(283.483 0 0)
(284.194 0 0)
(284.89 0 0)
(285.569 0 0)
(286.233 0 0)
(286.88 0 0)
(287.511 0 0)
(288.126 0 0)
(288.726 0 0)
(289.31 0 0)
(289.877 0 0)
(290.429 0 0)
(290.966 0 0)
(291.486 0 0)
(291.991 0 0)
(292.48 0 0)
(292.953 0 0)
(293.411 0 0)
(293.853 0 0)
(294.279 0 0)
(294.689 0 0)
(295.083 0 0)
(295.462 0 0)
(295.824 0 0)
(296.17 0 0)
(296.501 0 0)
(296.815 0 0)
(297.113 0 0)
(297.394 0 0)
(297.659 0 0)
(297.908 0 0)
(298.14 0 0)
(298.355 0 0)
(298.553 0 0)
(298.735 0 0)
(298.899 0 0)
(299.046 0 0)
(299.175 0 0)
(299.287 0 0)
(299.38 0 0)
(299.456 0 0)
(299.513 0 0)
(299.552 0 0)
(299.572 0 0)
(299.573 0 0)
(299.555 0 0)
(299.517 0 0)
(299.459 0 0)
(299.381 0 0)
(299.282 0 0)
(299.162 0 0)
(299.02 0 0)
(298.857 0 0)
(298.67 0 0)
(298.466 0 0)
(298.221 0 0)
(298.003 0 0)
(297.614 0 0)
(265.813 0 0)
(266.842 0 0)
(267.853 0 0)
(268.846 0 0)
(269.821 0 0)
(270.779 0 0)
(271.719 0 0)
(272.642 0 0)
(273.548 0 0)
(274.438 0 0)
(275.31 0 0)
(276.166 0 0)
(277.006 0 0)
(277.83 0 0)
(278.637 0 0)
(279.429 0 0)
(280.204 0 0)
(280.964 0 0)
(281.709 0 0)
(282.438 0 0)
(283.151 0 0)
(283.849 0 0)
(284.532 0 0)
(285.199 0 0)
(285.852 0 0)
(286.489 0 0)
(287.111 0 0)
(287.719 0 0)
(288.311 0 0)
(288.888 0 0)
(289.451 0 0)
(289.998 0 0)
(290.531 0 0)
(291.049 0 0)
(291.552 0 0)
(292.041 0 0)
(292.514 0 0)
(292.973 0 0)
(293.417 0 0)
(293.846 0 0)
(294.26 0 0)
(294.659 0 0)
(295.043 0 0)
(295.413 0 0)
(295.767 0 0)
(296.106 0 0)
(296.43 0 0)
(296.739 0 0)
(297.033 0 0)
(297.311 0 0)
(297.574 0 0)
(297.821 0 0)
(298.053 0 0)
(298.268 0 0)
(298.468 0 0)
(298.653 0 0)
(298.821 0 0)
(298.972 0 0)
(299.108 0 0)
(299.227 0 0)
(299.329 0 0)
(299.414 0 0)
(299.482 0 0)
(299.533 0 0)
(299.567 0 0)
(299.582 0 0)
(299.58 0 0)
(299.56 0 0)
(299.521 0 0)
(299.463 0 0)
(299.386 0 0)
(299.29 0 0)
(299.174 0 0)
(299.039 0 0)
(298.881 0 0)
(298.708 0 0)
(298.497 0 0)
(298.31 0 0)
(297.972 0 0)
(266.998 0 0)
(267.975 0 0)
(268.935 0 0)
(269.879 0 0)
(270.806 0 0)
(271.716 0 0)
(272.611 0 0)
(273.49 0 0)
(274.353 0 0)
(275.201 0 0)
(276.033 0 0)
(276.85 0 0)
(277.652 0 0)
(278.438 0 0)
(279.21 0 0)
(279.967 0 0)
(280.709 0 0)
(281.436 0 0)
(282.149 0 0)
(282.847 0 0)
(283.531 0 0)
(284.2 0 0)
(284.856 0 0)
(285.496 0 0)
(286.123 0 0)
(286.736 0 0)
(287.334 0 0)
(287.918 0 0)
(288.489 0 0)
(289.045 0 0)
(289.587 0 0)
(290.115 0 0)
(290.63 0 0)
(291.13 0 0)
(291.616 0 0)
(292.089 0 0)
(292.547 0 0)
(292.992 0 0)
(293.423 0 0)
(293.839 0 0)
(294.242 0 0)
(294.63 0 0)
(295.005 0 0)
(295.365 0 0)
(295.711 0 0)
(296.043 0 0)
(296.361 0 0)
(296.665 0 0)
(296.954 0 0)
(297.228 0 0)
(297.488 0 0)
(297.734 0 0)
(297.965 0 0)
(298.181 0 0)
(298.382 0 0)
(298.568 0 0)
(298.74 0 0)
(298.896 0 0)
(299.036 0 0)
(299.161 0 0)
(299.271 0 0)
(299.365 0 0)
(299.443 0 0)
(299.504 0 0)
(299.55 0 0)
(299.579 0 0)
(299.591 0 0)
(299.587 0 0)
(299.565 0 0)
(299.526 0 0)
(299.469 0 0)
(299.395 0 0)
(299.302 0 0)
(299.191 0 0)
(299.059 0 0)
(298.914 0 0)
(298.735 0 0)
(298.575 0 0)
(298.284 0 0)
(268.124 0 0)
(269.052 0 0)
(269.964 0 0)
(270.861 0 0)
(271.742 0 0)
(272.609 0 0)
(273.461 0 0)
(274.298 0 0)
(275.121 0 0)
(275.929 0 0)
(276.723 0 0)
(277.503 0 0)
(278.269 0 0)
(279.02 0 0)
(279.758 0 0)
(280.482 0 0)
(281.192 0 0)
(281.888 0 0)
(282.571 0 0)
(283.24 0 0)
(283.895 0 0)
(284.537 0 0)
(285.166 0 0)
(285.782 0 0)
(286.384 0 0)
(286.973 0 0)
(287.548 0 0)
(288.11 0 0)
(288.66 0 0)
(289.196 0 0)
(289.718 0 0)
(290.228 0 0)
(290.725 0 0)
(291.208 0 0)
(291.678 0 0)
(292.135 0 0)
(292.579 0 0)
(293.01 0 0)
(293.428 0 0)
(293.833 0 0)
(294.224 0 0)
(294.602 0 0)
(294.967 0 0)
(295.318 0 0)
(295.657 0 0)
(295.982 0 0)
(296.293 0 0)
(296.591 0 0)
(296.876 0 0)
(297.147 0 0)
(297.404 0 0)
(297.647 0 0)
(297.877 0 0)
(298.093 0 0)
(298.295 0 0)
(298.483 0 0)
(298.657 0 0)
(298.816 0 0)
(298.961 0 0)
(299.092 0 0)
(299.208 0 0)
(299.309 0 0)
(299.396 0 0)
(299.467 0 0)
(299.523 0 0)
(299.564 0 0)
(299.59 0 0)
(299.599 0 0)
(299.593 0 0)
(299.571 0 0)
(299.532 0 0)
(299.477 0 0)
(299.405 0 0)
(299.316 0 0)
(299.209 0 0)
(299.088 0 0)
(298.937 0 0)
(298.803 0 0)
(298.553 0 0)
(269.195 0 0)
(270.076 0 0)
(270.943 0 0)
(271.796 0 0)
(272.635 0 0)
(273.46 0 0)
(274.271 0 0)
(275.069 0 0)
(275.853 0 0)
(276.624 0 0)
(277.382 0 0)
(278.127 0 0)
(278.858 0 0)
(279.576 0 0)
(280.282 0 0)
(280.974 0 0)
(281.654 0 0)
(282.321 0 0)
(282.975 0 0)
(283.616 0 0)
(284.245 0 0)
(284.861 0 0)
(285.465 0 0)
(286.056 0 0)
(286.634 0 0)
(287.2 0 0)
(287.754 0 0)
(288.295 0 0)
(288.824 0 0)
(289.341 0 0)
(289.845 0 0)
(290.337 0 0)
(290.816 0 0)
(291.283 0 0)
(291.738 0 0)
(292.18 0 0)
(292.61 0 0)
(293.028 0 0)
(293.433 0 0)
(293.826 0 0)
(294.206 0 0)
(294.574 0 0)
(294.93 0 0)
(295.273 0 0)
(295.603 0 0)
(295.921 0 0)
(296.226 0 0)
(296.519 0 0)
(296.799 0 0)
(297.066 0 0)
(297.32 0 0)
(297.561 0 0)
(297.789 0 0)
(298.005 0 0)
(298.207 0 0)
(298.396 0 0)
(298.572 0 0)
(298.734 0 0)
(298.883 0 0)
(299.018 0 0)
(299.14 0 0)
(299.248 0 0)
(299.342 0 0)
(299.422 0 0)
(299.488 0 0)
(299.539 0 0)
(299.577 0 0)
(299.599 0 0)
(299.607 0 0)
(299.6 0 0)
(299.577 0 0)
(299.54 0 0)
(299.487 0 0)
(299.418 0 0)
(299.332 0 0)
(299.234 0 0)
(299.109 0 0)
(298.996 0 0)
(298.784 0 0)
(270.212 0 0)
(271.05 0 0)
(271.874 0 0)
(272.686 0 0)
(273.484 0 0)
(274.27 0 0)
(275.044 0 0)
(275.804 0 0)
(276.552 0 0)
(277.288 0 0)
(278.011 0 0)
(278.723 0 0)
(279.421 0 0)
(280.108 0 0)
(280.783 0 0)
(281.446 0 0)
(282.096 0 0)
(282.735 0 0)
(283.362 0 0)
(283.977 0 0)
(284.58 0 0)
(285.171 0 0)
(285.751 0 0)
(286.319 0 0)
(286.875 0 0)
(287.419 0 0)
(287.952 0 0)
(288.473 0 0)
(288.983 0 0)
(289.481 0 0)
(289.967 0 0)
(290.442 0 0)
(290.905 0 0)
(291.356 0 0)
(291.796 0 0)
(292.224 0 0)
(292.64 0 0)
(293.045 0 0)
(293.438 0 0)
(293.82 0 0)
(294.189 0 0)
(294.548 0 0)
(294.894 0 0)
(295.228 0 0)
(295.551 0 0)
(295.862 0 0)
(296.161 0 0)
(296.448 0 0)
(296.723 0 0)
(296.986 0 0)
(297.237 0 0)
(297.475 0 0)
(297.702 0 0)
(297.916 0 0)
(298.119 0 0)
(298.308 0 0)
(298.485 0 0)
(298.65 0 0)
(298.802 0 0)
(298.942 0 0)
(299.068 0 0)
(299.182 0 0)
(299.283 0 0)
(299.37 0 0)
(299.445 0 0)
(299.506 0 0)
(299.553 0 0)
(299.587 0 0)
(299.608 0 0)
(299.614 0 0)
(299.606 0 0)
(299.585 0 0)
(299.548 0 0)
(299.498 0 0)
(299.432 0 0)
(299.354 0 0)
(299.252 0 0)
(299.159 0 0)
(298.981 0 0)
(271.181 0 0)
(271.977 0 0)
(272.762 0 0)
(273.534 0 0)
(274.295 0 0)
(275.043 0 0)
(275.78 0 0)
(276.506 0 0)
(277.22 0 0)
(277.922 0 0)
(278.613 0 0)
(279.292 0 0)
(279.96 0 0)
(280.617 0 0)
(281.263 0 0)
(281.897 0 0)
(282.52 0 0)
(283.132 0 0)
(283.733 0 0)
(284.323 0 0)
(284.902 0 0)
(285.469 0 0)
(286.026 0 0)
(286.572 0 0)
(287.106 0 0)
(287.63 0 0)
(288.143 0 0)
(288.645 0 0)
(289.136 0 0)
(289.616 0 0)
(290.085 0 0)
(290.543 0 0)
(290.99 0 0)
(291.426 0 0)
(291.852 0 0)
(292.266 0 0)
(292.669 0 0)
(293.062 0 0)
(293.443 0 0)
(293.814 0 0)
(294.173 0 0)
(294.521 0 0)
(294.859 0 0)
(295.185 0 0)
(295.5 0 0)
(295.804 0 0)
(296.096 0 0)
(296.378 0 0)
(296.648 0 0)
(296.907 0 0)
(297.154 0 0)
(297.39 0 0)
(297.615 0 0)
(297.828 0 0)
(298.03 0 0)
(298.22 0 0)
(298.398 0 0)
(298.565 0 0)
(298.719 0 0)
(298.862 0 0)
(298.993 0 0)
(299.111 0 0)
(299.218 0 0)
(299.312 0 0)
(299.394 0 0)
(299.464 0 0)
(299.521 0 0)
(299.565 0 0)
(299.597 0 0)
(299.615 0 0)
(299.621 0 0)
(299.613 0 0)
(299.592 0 0)
(299.558 0 0)
(299.51 0 0)
(299.45 0 0)
(299.369 0 0)
(299.295 0 0)
(299.147 0 0)
(272.103 0 0)
(272.86 0 0)
(273.607 0 0)
(274.342 0 0)
(275.067 0 0)
(275.781 0 0)
(276.483 0 0)
(277.175 0 0)
(277.857 0 0)
(278.528 0 0)
(279.188 0 0)
(279.837 0 0)
(280.476 0 0)
(281.104 0 0)
(281.722 0 0)
(282.329 0 0)
(282.926 0 0)
(283.513 0 0)
(284.089 0 0)
(284.655 0 0)
(285.21 0 0)
(285.756 0 0)
(286.29 0 0)
(286.815 0 0)
(287.329 0 0)
(287.833 0 0)
(288.327 0 0)
(288.81 0 0)
(289.283 0 0)
(289.746 0 0)
(290.198 0 0)
(290.641 0 0)
(291.072 0 0)
(291.494 0 0)
(291.906 0 0)
(292.307 0 0)
(292.697 0 0)
(293.078 0 0)
(293.448 0 0)
(293.807 0 0)
(294.157 0 0)
(294.496 0 0)
(294.824 0 0)
(295.142 0 0)
(295.45 0 0)
(295.747 0 0)
(296.033 0 0)
(296.309 0 0)
(296.574 0 0)
(296.829 0 0)
(297.073 0 0)
(297.306 0 0)
(297.529 0 0)
(297.74 0 0)
(297.941 0 0)
(298.131 0 0)
(298.31 0 0)
(298.478 0 0)
(298.634 0 0)
(298.78 0 0)
(298.914 0 0)
(299.037 0 0)
(299.149 0 0)
(299.249 0 0)
(299.338 0 0)
(299.415 0 0)
(299.48 0 0)
(299.534 0 0)
(299.575 0 0)
(299.605 0 0)
(299.622 0 0)
(299.628 0 0)
(299.62 0 0)
(299.601 0 0)
(299.568 0 0)
(299.525 0 0)
(299.463 0 0)
(299.405 0 0)
(299.285 0 0)
(272.981 0 0)
(273.702 0 0)
(274.413 0 0)
(275.113 0 0)
(275.804 0 0)
(276.484 0 0)
(277.155 0 0)
(277.815 0 0)
(278.466 0 0)
(279.106 0 0)
(279.737 0 0)
(280.358 0 0)
(280.969 0 0)
(281.57 0 0)
(282.162 0 0)
(282.744 0 0)
(283.316 0 0)
(283.878 0 0)
(284.431 0 0)
(284.974 0 0)
(285.507 0 0)
(286.03 0 0)
(286.544 0 0)
(287.048 0 0)
(287.543 0 0)
(288.028 0 0)
(288.503 0 0)
(288.969 0 0)
(289.425 0 0)
(289.871 0 0)
(290.308 0 0)
(290.735 0 0)
(291.152 0 0)
(291.56 0 0)
(291.958 0 0)
(292.346 0 0)
(292.724 0 0)
(293.093 0 0)
(293.452 0 0)
(293.802 0 0)
(294.141 0 0)
(294.471 0 0)
(294.791 0 0)
(295.101 0 0)
(295.401 0 0)
(295.691 0 0)
(295.971 0 0)
(296.242 0 0)
(296.502 0 0)
(296.752 0 0)
(296.993 0 0)
(297.223 0 0)
(297.443 0 0)
(297.653 0 0)
(297.852 0 0)
(298.042 0 0)
(298.221 0 0)
(298.39 0 0)
(298.548 0 0)
(298.696 0 0)
(298.833 0 0)
(298.96 0 0)
(299.076 0 0)
(299.181 0 0)
(299.275 0 0)
(299.359 0 0)
(299.432 0 0)
(299.494 0 0)
(299.544 0 0)
(299.584 0 0)
(299.612 0 0)
(299.629 0 0)
(299.634 0 0)
(299.628 0 0)
(299.61 0 0)
(299.581 0 0)
(299.536 0 0)
(299.493 0 0)
(299.398 0 0)
(273.817 0 0)
(274.504 0 0)
(275.181 0 0)
(275.848 0 0)
(276.507 0 0)
(277.156 0 0)
(277.796 0 0)
(278.426 0 0)
(279.048 0 0)
(279.66 0 0)
(280.263 0 0)
(280.857 0 0)
(281.441 0 0)
(282.017 0 0)
(282.583 0 0)
(283.141 0 0)
(283.689 0 0)
(284.228 0 0)
(284.758 0 0)
(285.279 0 0)
(285.791 0 0)
(286.294 0 0)
(286.788 0 0)
(287.273 0 0)
(287.749 0 0)
(288.216 0 0)
(288.673 0 0)
(289.122 0 0)
(289.562 0 0)
(289.992 0 0)
(290.413 0 0)
(290.826 0 0)
(291.229 0 0)
(291.623 0 0)
(292.008 0 0)
(292.384 0 0)
(292.751 0 0)
(293.108 0 0)
(293.457 0 0)
(293.796 0 0)
(294.126 0 0)
(294.446 0 0)
(294.758 0 0)
(295.06 0 0)
(295.353 0 0)
(295.637 0 0)
(295.911 0 0)
(296.176 0 0)
(296.431 0 0)
(296.677 0 0)
(296.913 0 0)
(297.14 0 0)
(297.358 0 0)
(297.566 0 0)
(297.764 0 0)
(297.953 0 0)
(298.131 0 0)
(298.301 0 0)
(298.46 0 0)
(298.61 0 0)
(298.749 0 0)
(298.879 0 0)
(298.999 0 0)
(299.109 0 0)
(299.208 0 0)
(299.298 0 0)
(299.377 0 0)
(299.446 0 0)
(299.505 0 0)
(299.553 0 0)
(299.591 0 0)
(299.618 0 0)
(299.634 0 0)
(299.64 0 0)
(299.635 0 0)
(299.62 0 0)
(299.59 0 0)
(299.561 0 0)
(299.487 0 0)
(274.614 0 0)
(275.268 0 0)
(275.914 0 0)
(276.55 0 0)
(277.178 0 0)
(277.797 0 0)
(278.408 0 0)
(279.01 0 0)
(279.604 0 0)
(280.189 0 0)
(280.766 0 0)
(281.334 0 0)
(281.893 0 0)
(282.444 0 0)
(282.987 0 0)
(283.521 0 0)
(284.047 0 0)
(284.564 0 0)
(285.073 0 0)
(285.573 0 0)
(286.065 0 0)
(286.548 0 0)
(287.023 0 0)
(287.489 0 0)
(287.947 0 0)
(288.396 0 0)
(288.837 0 0)
(289.27 0 0)
(289.693 0 0)
(290.109 0 0)
(290.515 0 0)
(290.914 0 0)
(291.303 0 0)
(291.684 0 0)
(292.057 0 0)
(292.421 0 0)
(292.776 0 0)
(293.123 0 0)
(293.461 0 0)
(293.79 0 0)
(294.111 0 0)
(294.423 0 0)
(294.726 0 0)
(295.021 0 0)
(295.306 0 0)
(295.583 0 0)
(295.851 0 0)
(296.111 0 0)
(296.361 0 0)
(296.603 0 0)
(296.835 0 0)
(297.059 0 0)
(297.274 0 0)
(297.479 0 0)
(297.676 0 0)
(297.864 0 0)
(298.042 0 0)
(298.211 0 0)
(298.371 0 0)
(298.522 0 0)
(298.664 0 0)
(298.796 0 0)
(298.919 0 0)
(299.033 0 0)
(299.137 0 0)
(299.231 0 0)
(299.317 0 0)
(299.392 0 0)
(299.458 0 0)
(299.514 0 0)
(299.56 0 0)
(299.597 0 0)
(299.623 0 0)
(299.64 0 0)
(299.646 0 0)
(299.643 0 0)
(299.627 0 0)
(299.61 0 0)
(299.557 0 0)
(275.375 0 0)
(275.998 0 0)
(276.613 0 0)
(277.22 0 0)
(277.819 0 0)
(278.41 0 0)
(278.993 0 0)
(279.569 0 0)
(280.136 0 0)
(280.695 0 0)
(281.247 0 0)
(281.79 0 0)
(282.326 0 0)
(282.854 0 0)
(283.374 0 0)
(283.886 0 0)
(284.39 0 0)
(284.886 0 0)
(285.375 0 0)
(285.855 0 0)
(286.327 0 0)
(286.792 0 0)
(287.248 0 0)
(287.697 0 0)
(288.138 0 0)
(288.57 0 0)
(288.995 0 0)
(289.412 0 0)
(289.821 0 0)
(290.221 0 0)
(290.614 0 0)
(290.999 0 0)
(291.375 0 0)
(291.744 0 0)
(292.104 0 0)
(292.456 0 0)
(292.801 0 0)
(293.137 0 0)
(293.465 0 0)
(293.785 0 0)
(294.096 0 0)
(294.4 0 0)
(294.695 0 0)
(294.982 0 0)
(295.261 0 0)
(295.531 0 0)
(295.793 0 0)
(296.047 0 0)
(296.292 0 0)
(296.53 0 0)
(296.758 0 0)
(296.978 0 0)
(297.19 0 0)
(297.394 0 0)
(297.588 0 0)
(297.775 0 0)
(297.952 0 0)
(298.122 0 0)
(298.282 0 0)
(298.434 0 0)
(298.577 0 0)
(298.711 0 0)
(298.837 0 0)
(298.954 0 0)
(299.062 0 0)
(299.161 0 0)
(299.251 0 0)
(299.332 0 0)
(299.404 0 0)
(299.467 0 0)
(299.521 0 0)
(299.566 0 0)
(299.601 0 0)
(299.627 0 0)
(299.644 0 0)
(299.652 0 0)
(299.648 0 0)
(299.642 0 0)
(299.607 0 0)
(276.1 0 0)
(276.694 0 0)
(277.281 0 0)
(277.86 0 0)
(278.431 0 0)
(278.996 0 0)
(279.553 0 0)
(280.102 0 0)
(280.645 0 0)
(281.18 0 0)
(281.708 0 0)
(282.228 0 0)
(282.741 0 0)
(283.247 0 0)
(283.745 0 0)
(284.236 0 0)
(284.719 0 0)
(285.196 0 0)
(285.664 0 0)
(286.126 0 0)
(286.58 0 0)
(287.026 0 0)
(287.465 0 0)
(287.897 0 0)
(288.321 0 0)
(288.738 0 0)
(289.147 0 0)
(289.549 0 0)
(289.943 0 0)
(290.33 0 0)
(290.709 0 0)
(291.08 0 0)
(291.445 0 0)
(291.801 0 0)
(292.15 0 0)
(292.491 0 0)
(292.825 0 0)
(293.15 0 0)
(293.469 0 0)
(293.779 0 0)
(294.082 0 0)
(294.377 0 0)
(294.665 0 0)
(294.944 0 0)
(295.216 0 0)
(295.48 0 0)
(295.736 0 0)
(295.985 0 0)
(296.225 0 0)
(296.458 0 0)
(296.682 0 0)
(296.899 0 0)
(297.108 0 0)
(297.309 0 0)
(297.502 0 0)
(297.686 0 0)
(297.863 0 0)
(298.032 0 0)
(298.192 0 0)
(298.345 0 0)
(298.489 0 0)
(298.625 0 0)
(298.753 0 0)
(298.872 0 0)
(298.983 0 0)
(299.086 0 0)
(299.181 0 0)
(299.267 0 0)
(299.344 0 0)
(299.413 0 0)
(299.474 0 0)
(299.526 0 0)
(299.57 0 0)
(299.604 0 0)
(299.63 0 0)
(299.648 0 0)
(299.655 0 0)
(299.659 0 0)
(299.64 0 0)
(276.792 0 0)
(277.359 0 0)
(277.918 0 0)
(278.471 0 0)
(279.016 0 0)
(279.555 0 0)
(280.088 0 0)
(280.613 0 0)
(281.132 0 0)
(281.644 0 0)
(282.149 0 0)
(282.647 0 0)
(283.138 0 0)
(283.623 0 0)
(284.101 0 0)
(284.572 0 0)
(285.035 0 0)
(285.493 0 0)
(285.943 0 0)
(286.386 0 0)
(286.822 0 0)
(287.252 0 0)
(287.674 0 0)
(288.089 0 0)
(288.498 0 0)
(288.899 0 0)
(289.294 0 0)
(289.681 0 0)
(290.061 0 0)
(290.434 0 0)
(290.801 0 0)
(291.16 0 0)
(291.512 0 0)
(291.856 0 0)
(292.194 0 0)
(292.524 0 0)
(292.848 0 0)
(293.164 0 0)
(293.472 0 0)
(293.774 0 0)
(294.068 0 0)
(294.355 0 0)
(294.635 0 0)
(294.907 0 0)
(295.173 0 0)
(295.43 0 0)
(295.681 0 0)
(295.924 0 0)
(296.159 0 0)
(296.387 0 0)
(296.608 0 0)
(296.821 0 0)
(297.027 0 0)
(297.225 0 0)
(297.416 0 0)
(297.599 0 0)
(297.774 0 0)
(297.942 0 0)
(298.102 0 0)
(298.255 0 0)
(298.4 0 0)
(298.537 0 0)
(298.666 0 0)
(298.788 0 0)
(298.902 0 0)
(299.008 0 0)
(299.106 0 0)
(299.197 0 0)
(299.279 0 0)
(299.354 0 0)
(299.42 0 0)
(299.479 0 0)
(299.53 0 0)
(299.572 0 0)
(299.606 0 0)
(299.633 0 0)
(299.65 0 0)
(299.663 0 0)
(299.658 0 0)
(277.453 0 0)
(277.993 0 0)
(278.527 0 0)
(279.055 0 0)
(279.576 0 0)
(280.091 0 0)
(280.599 0 0)
(281.102 0 0)
(281.598 0 0)
(282.088 0 0)
(282.571 0 0)
(283.049 0 0)
(283.519 0 0)
(283.984 0 0)
(284.442 0 0)
(284.894 0 0)
(285.339 0 0)
(285.778 0 0)
(286.21 0 0)
(286.636 0 0)
(287.055 0 0)
(287.468 0 0)
(287.875 0 0)
(288.275 0 0)
(288.668 0 0)
(289.055 0 0)
(289.435 0 0)
(289.808 0 0)
(290.175 0 0)
(290.536 0 0)
(290.889 0 0)
(291.236 0 0)
(291.576 0 0)
(291.91 0 0)
(292.237 0 0)
(292.557 0 0)
(292.87 0 0)
(293.176 0 0)
(293.476 0 0)
(293.769 0 0)
(294.055 0 0)
(294.334 0 0)
(294.606 0 0)
(294.872 0 0)
(295.13 0 0)
(295.382 0 0)
(295.626 0 0)
(295.864 0 0)
(296.094 0 0)
(296.318 0 0)
(296.535 0 0)
(296.744 0 0)
(296.947 0 0)
(297.142 0 0)
(297.33 0 0)
(297.511 0 0)
(297.685 0 0)
(297.852 0 0)
(298.012 0 0)
(298.165 0 0)
(298.31 0 0)
(298.448 0 0)
(298.579 0 0)
(298.702 0 0)
(298.818 0 0)
(298.927 0 0)
(299.029 0 0)
(299.123 0 0)
(299.21 0 0)
(299.289 0 0)
(299.361 0 0)
(299.425 0 0)
(299.482 0 0)
(299.531 0 0)
(299.573 0 0)
(299.608 0 0)
(299.634 0 0)
(299.654 0 0)
(299.663 0 0)
(278.084 0 0)
(278.6 0 0)
(279.109 0 0)
(279.613 0 0)
(280.111 0 0)
(280.603 0 0)
(281.089 0 0)
(281.57 0 0)
(282.044 0 0)
(282.513 0 0)
(282.976 0 0)
(283.433 0 0)
(283.885 0 0)
(284.33 0 0)
(284.769 0 0)
(285.203 0 0)
(285.63 0 0)
(286.051 0 0)
(286.467 0 0)
(286.876 0 0)
(287.28 0 0)
(287.677 0 0)
(288.068 0 0)
(288.453 0 0)
(288.832 0 0)
(289.204 0 0)
(289.571 0 0)
(289.931 0 0)
(290.285 0 0)
(290.633 0 0)
(290.975 0 0)
(291.31 0 0)
(291.639 0 0)
(291.962 0 0)
(292.278 0 0)
(292.588 0 0)
(292.891 0 0)
(293.189 0 0)
(293.48 0 0)
(293.764 0 0)