/*--------------------------------*- C++ -*----------------------------------*\
| =========                 |                                                 |
| \\      /  F ield         | OpenFOAM: The Open Source CFD Toolbox           |
|  \\    /   O peration     | Version:  2312                                  |
|   \\  /    A nd           | Website:  www.openfoam.com                      |
|    \\/     M anipulation  |                                                 |
\*---------------------------------------------------------------------------*/
FoamFile
{
    version     2.0;
    format      ascii;
    arch        "LSB;label=32;scalar=64";
    class       surfaceScalarField;
    location    "0.986";
    object      phi;
}
// * * * * * * * * * * * * * * * * * * * * * * * * * * * * * * * * * * * * * //

dimensions      [0 3 -1 0 0 0 0];

oriented        oriented;

internalField   nonuniform List<scalar> 
62015
(
88.9214
0.173462
-88.949
88.8854
0.170162
88.8414
0.166763
88.7894
0.163269
88.7296
0.159681
88.6624
0.156003
88.5878
0.152238
88.506
0.148387
88.4171
0.144455
88.3212
0.140444
88.2185
0.136357
88.109
0.132197
87.9928
0.127967
87.8699
0.123671
87.7404
0.11931
87.6042
0.114889
87.4614
0.110412
87.312
0.10588
87.1559
0.101298
86.9931
0.096669
86.8233
0.0919967
86.6467
0.087284
86.463
0.082535
86.272
0.0777534
86.0737
0.0729425
85.8677
0.0681066
85.6539
0.0632487
85.4319
0.0583735
85.2015
0.0534846
84.9624
0.0485859
84.7141
0.0436812
84.4562
0.0387752
84.1883
0.0338723
83.9098
0.0289758
83.6201
0.0240913
83.3186
0.0192221
83.0046
0.0143737
82.6772
0.00955088
82.3356
0.00475762
81.9787
0
81.6054
-0.00471722
81.2144
-0.00938905
80.8043
-0.0140089
80.3733
-0.0185715
79.9197
-0.0230708
79.4411
-0.0274992
78.9351
-0.0318508
78.3987
-0.0361167
77.8283
-0.0402896
77.2192
-0.04436
76.5667
-0.0483169
75.8671
-0.0521489
75.1106
-0.0558449
74.2666
-0.0593878
73.3095
-0.0627375
72.3334
-0.0658543
71.5337
-0.0688258
70.4716
-0.0718778
66.998
-0.0745057
58.8307
-0.0739566
47.7834
-0.0670395
38.7378
-0.0560808
33.8692
-0.0474893
31.9425
-0.0437183
31.3556
-0.0431554
31.2839
-0.0440257
31.4084
-0.0454562
31.6146
-0.0471081
31.8603
-0.0488564
32.1288
-0.0506534
32.4126
-0.0524794
32.7079
-0.0543247
33.0125
-0.0561847
33.3254
-0.0580544
33.6438
-0.0599348
33.9727
-0.0618132
34.2936
-0.0637195
34.6615
-0.065553
-0.0676217
34.9059
86.3895
0.342267
-86.4322
86.3396
0.335697
86.2826
0.328937
86.2187
0.321994
86.148
0.314872
86.0707
0.307576
85.987
0.300112
85.897
0.292486
85.8007
0.284702
85.6984
0.276765
85.59
0.268684
85.4756
0.260461
85.3554
0.252105
85.2293
0.243619
85.0974
0.235012
84.9597
0.226288
84.8161
0.217455
84.6666
0.208518
84.5113
0.199484
84.35
0.19036
84.1826
0.181152
84.0092
0.171868
83.8294
0.162513
83.6433
0.153095
83.4505
0.143621
83.2511
0.134099
83.0446
0.124535
82.8309
0.114937
82.6098
0.105312
82.3808
0.0956695
82.1437
0.0860153
81.8981
0.0763582
81.6435
0.066706
81.3795
0.0570676
81.1055
0.0474505
80.821
0.0378639
80.5253
0.0283163
80.2178
0.0188168
79.8975
0.00937491
79.5637
0
79.2153
-0.00929806
78.8512
-0.018509
78.4701
-0.0276225
78.0706
-0.0366271
77.651
-0.0455111
77.2096
-0.0542624
76.744
-0.0628673
76.2519
-0.0713127
75.7303
-0.0795827
75.1754
-0.0876609
74.5827
-0.095528
73.9482
-0.103164
73.2681
-0.110545
72.5285
-0.11765
71.6953
-0.124435
70.7623
-0.130808
69.8693
-0.136727
69.156
-0.142496
67.8243
-0.148476
63.4111
-0.152648
54.3799
-0.148234
43.7148
-0.13062
35.9624
-0.108214
32.1584
-0.0932349
30.749
-0.0876465
30.3591
-0.0874424
30.3541
-0.0895015
30.4972
-0.0924318
30.7039
-0.0957095
30.9426
-0.0991414
31.2005
-0.102653
31.4719
-0.106213
31.7535
-0.109806
32.044
-0.11342
32.3404
-0.117056
32.6473
-0.120689
32.9473
-0.124375
33.2913
-0.127925
-0.131915
33.5229
83.9195
0.506474
-83.9757
83.8572
0.49667
83.7886
0.486593
83.714
0.476252
83.6335
0.465652
83.5473
0.454802
83.4554
0.443709
83.3581
0.432382
83.2553
0.420828
83.1472
0.409054
83.0338
0.39707
82.9153
0.384883
82.7916
0.372502
82.6627
0.359936
82.5287
0.347193
82.3897
0.334283
82.2455
0.321214
82.0962
0.307996
81.9416
0.294638
81.7819
0.281149
81.6168
0.26754
81.4463
0.253819
81.2703
0.239998
81.0886
0.226086
80.9012
0.212093
80.7077
0.19803
80.5081
0.183907
80.302
0.169734
80.0894
0.155524
79.8697
0.141287
79.6429
0.127034
79.4085
0.112776
79.1661
0.0985254
78.9153
0.0842941
78.6556
0.0700935
78.3865
0.0559367
78.1075
0.041836
77.818
0.0278037
77.5171
0.0138539
77.2041
0
76.8781
-0.0137441
76.5382
-0.0273639
76.1832
-0.0408447
75.8118
-0.0541699
75.4228
-0.0673238
75.0144
-0.0802893
74.5848
-0.0930474
74.1319
-0.105579
73.6532
-0.117864
73.1458
-0.129878
72.6058
-0.141598
72.0289
-0.152994
71.4118
-0.164034
70.7497
-0.174688
70.0239
-0.184919
69.2
-0.194643
68.3013
-0.203712
67.5062
-0.212168
66.8293
-0.220658
65.043
-0.229284
59.5648
-0.233034
49.9082
-0.220547
39.9702
-0.189332
33.5474
-0.15667
30.6592
-0.137925
29.6575
-0.132127
29.4169
-0.132919
29.4609
-0.136358
29.6165
-0.140809
29.8215
-0.145667
30.0527
-0.150711
30.3002
-0.155851
30.5594
-0.161052
30.8283
-0.16629
31.1037
-0.171562
31.3895
-0.176834
31.6697
-0.182179
31.9907
-0.187336
-0.193107
32.2094
81.5074
0.666129
-81.5751
81.4342
0.653135
81.3556
0.639791
81.2719
0.626107
81.183
0.612092
81.0891
0.597757
80.9903
0.583109
80.8868
0.56816
80.7785
0.552919
80.6656
0.537396
80.5482
0.521604
80.4262
0.505551
80.2997
0.489249
80.1687
0.472709
80.0333
0.455942
79.8934
0.43896
79.749
0.421775
79.6002
0.404398
79.4468
0.386841
79.2888
0.369116
79.1261
0.351237
78.9587
0.333215
78.7865
0.315063
78.6092
0.296795
78.4269
0.278423
78.2392
0.25996
78.0461
0.241421
77.8474
0.222819
77.6428
0.204168
77.432
0.185482
77.2148
0.166775
76.9908
0.148063
76.7598
0.12936
76.5213
0.110681
76.275
0.0920409
76.0202
0.0734568
75.7567
0.0549438
75.4837
0.036519
75.2006
0.0181985
74.9067
0
74.6014
-0.0180589
74.2836
-0.0359598
73.9524
-0.0536838
73.6068
-0.0712108
73.2455
-0.0885214
72.867
-0.105593
72.4699
-0.122403
72.0523
-0.138928
71.612
-0.155142
71.1467
-0.171017
70.6534
-0.186524
70.1282
-0.201628
69.5671
-0.216291
68.9674
-0.230473
68.3224
-0.244133
67.6081
-0.257215
66.7954
-0.269577
65.9459
-0.281036
65.2555
-0.291848
64.5344
-0.303043
62.1151
-0.31366
55.5751
-0.31406
45.639
-0.2892
36.6877
-0.243186
31.5069
-0.202629
29.3534
-0.18243
28.6559
-0.177478
28.5231
-0.179616
28.6013
-0.184512
28.7639
-0.19046
28.9656
-0.196836
29.1887
-0.203411
29.4258
-0.210093
29.6737
-0.216837
29.9289
-0.22363
30.1945
-0.230427
30.4558
-0.237319
30.7552
-0.243975
-0.251401
30.9608
79.1516
0.821281
-79.2292
79.0693
0.805148
78.9823
0.788594
78.8908
0.771629
78.7948
0.754266
78.6946
0.736516
78.5901
0.71839
78.4815
0.6999
78.3688
0.68106
78.2521
0.66188
78.1314
0.642374
78.0068
0.622555
77.8782
0.602435
77.7458
0.582029
77.6096
0.561349
77.4695
0.54041
77.3254
0.519225
77.1775
0.49781
77.0256
0.476177
76.8697
0.454343
76.7097
0.432322
76.5456
0.41013
76.3772
0.38778
76.2044
0.36529
76.0272
0.342676
75.8453
0.319952
75.6586
0.297136
75.467
0.274244
75.2701
0.251292
75.0678
0.228299
74.8598
0.20528
74.6459
0.182255
74.4257
0.15924
74.1989
0.136254
73.9651
0.113314
73.7238
0.0904412
73.4747
0.0676537
73.2172
0.0449707
72.9508
0.0224125
72.6748
0
72.3885
-0.0222459
72.0913
-0.0443038
71.7821
-0.0661509
71.4602
-0.0877638
71.1243
-0.109119
70.7734
-0.130191
70.4059
-0.150953
70.0205
-0.171378
69.6151
-0.191435
69.1879
-0.211094
68.7363
-0.23032
68.2574
-0.249074
67.7474
-0.267317
67.2027
-0.284998
66.6208
-0.302069
65.9923
-0.318482
65.2887
-0.334149
64.4933
-0.348859
63.7083
-0.362443
63.1133
-0.375523
62.2493
-0.389374
59.0817
-0.400807
51.6355
-0.394317
41.7868
-0.353641
33.9339
-0.293333
29.8111
-0.247485
28.2102
-0.227439
27.7288
-0.223886
27.6703
-0.227504
27.7705
-0.233852
27.9359
-0.241243
28.1327
-0.249062
28.3473
-0.257085
28.5746
-0.265212
28.8101
-0.273413
29.0564
-0.281625
29.2994
-0.289954
29.5783
-0.298009
-0.306967
29.7711
76.8519
0.971991
-76.9378
76.7619
0.952775
76.6679
0.93307
76.5699
0.912891
76.4682
0.89225
76.3627
0.871161
76.2536
0.849637
76.141
0.827692
76.0248
0.80534
75.9051
0.782595
75.7821
0.759472
75.6556
0.735985
75.5258
0.712152
75.3927
0.687986
75.2562
0.663503
75.1163
0.63872
74.9731
0.613652
74.8265
0.588317
74.6765
0.56273
74.523
0.53691
74.3659
0.510873
74.2053
0.484638
74.0409
0.458221
73.8727
0.431641
73.7006
0.404916
73.5245
0.378065
73.3441
0.351107
73.1594
0.324061
72.9701
0.296946
72.776
0.269782
72.5769
0.242589
72.3726
0.215387
72.1627
0.188197
71.947
0.161039
71.7251
0.133935
71.4966
0.106907
71.2611
0.0799771
71.0182
0.0531672
70.7674
0.0265002
70.5081
0
70.2397
-0.0263094
69.9616
-0.0524035
69.6729
-0.0782564
69.3729
-0.103842
69.0606
-0.129133
68.735
-0.154102
68.3948
-0.178717
68.0388
-0.202949
67.6654
-0.226765
67.2728
-0.250128
66.859
-0.273003
66.4217
-0.295347
65.9576
-0.317117
65.4633
-0.338261
64.9358
-0.358723
64.3722
-0.378446
63.7597
-0.397372
63.0678
-0.415369
62.2977
-0.432152
61.5884
-0.447654
61.0647
-0.462984
59.9629
-0.47931
56.0157
-0.489872
47.9056
-0.47287
38.4377
-0.414258
31.6627
-0.341243
28.3898
-0.292307
27.1913
-0.27334
26.8603
-0.271399
26.8518
-0.276504
26.9653
-0.284253
27.1304
-0.293012
27.3211
-0.302193
27.5274
-0.311569
27.7436
-0.32106
27.9712
-0.33058
28.1966
-0.340239
28.4559
-0.349594
-0.359966
28.6363
74.6081
1.11833
-74.7009
74.5117
1.09609
74.4119
1.0733
74.3087
1.04997
74.2023
1.02613
74.0927
1.00178
73.98
0.976937
73.8642
0.951621
73.7454
0.925847
73.6236
0.899629
73.4989
0.872986
73.3713
0.845933
73.2409
0.818488
73.1075
0.790668
72.9713
0.762491
72.8322
0.733975
72.6903
0.705139
72.5454
0.676001
72.3976
0.646579
72.2467
0.616894
72.0929
0.586965
71.9359
0.556812
71.7756
0.526454
71.6121
0.495912
71.4452
0.465206
71.2748
0.434359
71.1006
0.40339
70.9227
0.372321
70.7408
0.341175
70.5547
0.309973
70.3642
0.278738
70.169
0.247492
69.9691
0.216259
69.7639
0.185061
69.5533
0.153925
69.3369
0.122871
69.1143
0.091927
68.8852
0.0611163
68.6491
0.0304655
68.4054
0
68.1538
-0.0302531
67.8935
-0.060266
67.6238
-0.0900111
67.3442
-0.119459
67.0537
-0.14858
66.7515
-0.177342
66.4365
-0.205714
66.1076
-0.233662
65.7634
-0.261149
65.4024
-0.288138
65.023
-0.31459
64.6231
-0.340459
64.2003
-0.365701
63.7517
-0.390263
63.2737
-0.414085
62.7641
-0.437102
62.2192
-0.459254
61.6226
-0.480466
60.9444
-0.500549
60.208
-0.519157
59.5795
-0.536428
59.0933
-0.554019
57.6822
-0.572448
53.0017
-0.580111
44.4904
-0.549399
35.5884
-0.472035
29.7882
-0.388262
27.1742
-0.337782
26.265
-0.320301
26.0382
-0.31998
26.0628
-0.326509
26.1837
-0.335581
26.3462
-0.345627
26.5304
-0.356076
26.7272
-0.366727
26.9363
-0.377443
27.1447
-0.388325
27.3852
-0.398884
-0.410558
27.5536
72.4199
1.26036
-72.5185
72.3184
1.23516
72.2139
1.20936
72.1066
1.18296
71.9965
1.15598
71.8836
1.12845
71.7681
1.10038
71.6501
1.07178
71.5294
1.04267
71.4062
1.01308
71.2806
0.983008
71.1525
0.952487
71.0219
0.921533
70.8889
0.890165
70.7534
0.858401
70.6156
0.826263
70.4752
0.79377
70.3324
0.760944
70.187
0.727804
70.0391
0.694373
69.8886
0.660671
69.7354
0.626722
69.5794
0.592546
69.4206
0.558167
69.2589
0.523606
69.0941
0.488888
68.9261
0.454036
68.7548
0.419074
68.5801
0.384024
68.4017
0.348913
68.2194
0.313764
68.0332
0.278603
67.8426
0.243455
67.6476
0.208345
67.4477
0.173301
67.2428
0.138348
67.0324
0.103514
66.8163
0.0688257
66.594
0.0343115
66.365
0
66.129
-0.0340797
65.8854
-0.0678979
65.6335
-0.101424
65.3728
-0.134626
65.1026
-0.167473
64.822
-0.199929
64.5302
-0.231962
64.2261
-0.263534
63.9087
-0.294608
63.5767
-0.325143
63.2285
-0.355098
62.8626
-0.384426
62.477
-0.413081
62.0692
-0.441008
61.6364
-0.468149
61.1754
-0.494437
60.6842
-0.519798
60.1582
-0.544168
59.5778
-0.567454
58.9163
-0.589394
58.2206
-0.609611
57.6715
-0.628552
57.1879
-0.648402
55.4303
-0.668376
50.1203
-0.671039
41.4435
-0.624199
33.191
-0.528245
28.2246
-0.435468
26.1105
-0.384302
25.4084
-0.368356
25.2538
-0.369548
25.3001
-0.377398
25.4241
-0.387702
25.5828
-0.398941
25.7592
-0.410583
25.9498
-0.422368
26.1415
-0.434365
26.3637
-0.446031
-0.458896
26.5206
70.2873
1.39817
-70.3904
70.1816
1.37008
70.0734
1.34133
69.9628
1.31193
69.8498
1.28191
69.7346
1.25128
69.6171
1.22005
69.4975
1.18826
69.3756
1.15591
69.2517
1.12302
69.1256
1.08963
68.9975
1.05574
68.8673
1.02138
68.7351
0.986563
68.6008
0.951319
68.4645
0.915667
68.3261
0.879628
68.1856
0.843225
68.043
0.806481
67.8982
0.76942
67.7511
0.732064
67.6018
0.694436
67.4502
0.656563
67.2961
0.618468
67.1395
0.580175
66.9803
0.54171
66.8184
0.503097
66.6536
0.464365
66.4858
0.425537
66.3149
0.386641
66.1406
0.347703
65.9629
0.308751
65.7814
0.269812
65.5959
0.230914
65.4063
0.192085
65.2123
0.153354
65.0134
0.11475
64.8095
0.0763028
64.6002
0.0380425
64.3851
0
64.1637
-0.0377935
63.9356
-0.0753063
63.7003
-0.112505
63.4573
-0.149357
63.2058
-0.185827
62.9453
-0.22188
62.6749
-0.257479
62.3937
-0.292585
62.1009
-0.32716
61.7953
-0.361161
61.4757
-0.394544
61.1406
-0.427264
60.7885
-0.459269
60.4174
-0.490506
60.025
-0.520918
59.6084
-0.550437
59.1648
-0.57899
58.6926
-0.606497
58.1857
-0.632891
57.6221
-0.65805
56.9806
-0.681638
56.3304
-0.703281
55.8541
-0.723821
55.3439
-0.745886
53.241
-0.766734
47.4377
-0.762531
38.78
-0.698074
31.1815
-0.584232
26.8999
-0.48368
25.1601
-0.432077
24.6059
-0.417473
24.5013
-0.419999
24.5612
-0.429047
24.6858
-0.44048
24.8389
-0.452834
25.0103
-0.465526
25.1851
-0.478513
25.3896
-0.491188
-0.505131
25.5352
68.2096
1.53185
-68.3164
68.1007
1.50094
67.9896
1.46931
67.8766
1.43699
67.7616
1.40399
67.6447
1.37034
67.5259
1.33605
67.4052
1.30114
67.2828
1.26564
67.1586
1.22957
67.0327
1.19294
66.9051
1.15578
66.7757
1.11811
66.6446
1.07995
66.5119
1.04133
66.3774
1.00227
66.2412
0.962792
66.1033
0.922923
65.9635
0.882687
65.822
0.842108
65.6786
0.801211
65.5333
0.760023
65.386
0.718569
65.2367
0.676874
65.0852
0.634968
64.9315
0.592875
64.7755
0.550623
64.617
0.508241
64.456
0.465755
64.2923
0.423195
64.1257
0.380589
63.9561
0.337966
63.7833
0.295356
63.607
0.252788
63.4271
0.210293
63.2433
0.167902
63.0554
0.125645
62.8631
0.0835541
62.666
0.0416614
62.4638
0
62.2562
-0.0413972
62.0426
-0.0824968
61.8228
-0.123264
61.5961
-0.163662
61.3621
-0.203657
61.1201
-0.243209
60.8695
-0.282281
60.6094
-0.320834
60.3392
-0.358825
60.0578
-0.396211
59.7642
-0.432948
59.4572
-0.468988
59.1354
-0.50428
58.7973
-0.538769
58.441
-0.572398
58.0643
-0.605103
57.6642
-0.636812
57.2385
-0.667442
56.7855
-0.69691
56.298
-0.725146
55.7523
-0.751993
55.1337
-0.777041
54.531
-0.799958
54.1182
-0.822037
53.5641
-0.846218
51.1519
-0.867277
45.0016
-0.854854
36.4899
-0.772206
29.4963
-0.641309
25.7592
-0.533518
24.2958
-0.481215
23.847
-0.467587
23.7766
-0.471224
23.8448
-0.48133
23.9671
-0.493802
24.1168
-0.507124
24.2742
-0.52094
24.4609
-0.534509
-0.549416
24.5956
66.1864
1.66148
-66.2959
66.075
1.62781
65.9619
1.59339
65.8471
1.55822
65.7307
1.52233
65.6127
1.48574
65.4932
1.44847
65.3722
1.41054
65.2497
1.37197
65.1257
1.33279
65.0004
1.29303
64.8736
1.25269
64.7454
1.21181
64.6159
1.17041
64.4849
1.12852
64.3526
1.08615
64.2188
1.04334
64.0836
1.00012
63.9469
0.956495
63.8088
0.912509
63.6691
0.868183
63.5278
0.823546
63.3849
0.778624
63.2403
0.733447
63.0939
0.688041
62.9456
0.642436
62.7954
0.596661
62.6431
0.550745
62.4887
0.504719
62.3319
0.458612
62.1727
0.412454
62.0109
0.366277
61.8463
0.320112
61.6788
0.27399
61.5082
0.227944
61.3342
0.182006
61.1566
0.136209
60.9751
0.0905868
60.7895
0.0451721
60.5995
0
60.4047
-0.0448946
60.2048
-0.0894762
59.9993
-0.133708
59.7879
-0.177554
59.5701
-0.220975
59.3453
-0.263933
59.1129
-0.306388
58.8723
-0.348298
58.6228
-0.389622
58.3636
-0.430314
58.0938
-0.470329
57.8124
-0.509618
57.5181
-0.54813
57.2098
-0.585811
56.8859
-0.622602
56.5446
-0.658441
56.1837
-0.69326
55.8005
-0.72698
55.3929
-0.759511
54.9594
-0.79077
54.4916
-0.820679
53.965
-0.849047
53.3717
-0.875391
52.8157
-0.899453
52.4563
-0.923
51.8554
-0.949149
49.1984
-0.969911
42.8416
-0.948634
34.5491
-0.848027
28.0796
-0.700733
24.7615
-0.585493
23.4991
-0.531785
23.1243
-0.51863
23.0771
-0.523111
23.1487
-0.534142
23.27
-0.547491
23.4078
-0.561857
23.5763
-0.576164
-0.591904
23.6999
64.2169
1.78715
-64.3286
64.1039
1.7508
63.9893
1.71365
63.8735
1.67571
63.7562
1.637
63.6378
1.59756
63.518
1.55739
63.3971
1.51652
63.2749
1.47498
63.1517
1.4328
63.0272
1.38998
62.9017
1.34656
62.775
1.30257
62.6472
1.25803
62.5183
1.21296
62.3883
1.16739
62.2572
1.12136
62.1249
1.07487
61.9914
1.02798
61.8568
0.980691
61.7208
0.933046
61.5836
0.885069
61.4451
0.836791
61.3052
0.78824
61.1638
0.739448
61.0208
0.690444
60.8762
0.641258
60.73
0.591922
60.5818
0.542468
60.4318
0.492927
60.2797
0.443331
60.1254
0.393713
59.9687
0.344105
59.8095
0.294542
59.6476
0.245056
59.4829
0.195682
59.315
0.146454
59.1438
0.0974072
58.9691
0.0485773
58.7905
0
58.6077
-0.0482881
58.4205
-0.0962499
58.2285
-0.143848
58.0313
-0.191043
57.8285
-0.237796
57.6196
-0.284067
57.4041
-0.329815
57.1815
-0.374997
56.9511
-0.419571
56.7122
-0.463489
56.4642
-0.506706
56.206
-0.549173
55.9368
-0.590838
55.6555
-0.631647
55.3607
-0.671542
55.0511
-0.710462
54.7249
-0.74834
54.3799
-0.785103
54.0138
-0.820667
53.6245
-0.854938
53.2107
-0.887829
52.7631
-0.919258
52.257
-0.948997
51.6905
-0.976497
51.1781
-1.00159
50.8629
-1.02651
50.2268
-1.05445
47.4088
-1.07469
40.972
-1.04477
32.9288
-0.927116
26.8865
-0.763742
23.8782
-0.640097
22.7572
-0.583864
22.4333
-0.570536
22.4
-0.575576
22.4747
-0.587316
22.5866
-0.601602
22.7349
-0.616371
-0.632766
22.8469
62.3006
1.90896
-62.4136
62.1864
1.87
62.071
1.83019
61.9546
1.78956
61.8371
1.74812
61.7186
1.70589
61.5991
1.66291
61.4786
1.6192
61.3573
1.57477
61.235
1.52966
61.1118
1.48389
60.9878
1.43749
60.8629
1.39048
60.7371
1.34289
60.6105
1.29474
60.483
1.24607
60.3547
1.19691
60.2254
1.14728
60.0952
1.0972
59.9641
1.04672
59.832
0.995864
59.6989
0.944654
59.5647
0.893127
59.4294
0.841312
59.2929
0.789241
59.1552
0.736946
59.0161
0.684459
58.8756
0.631813
58.7337
0.579041
58.5901
0.526175
58.4448
0.47325
58.2976
0.4203
58.1485
0.367359
57.9973
0.314462
57.8437
0.261644
57.6877
0.208941
57.5291
0.156388
57.3676
0.104022
57.203
0.0518803
57.0351
0
56.8637
-0.051581
56.6884
-0.102824
56.5089
-0.153691
56.3249
-0.204141
56.136
-0.254133
55.9419
-0.303627
55.742
-0.352581
55.5359
-0.40095
55.3231
-0.44869
55.103
-0.495756
54.8748
-0.5421
54.6379
-0.587672
54.3915
-0.632422
54.1346
-0.676295
53.8662
-0.719234
53.585
-0.761178
53.2897
-0.802063
52.9787
-0.841818
52.6499
-0.880367
52.3008
-0.917621
51.9301
-0.95348
51.5361
-0.987858
51.1091
-1.02067
50.6247
-1.05164
50.0856
-1.08019
49.612
-1.10621
49.3338
-1.13235
48.686
-1.16192
45.8023
-1.18177
39.3957
-1.14431
31.6014
-1.01114
25.8833
-0.831634
23.0891
-0.697898
22.0621
-0.63758
21.7699
-0.62329
21.7463
-0.628478
21.8151
-0.64092
21.9372
-0.655485
-0.672222
22.036
60.4365
2.02699
-60.5504
60.3217
1.9855
60.2061
1.94311
60.0895
1.89986
59.9722
1.85576
59.8541
1.81084
59.7352
1.76513
59.6156
1.71865
59.4954
1.67142
59.3744
1.62348
59.2528
1.57484
59.1305
1.52554
59.0076
1.47561
58.8841
1.42506
58.7599
1.37394
58.6351
1.32227
58.5096
1.27007
58.3835
1.21739
58.2567
1.16425
58.1292
1.11067
58.0009
1.0567
57.8718
1.00236
57.742
0.947689
57.6112
0.892714
57.4796
0.83747
57.3469
0.78199
57.2132
0.726308
57.0784
0.670458
56.9423
0.614474
56.805
0.55839
56.6662
0.502243
56.5259
0.446067
56.384
0.389897
56.2403
0.333771
56.0947
0.277725
55.947
0.221796
55.7971
0.166021
55.6447
0.110437
55.4897
0.0550843
55.3319
0
55.171
-0.0547764
55.0068
-0.109205
54.839
-0.163246
54.6674
-0.216858
54.4915
-0.269999
54.311
-0.322628
54.1256
-0.374701
53.9348
-0.426174
53.7382
-0.477
53.5352
-0.527136
53.3253
-0.576531
53.1078
-0.625138
52.8822
-0.672903
52.6475
-0.719774
52.4028
-0.765694
52.1473
-0.810604
51.8797
-0.85444
51.5988
-0.897136
51.303
-0.938617
50.9903
-0.978805
50.6585
-1.0176
50.3062
-1.05491
49.9321
-1.09065
49.5262
-1.12471
49.0649
-1.15681
48.5529
-1.1863
48.112
-1.21316
47.8652
-1.24034
47.2368
-1.27136
44.3874
-1.29135
38.108
-1.24835
30.544
-1.10183
25.047
-0.90587
22.3818
-0.759633
21.4076
-0.693184
21.1339
-0.676847
21.1087
-0.681918
21.1877
-0.69433
-0.710643
21.2684
58.6238
2.14135
-58.738
58.5089
2.09739
58.3934
2.05249
58.2772
2.0067
58.1604
1.96002
58.0431
1.91249
57.9252
1.86413
57.8068
1.81496
57.6879
1.76502
57.5685
1.71433
57.4487
1.66292
57.3284
1.61082
57.2077
1.55805
57.0865
1.50464
56.9649
1.45064
56.8429
1.39605
56.7204
1.34093
56.5975
1.28529
56.4741
1.22917
56.3502
1.1726
56.2258
1.11562
56.1008
1.05825
55.9752
1.00053
55.8489
0.942499
55.722
0.884185
55.5943
0.825623
55.4658
0.766848
55.3364
0.707896
55.2061
0.648803
55.0747
0.589604
54.9423
0.530337
54.8085
0.471037
54.6735
0.411742
54.5369
0.352488
54.3988
0.293315
54.259
0.23426
54.1173
0.175362
53.9736
0.116659
53.8276
0.0581923
53.6793
0
53.5283
-0.0578769
53.3745
-0.115398
53.2176
-0.172521
53.0574
-0.229205
52.8936
-0.285407
52.7258
-0.341084
52.5538
-0.396192
52.3771
-0.450686
52.1954
-0.504521
52.0082
-0.557648
51.815
-0.61002
51.6153
-0.661589
51.4086
-0.712301
51.194
-0.762104
50.971
-0.810942
50.7386
-0.858757
50.496
-0.905488
50.2419
-0.951069
49.9753
-0.99543
49.6946
-1.0385
49.3981
-1.08018
49.0834
-1.1204
48.7496
-1.15903
48.3954
-1.19599
48.0111
-1.23119
47.5738
-1.26433
47.0884
-1.2947
46.6738
-1.32229
46.4533
-1.3503
45.8776
-1.38259
43.1617
-1.40355
37.0989
-1.35783
29.741
-1.20091
24.3651
-0.988161
21.7492
-0.82636
20.7927
-0.751022
20.5186
-0.731456
20.5024
-0.735351
-0.748923
20.5506
56.8616
2.25212
-56.9756
56.747
2.20576
56.632
2.15844
56.5165
2.11018
56.4006
2.061
56.2843
2.01093
56.1677
1.96
56.0507
1.90824
55.9334
1.85566
55.8159
1.80231
55.698
1.74821
55.5799
1.69339
55.4616
1.63788
55.3429
1.5817
55.2241
1.5249
55.1049
1.4675
54.9855
1.40953
54.8658
1.35104
54.7459
1.29204
54.6256
1.23257
54.505
1.17267
54.384
1.11237
54.2626
1.05171
54.1408
0.990719
54.0184
0.929432
53.8956
0.867887
53.7722
0.80612
53.6481
0.744166
53.5233
0.682064
53.3977
0.61985
53.2712
0.557561
53.1437
0.495236
53.0152
0.432914
52.8855
0.370631
52.7546
0.308429
52.6222
0.246345
52.4883
0.18442
52.3526
0.122694
52.2152
0.0612069
52.0757
0
51.934
-0.0608855
51.7899
-0.121407
51.6433
-0.181524
51.4937
-0.241193
51.3411
-0.300369
51.1851
-0.359011
51.0255
-0.417071
50.8619
-0.474507
50.6939
-0.53127
50.5212
-0.587313
50.3434
-0.642589
50.16
-0.697048
49.9705
-0.750637
49.7744
-0.803306
49.5709
-0.854998
49.3595
-0.905657
49.1392
-0.955223
48.9093
-1.00363
48.6687
-1.05082
48.4163
-1.09671
48.1507
-1.14123
47.8702
-1.18429
47.5727
-1.22579
47.2572
-1.26563
46.9227
-1.30371
46.5603
-1.33995
46.148
-1.37404
45.6885
-1.40524
45.2937
-1.43348
45.0939
-1.46207
44.6007
-1.4954
42.1121
-1.51835
36.3547
-1.47343
29.1844
-1.31003
23.8341
-1.08059
21.1917
-0.899513
20.2121
-0.811917
19.9358
-0.786854
-0.789845
19.9065
55.1489
2.3594
-55.2624
55.035
2.31072
54.9208
2.26104
54.8063
2.21039
54.6916
2.15878
54.5766
2.10626
54.4615
2.05284
54.3462
1.99855
54.2308
1.94343
54.1152
1.8875
53.9995
1.83079
53.8837
1.77334
53.7678
1.71517
53.6519
1.65631
53.5358
1.59681
53.4196
1.53668
53.3033
1.47597
53.1869
1.4147
53.0704
1.35292
52.9537
1.29065
52.8369
1.22793
52.7199
1.16479
52.6026
1.10128
52.4851
1.03742
52.3673
0.973259
52.2492
0.908827
52.1306
0.844164
52.0117
0.779305
51.8922
0.714289
51.7721
0.649156
51.6514
0.583943
51.5299
0.518689
51.4077
0.453434
51.2845
0.388218
51.1603
0.323081
51.0349
0.258063
50.9084
0.193204
50.7804
0.128546
50.6509
0.0641312
50.5198
0
50.3868
-0.0638047
50.2519
-0.12724
50.1147
-0.190263
49.9751
-0.252831
49.8329
-0.314898
49.6879
-0.376421
49.5397
-0.437354
49.3881
-0.497652
49.2329
-0.557266
49.0736
-0.616151
48.9099
-0.674258
48.7414
-0.731536
48.5677
-0.787935
48.3882
-0.843402
48.2026
-0.897884
48.0101
-0.951324
47.8101
-1.00366
47.6019
-1.05484
47.3846
-1.1048
47.1574
-1.15346
46.919
-1.20075
46.6684
-1.2466
46.4037
-1.29091
46.1232
-1.33359
45.8258
-1.37453
45.5108
-1.41364
45.1706
-1.45082
44.784
-1.48579
44.3498
-1.51779
43.9692
-1.54661
43.7826
-1.57552
43.3925
-1.60957
41.2142
-1.63547
35.8569
-1.59533
28.8728
-1.43061
23.4623
-1.18554
20.7106
-0.981345
19.6726
-0.876641
-0.843199
19.4209
53.4847
2.46329
-53.5974
53.3717
2.41236
53.2587
2.36039
53.1455
2.30742
53.0322
2.25346
52.9188
2.19856
52.8054
2.14272
52.692
2.086
52.5786
2.02841
52.4652
1.96998
52.3518
1.91075
52.2384
1.85075
52.1251
1.79001
52.0118
1.72856
51.8986
1.66643
51.7854
1.60367
51.6723
1.54029
51.5592
1.47635
51.4461
1.41187
51.3331
1.34688
51.22
1.28143
51.1069
1.21556
50.9937
1.14928
50.8804
1.08266
50.767
1.01571
50.6534
0.948485
50.5396
0.881018
50.4256
0.813347
50.3112
0.745512
50.1965
0.677553
50.0813
0.609508
49.9655
0.541419
49.8492
0.473325
49.7322
0.405267
49.6144
0.337286
49.4958
0.269424
49.3762
0.201722
49.2554
0.134222
49.1335
0.0669676
49.0102
0
48.8854
-0.0666371
48.7589
-0.1329
48.6306
-0.198745
48.5003
-0.264129
48.3678
-0.329005
48.233
-0.393329
48.0954
-0.457056
47.955
-0.520139
47.8115
-0.58253
47.6645
-0.644182
47.5137
-0.705047
47.3589
-0.765074
47.1996
-0.824214
47.0355
-0.882414
46.866
-0.939621
46.6907
-0.99578
46.509
-1.05083
46.3204
-1.10472
46.124
-1.15739
45.9192
-1.20876
45.7051
-1.25877
45.4806
-1.30734
45.2447
-1.3544
44.9957
-1.39986
44.732
-1.44362
44.4525
-1.48556
44.1567
-1.5256
43.8384
-1.56364
43.4782
-1.59943
43.0695
-1.63221
42.6986
-1.6616
42.5156
-1.69057
42.2354
-1.7249
40.4329
-1.7544
35.5785
-1.72312
28.8109
-1.56351
23.2664
-1.30576
20.3026
-1.07509
-0.942012
19.3907
51.8679
2.56387
-51.9795
51.7563
2.51076
51.6446
2.45658
51.5329
2.40136
51.4212
2.34513
51.3097
2.28791
51.1982
2.22975
51.0868
2.17066
50.9755
2.11067
50.8644
2.04983
50.7534
1.98816
50.6426
1.92569
50.5319
1.86246
50.4214
1.7985
50.3111
1.73384
50.201
1.66852
50.091
1.60258
49.9812
1.53604
49.8716
1.46895
49.7621
1.40134
49.6527
1.33325
49.5434
1.26472
49.4342
1.19578
49.3251
1.12647
49.2159
1.05683
49.1068
0.986901
48.9976
0.91672
48.8883
0.846328
48.7788
0.775764
48.6692
0.705069
48.5593
0.634283
48.449
0.563447
48.3384
0.492604
48.2272
0.421793
48.1156
0.351057
48.0032
0.28044
47.8902
0.209982
47.7762
0.139728
47.6614
0.0697188
47.5454
0
47.4283
-0.0693853
47.3098
-0.138393
47.1898
-0.206978
47.0682
-0.275096
46.9447
-0.342702
46.8193
-0.40975
46.6916
-0.476193
46.5615
-0.541985
46.4288
-0.607079
46.2931
-0.671426
46.1543
-0.734978
46.012
-0.797686
45.866
-0.859498
45.7158
-0.920365
45.561
-0.980232
45.4013
-1.03905
45.2362
-1.09675
45.0652
-1.15329
44.8877
-1.2086
44.703
-1.26263
44.5104
-1.3153
44.3092
-1.36654
44.0984
-1.41628
43.8769
-1.46445
43.6434
-1.51095
43.3962
-1.55569
43.1342
-1.59855
42.8573
-1.63943
42.5607
-1.67827
42.227
-1.71482
41.8446
-1.74837
41.4811
-1.77833
41.2909
-1.80719
41.1108
-1.84124
39.7233
-1.8744
35.4802
-1.85561
29.0101
-1.70833
23.1942
-1.44689
-1.16339
20.7299
50.2977
2.66125
-50.4079
50.1875
2.60602
50.0774
2.54969
49.9674
2.4923
49.8576
2.43386
49.7479
2.37441
49.6385
2.31399
49.5293
2.25261
49.4203
2.19031
49.3115
2.12713
49.203
2.0631
49.0948
1.99824
48.9869
1.9326
48.8792
1.86621
48.7719
1.7991
48.6648
1.73132
48.558
1.66288
48.4515
1.59384
48.3452
1.52422
48.2392
1.45408
48.1335
1.38343
48.028
1.31233
47.9227
1.24081
47.8176
1.1689
47.7126
1.09666
47.6078
1.02411
47.503
0.951308
47.3983
0.878281
47.2935
0.805076
47.1888
0.731732
47.0839
0.658292
46.9789
0.584797
46.8736
0.51129
46.7681
0.437813
46.6622
0.364409
46.5559
0.291121
46.449
0.217992
46.3415
0.145066
46.2333
0.0723876
46.1243
0
46.0143
-0.0720519
45.9033
-0.143723
45.791
-0.214969
45.6775
-0.285743
45.5624
-0.356001
45.4457
-0.425695
45.3272
-0.49478
45.2067
-0.563207
45.0839
-0.630931
44.9588
-0.697901
44.8309
-0.764071
44.7002
-0.829391
44.5662
-0.893809
44.4287
-0.957277
44.2874
-1.01974
44.1419
-1.08115
43.9918
-1.14144
43.8367
-1.20057
43.6762
-1.25847
43.5095
-1.31509
43.3363
-1.37036
43.1558
-1.42421
42.9672
-1.47658
42.7698
-1.52739
42.5625
-1.57657
42.3441
-1.62402
42.1131
-1.66965
41.8683
-1.71334
41.6097
-1.755
41.3342
-1.79455
41.0269
-1.83181
40.672
-1.86613
40.3163
-1.8967
40.1083
-1.92537
40.0039
-1.95848
39.0279
-1.99503
35.5485
-1.98877
29.1874
-1.8753
-1.55064
25.1083
48.7728
2.7555
-48.8815
48.6643
2.69823
48.556
2.63983
48.4479
2.58033
48.34
2.51976
48.2324
2.45815
48.1252
2.39553
48.0182
2.33194
47.9116
2.26741
47.8053
2.20196
47.6994
2.13564
47.5938
2.06848
47.4887
2.00051
47.3839
1.93177
47.2795
1.86229
47.1754
1.79211
47.0718
1.72127
46.9686
1.6498
46.8657
1.57775
46.7632
1.50514
46.661
1.43202
46.5592
1.35844
46.4577
1.28442
46.3565
1.21
46.2555
1.13524
46.1548
1.06016
46.0544
0.984815
45.9541
0.909239
45.8539
0.833477
45.7538
0.757569
45.6538
0.68156
45.5537
0.60549
45.4536
0.529403
45.3534
0.453343
45.253
0.377354
45.1523
0.301478
45.0513
0.22576
44.9499
0.150244
44.8479
0.0749763
44.7454
0
44.6422
-0.0746392
44.5381
-0.148896
44.4331
-0.222724
44.3271
-0.296078
44.2199
-0.368912
44.1113
-0.441178
44.0013
-0.512831
43.8896
-0.583822
43.7761
-0.654103
43.6606
-0.723628
43.5428
-0.792347
43.4227
-0.860211
43.2998
-0.92717
43.174
-0.993173
43.0449
-1.05817
42.9123
-1.12211
42.7759
-1.18493
42.6352
-1.24659
42.4899
-1.30702
42.3396
-1.36617
42.1836
-1.42398
42.0216
-1.48038
41.8528
-1.53531
41.6766
-1.5887
41.4922
-1.64048
41.2988
-1.69057
41.0952
-1.73888
40.88
-1.78532
40.6521
-1.82978
40.4112
-1.87214
40.1558
-1.91235
39.8744
-1.95026
39.5485
-1.98532
39.2028
-2.01664
38.9756
-2.04492
38.8798
-2.07789
38.4312
-2.10995
35.0829
-2.1457
-1.95863
31.8831
47.2923
2.84673
-47.3993
47.1856
2.78748
47.0792
2.72707
46.9731
2.66553
46.8674
2.60289
46.762
2.53919
46.657
2.47446
46.5524
2.40873
46.4482
2.34203
46.3445
2.2744
46.2412
2.20587
46.1383
2.13647
46.0359
2.06625
45.934
1.99523
45.8326
1.92346
45.7316
1.85097
45.6311
1.7778
45.5311
1.70399
45.4315
1.62957
45.3324
1.55459
45.2338
1.47908
45.1356
1.40309
45.0377
1.32665
44.9403
1.24981
44.8433
1.17261
44.7466
1.09508
44.6503
1.01728
44.5542
0.939233
44.4584
0.860996
44.3628
0.782606
44.2674
0.704108
44.1722
0.625545
44.0769
0.546961
43.9818
0.468398
43.8866
0.389904
43.7912
0.31152
43.6958
0.233293
43.6001
0.155267
43.504
0.0774873
43.4076
0