/*--------------------------------*- C++ -*----------------------------------*\
| =========                 |                                                 |
| \\      /  F ield         | OpenFOAM: The Open Source CFD Toolbox           |
|  \\    /   O peration     | Version:  2312                                  |
|   \\  /    A nd           | Website:  www.openfoam.com                      |
|    \\/     M anipulation  |                                                 |
\*---------------------------------------------------------------------------*/
FoamFile
{
    version     2.0;
    format      ascii;
    arch        "LSB;label=32;scalar=64";
    class       surfaceScalarField;
    location    "0.562";
    object      phi;
}
// * * * * * * * * * * * * * * * * * * * * * * * * * * * * * * * * * * * * * //

dimensions      [0 3 -1 0 0 0 0];

oriented        oriented;

internalField   nonuniform List<scalar> 
62015
(
84.2693
0.164347
-84.792
83.7373
0.160282
83.196
0.156156
82.6451
0.151975
82.0841
0.14774
81.5127
0.143455
80.9304
0.139124
80.3368
0.134749
79.7313
0.130336
79.1133
0.125885
78.4821
0.121403
77.837
0.116892
77.1772
0.112356
76.5016
0.107799
75.8093
0.103225
75.099
0.0986388
74.3694
0.0940439
73.6189
0.0894445
72.846
0.0848449
72.0485
0.0802502
71.2242
0.0756649
70.3704
0.0710935
69.4842
0.0665414
68.5618
0.0620138
67.5989
0.0575158
66.5903
0.0530536
65.5297
0.0486327
64.409
0.0442601
63.218
0.0399423
61.9433
0.0356866
60.5669
0.0315009
59.0651
0.0273945
57.4021
0.0233788
55.5054
0.0194641
53.227
0.0156573
50.3533
0.0119639
46.77
0.00842899
42.7072
0.00517391
38.7473
0.00234799
35.4719
0
33.1267
-0.00196925
31.6217
-0.00371858
30.7311
-0.00537413
30.2449
-0.00700796
30.0146
-0.00865334
29.9473
-0.0103234
29.9866
-0.0120237
30.0985
-0.0137551
30.2618
-0.0155182
30.4629
-0.0173127
30.6928
-0.0191378
30.9453
-0.0209929
31.2161
-0.0228772
31.5019
-0.0247901
31.8003
-0.0267304
32.1094
-0.0286973
32.4278
-0.0306896
32.7544
-0.0327064
33.0883
-0.0347466
33.4286
-0.0368088
33.7748
-0.0388921
34.1264
-0.0409952
34.483
-0.0431166
34.8442
-0.0452553
35.2096
-0.04741
35.5792
-0.0495792
35.9525
-0.0517616
36.3295
-0.0539559
36.71
-0.0561605
37.0938
-0.0583742
37.4808
-0.0605955
37.8709
-0.0628228
38.2639
-0.0650552
38.6603
-0.0672897
39.0579
-0.069529
39.4635
-0.0717592
39.8556
-0.0740169
40.3005
-0.0761821
-0.0786247
40.5941
81.3633
0.322227
-81.8728
80.8452
0.314237
80.3185
0.306133
79.7828
0.297921
79.2379
0.289606
78.6832
0.281194
78.1184
0.272694
77.5431
0.26411
76.9566
0.255451
76.3585
0.246722
75.7481
0.237932
75.1246
0.229086
74.4873
0.220194
73.8352
0.211262
73.1673
0.202298
72.4826
0.19331
71.7796
0.184306
71.0571
0.175294
70.3132
0.166284
69.5462
0.157283
68.7539
0.148301
67.9338
0.139348
67.083
0.130432
66.198
0.121565
65.2747
0.112756
64.3082
0.104017
63.2924
0.0953597
62.2198
0.0867964
61.0807
0.0783399
59.8626
0.0700053
58.5484
0.0618071
57.1158
0.0537637
55.5313
0.045896
53.7282
0.0382264
51.5705
0.0307667
48.8589
0.0235312
45.475
0.0166033
41.612
0.0102114
37.8028
0.00464276
34.6081
0
32.2877
-0.00389649
30.7779
-0.00735072
29.871
-0.0106119
29.365
-0.0138238
29.1144
-0.017054
29.0269
-0.0203305
29.046
-0.023663
29.1376
-0.0270553
29.2806
-0.0305074
29.4612
-0.0340189
29.6705
-0.0375884
29.9023
-0.041215
30.1523
-0.0448969
30.4171
-0.0486326
30.6944
-0.0524203
30.9824
-0.0562583
31.2796
-0.0601445
31.5849
-0.0640768
31.8974
-0.0680531
32.2163
-0.0720714
32.541
-0.0761291
32.871
-0.0802239
33.206
-0.0843537
33.5455
-0.0885156
33.8893
-0.0927072
34.237
-0.0969261
34.5885
-0.10117
34.9436
-0.105435
35.3021
-0.109719
35.6639
-0.11402
36.0289
-0.118335
36.3969
-0.122661
36.7677
-0.126995
37.1419
-0.131333
37.5173
-0.135679
37.9003
-0.140007
38.2707
-0.144386
38.6905
-0.148589
-0.153314
38.971
78.5339
0.473757
-79.0304
78.0294
0.461984
77.5168
0.450045
76.996
0.437949
76.4664
0.425705
75.9279
0.413323
75.38
0.400811
74.8221
0.38818
74.2539
0.37544
73.6748
0.362601
73.0841
0.349673
72.4811
0.336666
71.8651
0.323591
71.2352
0.31046
70.5905
0.297284
69.9298
0.284074
69.2519
0.270842
68.5554
0.257601
67.8389
0.244362
67.1004
0.231139
66.3379
0.217944
65.5491
0.204791
64.7311
0.191695
63.8806
0.178671
62.9938
0.165733
62.0659
0.152898
61.0911
0.140182
60.0623
0.127605
58.9704
0.115185
57.8031
0.102942
56.5445
0.0909002
55.1733
0.0790844
53.6573
0.0675256
51.9337
0.0562555
49.8752
0.0452925
47.2959
0.0346597
44.0824
0.0244791
40.4068
0.0150774
36.7617
0.00686658
33.6781
0
31.4155
-0.00577249
29.9268
-0.0108871
29.0211
-0.0157077
28.5066
-0.0204477
28.243
-0.0252089
28.1401
-0.0300336
28.1425
-0.0349372
28.2166
-0.039925
28.3414
-0.0449977
28.5034
-0.0501545
28.6939
-0.0553939
28.9065
-0.060714
29.1371
-0.0661126
29.3824
-0.0715875
29.64
-0.0771361
29.9081
-0.0827559
30.1854
-0.0884439
30.4707
-0.0941973
30.763
-0.100013
31.0617
-0.105888
31.3662
-0.111818
31.6759
-0.117801
31.9905
-0.123833
32.3095
-0.12991
32.6328
-0.136028
32.9599
-0.142185
33.2908
-0.148376
33.6252
-0.154597
33.963
-0.160845
34.304
-0.167115
34.6481
-0.173404
34.9952
-0.179706
35.345
-0.186021
35.6981
-0.192339
36.0525
-0.198667
36.4141
-0.204968
36.7642
-0.21134
37.16
-0.217463
-0.22432
37.4271
75.7904
0.619118
-76.2741
75.2993
0.603699
74.8008
0.588067
74.2945
0.572233
73.7802
0.55621
73.2575
0.540008
72.7259
0.523641
72.1852
0.507121
71.6346
0.490461
71.0739
0.473674
70.5022
0.456774
69.919
0.439773
69.3236
0.422686
68.715
0.405528
68.0924
0.388312
67.4547
0.371055
66.8007
0.35377
66.1292
0.336475
65.4386
0.319184
64.7272
0.301915
63.993
0.284685
63.2337
0.267511
62.4466
0.250411
61.6287
0.233405
60.7762
0.216513
59.8845
0.199755
58.9481
0.183154
57.9601
0.166733
56.9118
0.150517
55.7916
0.134532
54.5842
0.118809
53.2691
0.103379
51.8152
0.0882838
50.1621
0.0735625
48.1895
0.0592399
45.7239
0.0453487
42.6601
0.03205
39.1586
0.0197643
35.6782
0.00901491
32.7187
0
30.531
-0.00759452
29.0784
-0.0143249
28.1848
-0.0206612
27.6694
-0.0268827
27.398
-0.0331248
27.2833
-0.0394435
27.2719
-0.0458606
27.3307
-0.0523831
27.4394
-0.0590123
27.5846
-0.0657474
27.7578
-0.0725864
27.9528
-0.0795269
28.1654
-0.0865664
28.3925
-0.0937018
28.6318
-0.10093
28.8814
-0.108248
29.14
-0.115651
29.4065
-0.123137
29.6799
-0.130701
29.9597
-0.138338
30.2451
-0.146046
30.5357
-0.153819
30.831
-0.161653
31.1308
-0.169544
31.4347
-0.177486
31.7424
-0.185475
32.0539
-0.193507
32.3687
-0.201575
32.6869
-0.209676
33.0083
-0.217804
33.3326
-0.225954
33.66
-0.234121
33.99
-0.2423
34.3232
-0.250482
34.6576
-0.258675
34.9989
-0.266834
35.3297
-0.275078
35.7032
-0.283007
-0.291861
35.9567
73.1355
0.758504
-73.6062
72.6578
0.739576
72.1733
0.720391
71.6815
0.700963
71.1822
0.681306
70.6751
0.661435
70.1597
0.641364
69.6357
0.621109
69.1025
0.600687
68.5597
0.580111
68.0067
0.5594
67.4428
0.538568
66.8673
0.517634
66.2794
0.496615
65.6782
0.475528
65.0628
0.454391
64.4319
0.433224
63.7844
0.412044
63.1188
0.390873
62.4334
0.369729
61.7263
0.348634
60.9954
0.327609
60.238
0.306676
59.4512
0.285859
58.6314
0.265182
57.7742
0.244669
56.8744
0.224348
55.9252
0.204247
54.9184
0.184396
53.8427
0.164829
52.6836
0.145579
51.4213
0.126689
50.0256
0.108205
48.4381
0.0901759
46.5446
0.0726318
44.1828
0.0556158
41.257
0.0393294
37.9193
0.0242792
34.5988
0.0110904
31.7646
0
29.6564
-0.00936407
28.2453
-0.017667
27.3684
-0.0254768
26.8556
-0.0331353
26.5789
-0.0408097
26.4548
-0.048571
26.4313
-0.0564467
26.4765
-0.0644457
26.5704
-0.0725704
26.7003
-0.0808198
26.8574
-0.0891918
27.0361
-0.0976834
27.232
-0.106292
27.4421
-0.115013
27.6642
-0.123844
27.8965
-0.13278
28.1376
-0.141818
28.3864
-0.150951
28.6421
-0.160177
28.904
-0.169489
29.1715
-0.178884
29.444
-0.188355
29.7213
-0.197897
30.0029
-0.207505
30.2885
-0.217173
30.578
-0.226896
30.871
-0.236667
31.1674
-0.24648
31.4671
-0.25633
31.7699
-0.266211
32.0756
-0.276116
32.3842
-0.286039
32.6955
-0.295975
33.0099
-0.305912
33.3255
-0.31586
33.6476
-0.325764
33.9601
-0.335768
34.3125
-0.345395
-0.356119
34.5528
70.5686
0.89211
-71.0263
70.1044
0.869808
69.6338
0.847208
69.1564
0.824326
68.6721
0.80118
68.1804
0.777785
67.681
0.754159
67.1735
0.73032
66.6573
0.706288
66.1321
0.682079
65.5973
0.657713
65.0522
0.633209
64.4962
0.608588
63.9285
0.583869
63.3482
0.559072
62.7544
0.534221
62.146
0.509334
61.5217
0.484436
60.8803
0.459548
60.22
0.434695
59.5391
0.409901
58.8356
0.38519
58.1068
0.360588
57.35
0.336123
56.5616
0.311822
55.7376
0.287716
54.8728
0.263835
53.9608
0.240212
52.9937
0.216882
51.9607
0.193884
50.8477
0.171259
49.6357
0.149054
48.2955
0.127324
46.7704
0.106126
44.9518
0.0854929
42.6882
0.065481
39.8928
0.0463311
36.7105
0.0286312
33.5435
0.0130972
30.8313
0
28.8023
-0.0110838
27.4337
-0.0209177
26.5751
-0.0301602
26.0663
-0.0392127
25.7858
-0.048273
25.6535
-0.0574273
25.6192
-0.0667087
25.6519
-0.0761289
25.7324
-0.0856909
25.8479
-0.0953936
25.9902
-0.105235
26.1535
-0.115212
26.3338
-0.12532
26.5281
-0.135557
26.7341
-0.145917
26.95
-0.156397
27.1747
-0.16699
27.407
-0.177692
27.646
-0.188498
27.8911
-0.199401
28.1416
-0.210397
28.3972
-0.221478
28.6574
-0.232639
28.9218
-0.243874
29.1903
-0.255175
29.4624
-0.266537
29.7381
-0.277952
30.0171
-0.289414
30.2993
-0.300915
30.5845
-0.312449
30.8726
-0.324009
31.1636
-0.335586
31.4571
-0.347176
31.7536
-0.358765
32.0515
-0.370364
32.3555
-0.38191
32.6505
-0.393566
32.9831
-0.404789
-0.417261
33.2107
68.0879
1.02013
-68.5327
67.6371
0.994582
67.1804
0.968703
66.7174
0.942505
66.2478
0.916009
65.7714
0.889233
65.2877
0.862197
64.7964
0.834922
64.2971
0.807428
63.7891
0.779737
63.2722
0.751869
62.7455
0.723847
62.2085
0.695694
61.6604
0.667431
61.1005
0.639084
60.5277
0.610674
59.941
0.582228
59.3394
0.55377
58.7213
0.525326
58.0855
0.496923
57.4299
0.468588
56.7528
0.44035
56.0516
0.412238
55.3237
0.384282
54.5656
0.356515
53.7735
0.32897
52.9425
0.301682
52.0663
0.274688
51.1374
0.24803
50.1453
0.221749
49.0766
0.195891
47.9129
0.170513
46.6257
0.145675
45.1605
0.121439
43.4137
0.0978453
41.244
0.0749617
38.573
0.0530685
35.5391
0.0328282
32.5188
0.0150384
29.9242
0
27.9722
-0.0127558
26.6457
-0.0240806
25.8057
-0.0347169
25.3017
-0.0451215
25.0184
-0.0555237
24.8788
-0.0660232
24.8346
-0.07666
24.8559
-0.0874485
24.9238
-0.098392
25.026
-0.10949
25.1544
-0.12074
25.3035
-0.132139
25.4691
-0.143683
25.6485
-0.155368
25.8393
-0.167188
26.04
-0.179139
26.2492
-0.191215
26.4659
-0.20341
26.6892
-0.215718
26.9185
-0.228133
27.1531
-0.240649
27.3927
-0.253258
27.6367
-0.265953
27.885
-0.278729
28.1372
-0.291576
28.393
-0.304488
28.6523
-0.317457
28.9149
-0.330475
29.1805
-0.343535
29.4492
-0.356629
29.7206
-0.369748
29.9949
-0.382884
30.2716
-0.396031
30.5513
-0.409174
30.8323
-0.422324
31.1192
-0.435414
31.3977
-0.448621
31.7115
-0.461346
-0.475452
31.927
65.6911
1.14274
-66.1229
65.2537
1.11408
64.8107
1.08505
64.3619
1.05567
63.907
1.02597
63.4456
0.995949
62.9774
0.965644
62.5021
0.935076
62.0192
0.904266
61.5282
0.873239
61.0286
0.842018
60.52
0.810627
60.0015
0.779092
59.4726
0.747438
58.9324
0.71569
58.3801
0.683877
57.8146
0.652024
57.2348
0.62016
56.6395
0.588314
56.0272
0.556515
55.3962
0.524794
54.7446
0.493182
54.0701
0.461712
53.3701
0.430417
52.6413
0.399335
51.8799
0.3685
51.0814
0.337953
50.2397
0.307735
49.3474
0.277891
48.3947
0.248468
47.3685
0.219518
46.2512
0.191101
45.015
0.163286
43.6072
0.13614
41.9295
0.109709
39.8501
0.0840733
37.2983
0.0595517
34.4061
0.0368763
31.526
0.0169165
29.0442
0
27.1668
-0.0143817
25.8814
-0.0271592
25.0601
-0.0391515
24.5614
-0.0508689
24.2759
-0.0625699
24.1298
-0.0743693
24.0766
-0.0863136
24.0873
-0.0984193
24.1435
-0.110691
24.2333
-0.123129
24.3488
-0.135731
24.4845
-0.148493
24.6364
-0.16141
24.8018
-0.174478
24.9784
-0.187693
25.1647
-0.201047
25.3594
-0.214536
25.5614
-0.228152
25.7699
-0.24189
25.9842
-0.255742
26.2039
-0.2697
26.4283
-0.283759
26.6572
-0.297909
26.8903
-0.312144
27.1271
-0.326454
27.3675
-0.340833
27.6114
-0.35527
27.8584
-0.369759
28.1084
-0.38429
28.3614
-0.398854
28.6171
-0.413444
28.8756
-0.428048
29.1365
-0.442661
29.4002
-0.457266
29.6653
-0.471875
29.9359
-0.486414
30.1989
-0.501078
30.4949
-0.515213
-0.530845
30.6989
63.3757
1.26012
-63.7946
62.9516
1.22848
62.5223
1.19644
62.0875
1.16401
61.6469
1.13122
61.2004
1.0981
60.7475
1.06466
60.2878
1.03094
59.821
0.996955
59.3466
0.962734
58.8641
0.928303
58.373
0.893688
57.8726
0.858917
57.3624
0.824018
56.8414
0.789018
56.3089
0.753948
55.764
0.718837
55.2055
0.683716
54.6322
0.648616
54.0427
0.61357
53.4354
0.578611
52.8084
0.543772
52.1597
0.509092
51.4865
0.474605
50.786
0.440351
50.0543
0.406372
49.287
0.372708
48.4784
0.339406
47.6214
0.306515
46.7065
0.274085
45.7212
0.242176
44.6485
0.210851
43.4613
0.180186
42.1087
0.150252
40.4975
0.121102
38.5047
0.0928292
36.0671
0.0657905
33.3103
0.0407813
30.5644
0.0187341
28.1908
0
26.3853
-0.0159632
25.1403
-0.0301564
24.3376
-0.0434684
23.8447
-0.0564605
23.5575
-0.0694197
23.4056
-0.0824757
23.3442
-0.0956813
23.3451
-0.109056
23.3905
-0.122606
23.4687
-0.136332
23.5721
-0.15023
23.6952
-0.164297
23.8343
-0.17853
23.9866
-0.192921
24.1499
-0.207467
24.3227
-0.222161
24.5037
-0.236996
24.6918
-0.251966
24.8864
-0.267063
25.0867
-0.282281
25.2922
-0.297611
25.5025
-0.313044
25.7171
-0.328574
25.9357
-0.344191
26.158
-0.359887
26.3839
-0.375652
26.6131
-0.391478
26.8455
-0.407355
27.0808
-0.423274
27.319
-0.439226
27.5598
-0.455201
27.8033
-0.471188
28.0492
-0.48718
28.2979
-0.503161
28.5479
-0.519141
28.8032
-0.535043
29.0514
-0.551072
29.3307
-0.566534
-0.583589
29.5238
61.1394
1.37246
-61.5454
60.7284
1.33795
60.3125
1.30302
59.8916
1.26767
59.4652
1.23194
59.0332
1.19584
58.5952
1.15941
58.1509
1.12267
57.6999
1.08564
57.2417
1.04837
56.7758
1.01086
56.3019
0.973166
55.8191
0.9353
55.327
0.897297
54.8247
0.859188
54.3115
0.821005
53.7865
0.782779
53.2486
0.744544
52.6965
0.706334
52.1291
0.668183
51.5448
0.630129
50.9417
0.592207
50.3177
0.554457
49.6705
0.516919
48.9972
0.479634
48.294
0.442647
47.5568
0.406004
46.7802
0.369753
45.9571
0.333947
45.0786
0.298643
44.1326
0.263902
43.1025
0.229795
41.9624
0.196401
40.6628
0.163797
39.1156
0.132041
37.2062
0.101243
34.8779
0.0717939
32.2505
0.0445479
29.6327
0.0204927
27.363
0
25.6272
-0.0175016
24.4215
-0.0330745
23.6374
-0.047672
23.1505
-0.061902
22.8624
-0.0760807
22.7054
-0.0903516
22.6365
-0.104775
22.6283
-0.119373
22.6636
-0.134153
22.7311
-0.149115
22.8231
-0.164258
22.9346
-0.179578
23.0616
-0.195069
23.2016
-0.210726
23.3524
-0.226544
23.5125
-0.242517
23.6806
-0.258636
23.8558
-0.274895
24.0372
-0.291287
24.2243
-0.307803
24.4165
-0.324435
24.6133
-0.341174
24.8144
-0.358012
25.0195
-0.374938
25.2282
-0.391945
25.4404
-0.409023
25.6558
-0.426161
25.8743
-0.44335
26.0956
-0.460579
26.3198
-0.477839
26.5466
-0.49512
26.776
-0.512409
27.0077
-0.5297
27.2421
-0.546974
27.4779
-0.564243
27.7187
-0.581424
27.953
-0.598735
28.2163
-0.615442
-0.633826
28.3991
58.9797
1.47991
-59.3731
58.5816
1.44267
58.1791
1.40497
57.7717
1.36683
57.3593
1.32827
56.9416
1.28933
56.5183
1.25003
56.089
1.2104
55.6533
1.17047
55.211
1.13028
54.7613
1.08984
54.304
1.04919
53.8384
1.00837
53.3639
0.967398
52.8798
0.926318
52.3853
0.885158
51.8796
0.843956
51.3616
0.802746
50.8302
0.761563
50.2841
0.720447
49.7219
0.679435
49.1418
0.638567
48.5418
0.597884
47.9197
0.55743
47.2724
0.517249
46.5968
0.477388
45.8886
0.437896
45.1426
0.398826
44.3522
0.360234
43.5086
0.322181
42.6003
0.284731
41.6113
0.247961
40.5162
0.211957
39.2677
0.176796
37.782
0.142544
35.9526
0.109327
33.7291
0.0775703
31.2253
0.048181
28.7301
0.0221946
26.56
0
24.8915
-0.0189983
23.7243
-0.0359163
22.9587
-0.0517655
22.4783
-0.067199
22.1896
-0.0825596
22.0282
-0.0980059
21.9524
-0.113605
21.936
-0.129382
21.9619
-0.145346
22.0193
-0.161499
22.1008
-0.177837
22.2013
-0.194357
22.3171
-0.211054
22.4455
-0.227923
22.5846
-0.244957
22.7327
-0.26215
22.8888
-0.279494
23.0517
-0.296982
23.2209
-0.314606
23.3955
-0.332357
23.5751
-0.350226
23.7593
-0.368204
23.9477
-0.386282
24.1399
-0.404451
24.3358
-0.422699
24.535
-0.441018
24.7374
-0.459396
24.9428
-0.477824
25.151
-0.49629
25.362
-0.514784
25.5755
-0.533295
25.7916
-0.551812
26.0099
-0.570324
26.2308
-0.588814
26.4531
-0.607294
26.6802
-0.625677
26.9013
-0.644189
27.1496
-0.662066
-0.681688
27.3227
56.8943
1.58267
-57.2752
56.5091
1.54281
56.1196
1.50246
55.7256
1.46164
55.3269
1.42039
54.9231
1.37872
54.5141
1.33668
54.0995
1.29429
53.6789
1.25159
53.2519
1.2086
52.8181
1.16536
52.377
1.12189
51.9281
1.07824
51.4707
1.03444
51.0042
0.990519
50.5278
0.946518
50.0408
0.902473
49.542
0.85842
49.0306
0.814399
48.5051
0.77045
47.9643
0.726613
47.4064
0.68293
46.8296
0.639446
46.2315
0.596206
45.6095
0.553258
44.9604
0.510651
44.28
0.468438
43.5635
0.426674
42.8045
0.385419
41.9944
0.344737
41.1223
0.304698
40.1728
0.265381
39.121
0.226877
37.9215
0.189269
36.4949
0.152627
34.7424
0.117093
32.6192
0.0831282
30.2335
0.0516852
27.8554
0.0238413
25.781
0
24.1775
-0.0204543
23.0479
-0.038684
22.3007
-0.0557532
21.8271
-0.0723565
21.5384
-0.0888637
21.3732
-0.105447
21.2912
-0.122182
21.2671
-0.139097
21.2844
-0.156202
21.3325
-0.173498
21.4041
-0.190984
21.4943
-0.208656
21.5996
-0.226509
21.7172
-0.244538
21.8452
-0.262735
21.9822
-0.281094
22.1269
-0.299607
22.2783
-0.318266
22.4358
-0.337063
22.5988
-0.355988
22.7666
-0.375034
22.9389
-0.394189
23.1152
-0.413444
23.2954
-0.432789
23.4791
-0.452214
23.6661
-0.471707
23.8562
-0.491258
24.0493
-0.510856
24.2451
-0.53049
24.4436
-0.550147
24.6446
-0.569818
24.848
-0.589489
25.0537
-0.609151
25.2619
-0.628784
25.4715
-0.648401
25.6856
-0.667913
25.8942
-0.687552
26.1283
-0.706527
-0.727303
26.2921
54.881
1.68088
-55.2497
54.5083
1.63851
54.1316
1.59563
53.7508
1.55226
53.3654
1.50843
52.9754
1.46417
52.5804
1.41951
52.1801
1.37448
51.7741
1.32912
51.3621
1.28347
50.9437
1.23754
50.5184
1.19139
50.0856
1.14504
49.6449
1.09853
49.1954
1.0519
48.7366
1.00519
48.2677
0.958429
47.7876
0.911663
47.2954
0.864932
46.7899
0.818278
46.2697
0.771743
45.7332
0.725374
45.1787
0.679215
44.6038
0.633315
44.0061
0.587724
43.3825
0.542494
42.7289
0.497681
42.0408
0.453344
41.3119
0.409544
40.5341
0.366349
39.6968
0.323834
38.785
0.282082
37.7748
0.241187
36.6224
0.201236
35.2527
0.162305
33.5741
0.124554
31.5469
0.0884754
29.2739
0.0550652
27.0077
0.0254348
25.0251
0
23.4845
-0.021871
22.3916
-0.04138
21.6628
-0.0596383
21.1962
-0.0773794
20.908
-0.0949989
20.7394
-0.112684
20.6519
-0.130517
20.6207
-0.148529
20.63
-0.166732
20.6695
-0.18513
20.7319
-0.20372
20.8126
-0.222497
20.9079
-0.241459
21.0154
-0.260597
21.1331
-0.279907
21.2596
-0.29938
21.3936
-0.319009
21.5343
-0.338785
21.6809
-0.358699
21.8327
-0.378743
21.9894
-0.398906
22.1505
-0.419179
22.3156
-0.439551
22.4844
-0.460012
22.6566
-0.48055
22.8321
-0.501155
23.0106
-0.521815
23.192
-0.542518
23.3761
-0.563254
23.5628
-0.584009
23.752
-0.604773
23.9435
-0.625531
24.1373
-0.646274
24.3334
-0.666982
24.531
-0.687668
24.7328
-0.708239
24.9296
-0.728933
25.1503
-0.74894
-0.770789
25.3053
52.9376
1.77471
-53.2941
52.5772
1.72995
52.213
1.68465
51.845
1.63884
51.4727
1.59254
51.0961
1.5458
50.7147
1.49864
50.3284
1.4511
49.9367
1.40321
49.5393
1.35501
49.1359
1.30653
48.7258
1.25781
48.3088
1.20888
47.8841
1.15979
47.4512
1.11058
47.0094
1.06127
46.558
1.01192
46.0959
0.962566
45.6224
0.913249
45.1361
0.864013
44.6358
0.814905
44.12
0.76597
43.5869
0.717259
43.0345
0.668819
42.4602
0.620705
41.861
0.572971
41.2333
0.525676
40.5724
0.478879
39.8724
0.432649
39.1256
0.387053
38.3217
0.342171
37.4462
0.29809
36.476
0.254908
35.3687
0.212715
34.0538
0.171594
32.4461
0.13172
30.5108
0.0936196
28.3455
0.0583252
26.1862
0.0269769
24.2917
0
22.8118
-0.0232495
21.7548
-0.0440066
21.0442
-0.0634242
20.5849
-0.0822725
20.2977
-0.100972
20.1263
-0.119724
20.0337
-0.138618
19.9961
-0.157689
19.998
-0.176952
20.0294
-0.19641
20.0833
-0.21606
20.155
-0.2359
20.2411
-0.255924
20.3391
-0.276127
20.4471
-0.296501
20.5637
-0.317039
20.6877
-0.337733
20.8183
-0.358574
20.9546
-0.379553
21.0961
-0.400661
21.2423
-0.421888
21.3928
-0.443223
21.5472
-0.464655
21.7053
-0.486173
21.8668
-0.507767
22.0314
-0.529424
22.199
-0.551133
22.3694
-0.572881
22.5424
-0.594656
22.718
-0.616447
22.896
-0.63824
23.0763
-0.660022
23.2587
-0.681783
23.4435
-0.703501
23.6297
-0.72519
23.8199
-0.746755
24.0055
-0.768438
24.2135
-0.789414
-0.812261
24.3603
51.0617
1.86431
-51.4064
50.7133
1.81727
50.3615
1.76967
50.006
1.72152
49.6466
1.67288
49.2829
1.62377
48.9149
1.57423
48.5422
1.52428
48.1644
1.47398
47.7812
1.42335
47.3922
1.37243
46.9971
1.32126
46.5952
1.26988
46.1862
1.21832
45.7693
1.16664
45.344
1.11487
44.9094
1.06304
44.4648
1.01122
44.0092
0.959434
43.5415
0.907737
43.0605
0.856172
42.5646
0.804791
42.0522
0.753643
41.5213
0.702781
40.9695
0.652259
40.3939
0.602135
39.791
0.552468
39.1564
0.503325
38.4842
0.454772
37.7672
0.406883
36.9953
0.35974
36.1547
0.313433
35.2227
0.268063
34.1589
0.223724
32.8966
0.180507
31.3571
0.138603
29.5096
0.0985688
27.4473
0.0614697
25.3901
0.0284692
23.58
0
22.1588
-0.024591
21.1369
-0.0465659
20.4444
-0.0671143
19.9926
-0.0870405
19.7066
-0.106789
19.5329
-0.126574
19.4358
-0.146495
19.3923
-0.16659
19.3874
-0.186874
19.4113
-0.207352
19.4573
-0.228023
19.5207
-0.248883
19.5981
-0.269927
19.6873
-0.291149
19.7862
-0.312542
19.8935
-0.334099
20.0081
-0.35581
20.1291
-0.377668
20.2558
-0.399663
20.3875
-0.421784
20.5239
-0.444022
20.6645
-0.466366
20.8089
-0.488805
20.9568
-0.511327
21.1081
-0.53392
21.2625
-0.556573
21.4198
-0.579274
21.5798
-0.602009
21.7424
-0.624767
21.9075
-0.647533
22.0749
-0.670297
22.2445
-0.693043
22.4163
-0.715761
22.5904
-0.738429
22.7658
-0.761059
22.9451
-0.783557
23.1201
-0.806166
23.3162
-0.828051
-0.851827
23.4551
49.2513
1.94985
-49.5844
48.9147
1.90063
48.5749
1.85082
48.2317
1.80046
47.8847
1.74958
47.5338
1.69821
47.1787
1.64639
46.8192
1.59416
46.4549
1.54155
46.0855
1.4886
45.7106
1.43536
45.3299
1.38185
44.9428
1.32813
44.5489
1.27423
44.1475
1.22019
43.7381
1.16606
43.3199
1.11189
42.8922
1.05771
42.4539
1.00357
42.0041
0.949525
41.5416
0.895619
41.0649
0.841904
40.5725
0.788432
40.0623
0.735258
39.5322
0.682439
38.9793
0.630034
38.4003
0.578107
37.7908
0.526722
37.1454
0.475952
36.4569
0.425873
35.7158
0.376569
34.9086
0.328134
34.0134
0.280673
32.9914
0.234282
31.7797
0.189059
30.3056
0.145213
28.5423
0.103329
26.5781
0.0645027
24.6186
0.0299133
22.8894
0
21.5249
-0.0258966
20.5371
-0.0490598
19.8626
-0.0707117
19.4185
-0.0916877
19.1342
-0.112455
18.9586
-0.133243
18.8575
-0.154156
18.8086
-0.17524
18.7975
-0.19651
18.8144
-0.217972
18.853
-0.239624
18.9086
-0.261465
18.978
-0.283488
19.0588
-0.305687
19.1493
-0.328057
19.2479
-0.350588
19.3537
-0.373272
19.4657
-0.3961
19.5833
-0.419062
19.7059
-0.442149
19.833
-0.46535
19.9642
-0.488653
20.0991
-0.512048
20.2376
-0.535521
20.3793
-0.559063
20.524
-0.582659
20.6715
-0.606298
20.8218
-0.629966
20.9745
-0.653651
21.1297
-0.677338
21.2871
-0.701016
21.4468
-0.72467
21.6085
-0.748288
21.7724
-0.771848
21.9376
-0.795362
22.1066
-0.818735
22.2716
-0.842212
22.4564
-0.86495
-0.889588
22.5878
47.5042
2.03146
-47.826
47.1792
1.98017
46.8511
1.92826
46.5198
1.87578
46.185
1.82277
45.8464
1.76925
45.504
1.71526
45.1573
1.66085
44.8061
1.60604
44.4501
1.55089
44.0889
1.49543
43.7222
1.4397
43.3494
1.38375
42.9701
1.32761
42.5837
1.27133
42.1897
1.21496
41.7873
1.15854
41.3758
1.10211
40.9543
1.04574
40.5218
0.989453
40.0772
0.933314
39.619
0.877375
39.1457
0.821688
38.6556
0.76631
38.1463
0.7113
37.6152
0.656719
37.0591
0.602633
36.4738
0.549111
35.8541
0.496225
35.1931
0.444054
34.4815
0.392686
33.7064
0.34222
32.8465
0.292759
31.8647
0.244405
30.7016
0.197263
29.2903
0.15156
27.6076
0.107909
25.7372
0.0674282
23.8708
0.0313109
22.2193
0
20.9095
-0.0271673
19.955
-0.0514906
19.2982
-0.0742195
18.862
-0.0962181
18.5797
-0.117975
18.4027
-0.139736
18.298
-0.161611
18.2443
-0.18365
18.2273
-0.205871
18.2379
-0.228281
18.2695
-0.250879
18.3179
-0.273662
18.3798
-0.296625
18.4529
-0.319763
18.5353
-0.343067
18.6258
-0.366531
18.7233
-0.390145
18.8269
-0.4139
18.936
-0.437786
19.05
-0.461792
19.1683
-0.485909
19.2907
-0.510125
19.4168
-0.534427
19.5463
-0.558805
19.6789
-0.583244
19.8145
-0.607734
19.9529
-0.63226
20.0939
-0.65681
20.2374
-0.68137
20.3832
-0.705927
20.5312
-0.730467
20.6814
-0.754975
20.8336
-0.779439
20.9879
-0.803838
21.1436
-0.828182
21.3027
-0.852376
21.4584
-0.876665
21.6324
-0.900203
-0.925642
21.7568
45.8184
2.1093
-46.1291
45.5047
2.05602
45.188
2.00212
44.8683
1.94763
44.5453
1.89258
44.2189
1.83701
43.8887
1.78096
43.5545
1.72447
43.216
1.66758
42.873
1.61033
42.5251
1.55276
42.1718
1.49491
41.8129
1.43683
41.4477
1.37856
41.0759
1.32015
40.6967
1.26164
40.3096
1.20308
39.9139
1.14452
39.5085
1.08601
39.0927
1.02759
38.6652
0.969326
38.2249
0.911267
37.7701
0.853468
37.2992
0.79599
36.81
0.738891
36.2999
0.682236
35.7658
0.626092
35.2038
0.57053
34.6087
0.515625
33.974
0.461458
33.2908
0.40812
32.5465
0.355711
31.7204
0.30434
30.7772
0.254109
29.661
0.205132
28.31
0.157655
26.7044
0.112314
24.9234
0.0702499
23.1461
0.0326635
21.569
0
20.3119
-0.0284042
19.39
-0.0538601
18.7508
-0.0776405
18.3226
-0.100636
18.0426
-0.123356
17.8645
-0.14606
17.7567
-0.168867
17.6985
-0.19183
17.6763
-0.21497
17.6809
-0.238293
17.7062
-0.261802
17.7478
-0.285492
17.8026
-0.309359
17.8684
-0.333396
17.9434
-0.357597
18.0263
-0.381953
18.116
-0.406456
18.2118
-0.431097
18.3128
-0.455864
18.4187
-0.480748
18.5288
-0.505737
18.6429
-0.530821
18.7606
-0.555986
18.8817
-0.581221
19.0058
-0.606513
19.1329
-0.631849
19.2626
-0.657215
19.3949
-0.682598
19.5296
-0.707986
19.6665
-0.733362
19.8057
-0.758714
19.947
-0.784026
20.0902
-0.809287
20.2354
-0.834473
20.382
-0.859596
20.532
-0.884561
20.6787
-0.90961
20.8426
-0.933898
-0.960079
20.9603
44.1919
2.1835
-44.4918
43.8891
2.12834
43.5836
2.07254
43.2753
2.01613
42.9638
1.95915
42.649
1.90163
42.3307
1.84361
42.0086
1.78515
41.6825
1.72627
41.3521
1.66702
41.017
1.60744
40.6769
1.54758
40.3313
1.48748
39.9799
1.42718
39.622
1.36674
39.2573
1.30619
38.8849
1.2456
38.5043
1.185
38.1145
1.12446
37.7147
1.06401
37.3039
1.00372
36.8807
0.943641
36.4437
0.883832
35.9913
0.824351
35.5214
0.765262
35.0315
0.70663
34.5186
0.648524
33.9789
0.591016
33.4075
0.534185
32.7981
0.478114
32.1421
0.422895
31.4273
0.368631
30.6338
0.315435
29.7277
0.263411
28.6566
0.21268
27.3634
0.163506
25.8315
0.116551
24.136
0.0729716
22.4437
0.0339725
20.9379
0
19.7318
-0.0296081
18.8415
-0.0561701
18.2196
-0.0809776
17.7996
-0.104945
17.5222
-0.128603
17.3434
-0.152222
17.2328
-0.175932
17.1706
-0.199788
17.1435
-0.223815
17.1427
-0.248021
17.162
-0.272407
17.1974
-0.296969
17.2457
-0.321705
17.3047
-0.346606
17.3727
-0.371667
17.4485
-0.396879
17.5309
-0.422232
17.6192
-0.447719
17.7128
-0.473328
17.811
-0.499048
17.9134
-0.524869
18.0197
-0.550778
18.1296
-0.576764
18.2427
-0.602813
18.3588
-0.628913
18.4777
-0.655051
18.5993
-0.681212
18.7234
-0.707384
18.8498
-0.733552
18.9785
-0.759702
19.1092
-0.785819
19.2421
-0.811889
19.3768
-0.837899
19.5135
-0.863826
19.6515
-0.88968
19.7927
-0.915366
19.931
-0.941126
20.0854
-0.966117
-0.992987
20.1968
42.6227
2.25419
-42.9121
42.3306
2.19725
42.036
2.13964
41.7386
2.08141
41.4383
2.02259
41.1349
1.96321
40.8282
1.90333
40.5178
1.84299
40.2037
1.78222
39.8855
1.72107
39.5628
1.65958
39.2353
1.5978
38.9027
1.53578
38.5645
1.47355
38.2202
1.41118
37.8693
1.3487
37.5112
1.28617
37.1452
1.22364
36.7705
1.16115
36.3862
1.09878
35.9913
1.03656
35.5847
0.974556
35.1648
0.912832
34.7302
0.851445
34.2788
0.79046
33.8083
0.729944
33.3158
0.669968
32.7975
0.610606
32.2489
0.551938
31.6638
0.49405
31.034
0.437036
30.3475
0.381003
29.5853
0.326062
28.7148
0.272324
27.687
0.219917
26.4494
0.169124
24.9881
0.120627
23.374
0.0755966
21.7629
0.0352394
20.3255
0
19.1685
-0.0307803
18.309
-0.0584223
17.7043
-0.0842334
17.2925
-0.109149
17.018
-0.133719
16.8387
-0.158228
16.7259
-0.182812
16.66
-0.207534
16.6285
-0.232419
16.6226
-0.257476
16.6364
-0.282707
16.6659
-0.30811
16.7081
-0.33368
16.7608
-0.359412
16.8223
-0.385297
16.8914
-0.411329
16.967
-0.437497
17.0483
-0.463793
17.1348
-0.490206
17.2259
-0.516724
17.3211
-0.543337
17.4201
-0.570033
17.5225
-0.596799
17.6281
-0.623621
17.7367
-0.650488
17.848
-0.677386
17.9619
-0.704301
18.0782
-0.731218
18.1969
-0.758123
18.3177
-0.785003
18.4405
-0.811842
18.5654
-0.838625
18.6921
-0.865339
18.8207
-0.891961
18.9507
-0.918501
19.0837
-0.944864
19.214
-0.971289
19.3593
-0.996941
-1.02445
19.4647
41.1089
2.32152
-41.3881
40.8272
2.26287
40.5431
2.20355
40.2565
2.14359
39.967
2.08302
39.6746
2.02189
39.3791
1.96023
39.0802
1.8981
38.7777
1.83554
38.4712
1.77258
38.1606
1.70928
37.8454
1.64568
37.5253
1.58183
37.1999
1.51777
36.8687
1.45356
36.5312
1.38924
36.1868
1.32487
35.8348
1.26049
35.4746
1.19617
35.1053
1.13195
34.7258
1.0679
34.335
1.00407
33.9317
0.940523
33.5142
0.877321
33.0806
0.814531
32.6288
0.752221
32.1558
0.690463
31.6582
0.629334
31.1314
0.568915
30.5696
0.509294
29.9648
0.450569
29.3056
0.392845
28.5733
0.33624
27.7372
0.280864
26.751
0.226856
25.5668
0.174516
24.1729
0.124547
22.6367
0.0781287
21.103
0.0364656
19.7311
0
18.6215
-0.0319215
17.792
-0.0606188
17.2042
-0.0874104
16.8007
-0.113251
16.5293
-0.138709
16.35
-0.164083
16.2351
-0.189516
16.166
-0.215076
16.1304
-0.240789
16.1199
-0.266668
16.1286
-0.292715
16.1527
-0.318928
16.1892
-0.345301
16.236
-0.371831
16.2914
-0.398508
16.3542
-0.425326
16.4234
-0.452275
16.4982
-0.479344
16.5781
-0.506525
16.6624
-0.533806
16.7508
-0.561174
16.8429
-0.588618
16.9383
-0.616126
17.0369
-0.643684
17.1384
-0.671279
17.2425
-0.698897
17.3492
-0.726525
17.4582
-0.754147
17.5695
-0.78175
17.6829
-0.809319
17.7983
-0.836838
17.9157
-0.864293
18.0348
-0.891669
18.1559
-0.918945
18.2782
-0.946128
18.4034
-0.973126
18.5262
-1.00017
18.663
-1.02644
-1.05454
18.7627
39.6487
2.3856
-39.9179
39.3771
2.32535
39.1033
2.2644
38.827
2.20279
38.5481
2.14056
38.2664
2.07776
37.9817
2.01442
37.6938
1.95059
37.4025
1.88632
37.1075
1.82165
36.8085
1.75663
36.5052
1.6913
36.1972
1.62571
35.8841
1.55991
35.5656
1.49395
35.241
1.42788
34.9098