/*--------------------------------*- C++ -*----------------------------------*\
| =========                 |                                                 |
| \\      /  F ield         | OpenFOAM: The Open Source CFD Toolbox           |
|  \\    /   O peration     | Version:  2312                                  |
|   \\  /    A nd           | Website:  www.openfoam.com                      |
|    \\/     M anipulation  |                                                 |
\*---------------------------------------------------------------------------*/
FoamFile
{
    version     2.0;
    format      ascii;
    arch        "LSB;label=32;scalar=64";
    class       volVectorField;
    location    "0.954";
    object      U;
}
// * * * * * * * * * * * * * * * * * * * * * * * * * * * * * * * * * * * * * //

dimensions      [0 1 -1 0 0 0 0];

internalField   nonuniform List<vector> 
31205
(
(232.724 0 0)
(230.278 0 0)
(227.757 0 0)
(225.156 0 0)
(222.469 0 0)
(219.692 0 0)
(216.818 0 0)
(213.84 0 0)
(210.751 0 0)
(207.542 0 0)
(204.202 0 0)
(200.72 0 0)
(197.082 0 0)
(193.273 0 0)
(189.272 0 0)
(185.057 0 0)
(180.601 0 0)
(175.871 0 0)
(170.827 0 0)
(165.422 0 0)
(159.601 0 0)
(153.32 0 0)
(146.578 0 0)
(139.484 0 0)
(132.305 0 0)
(125.442 0 0)
(119.305 0 0)
(114.185 0 0)
(110.182 0 0)
(107.237 0 0)
(105.199 0 0)
(103.892 0 0)
(103.155 0 0)
(102.854 0 0)
(102.885 0 0)
(103.17 0 0)
(103.651 0 0)
(104.284 0 0)
(105.036 0 0)
(105.884 0 0)
(106.808 0 0)
(107.794 0 0)
(108.829 0 0)
(109.906 0 0)
(111.017 0 0)
(112.156 0 0)
(113.319 0 0)
(114.501 0 0)
(115.698 0 0)
(116.91 0 0)
(118.132 0 0)
(119.363 0 0)
(120.602 0 0)
(121.847 0 0)
(123.096 0 0)
(124.349 0 0)
(125.605 0 0)
(126.863 0 0)
(128.122 0 0)
(129.382 0 0)
(130.642 0 0)
(131.902 0 0)
(133.16 0 0)
(134.418 0 0)
(135.674 0 0)
(136.929 0 0)
(138.181 0 0)
(139.431 0 0)
(140.679 0 0)
(141.924 0 0)
(143.166 0 0)
(144.405 0 0)
(145.641 0 0)
(146.872 0 0)
(148.107 0 0)
(149.318 0 0)
(150.585 0 0)
(151.668 0 0)
(153.3 0 0)
(230.512 0 0)
(228.067 0 0)
(225.546 0 0)
(222.944 0 0)
(220.258 0 0)
(217.48 0 0)
(214.606 0 0)
(211.628 0 0)
(208.538 0 0)
(205.327 0 0)
(201.985 0 0)
(198.499 0 0)
(194.856 0 0)
(191.04 0 0)
(187.029 0 0)
(182.802 0 0)
(178.33 0 0)
(173.58 0 0)
(168.511 0 0)
(163.075 0 0)
(157.224 0 0)
(150.922 0 0)
(144.196 0 0)
(137.192 0 0)
(130.207 0 0)
(123.637 0 0)
(117.854 0 0)
(113.091 0 0)
(109.404 0 0)
(106.71 0 0)
(104.856 0 0)
(103.677 0 0)
(103.023 0 0)
(102.772 0 0)
(102.828 0 0)
(103.122 0 0)
(103.6 0 0)
(104.221 0 0)
(104.956 0 0)
(105.781 0 0)
(106.68 0 0)
(107.638 0 0)
(108.644 0 0)
(109.69 0 0)
(110.769 0 0)
(111.876 0 0)
(113.006 0 0)
(114.154 0 0)
(115.319 0 0)
(116.496 0 0)
(117.685 0 0)
(118.883 0 0)
(120.088 0 0)
(121.3 0 0)
(122.516 0 0)
(123.736 0 0)
(124.959 0 0)
(126.184 0 0)
(127.411 0 0)
(128.638 0 0)
(129.866 0 0)
(131.093 0 0)
(132.32 0 0)
(133.546 0 0)
(134.77 0 0)
(135.993 0 0)
(137.214 0 0)
(138.433 0 0)
(139.649 0 0)
(140.863 0 0)
(142.075 0 0)
(143.283 0 0)
(144.489 0 0)
(145.69 0 0)
(146.894 0 0)
(148.076 0 0)
(149.311 0 0)
(150.37 0 0)
(151.954 0 0)
(228.186 0 0)
(225.739 0 0)
(223.216 0 0)
(220.613 0 0)
(217.924 0 0)
(215.144 0 0)
(212.267 0 0)
(209.285 0 0)
(206.191 0 0)
(202.975 0 0)
(199.626 0 0)
(196.133 0 0)
(192.48 0 0)
(188.65 0 0)
(184.624 0 0)
(180.377 0 0)
(175.881 0 0)
(171.101 0 0)
(165.997 0 0)
(160.522 0 0)
(154.632 0 0)
(148.311 0 0)
(141.618 0 0)
(134.739 0 0)
(127.993 0 0)
(121.761 0 0)
(116.366 0 0)
(111.982 0 0)
(108.621 0 0)
(106.184 0 0)
(104.519 0 0)
(103.47 0 0)
(102.901 0 0)
(102.701 0 0)
(102.786 0 0)
(103.091 0 0)
(103.568 0 0)
(104.179 0 0)
(104.898 0 0)
(105.702 0 0)
(106.577 0 0)
(107.508 0 0)
(108.486 0 0)
(109.502 0 0)
(110.551 0 0)
(111.626 0 0)
(112.724 0 0)
(113.841 0 0)
(114.973 0 0)
(116.118 0 0)
(117.274 0 0)
(118.44 0 0)
(119.612 0 0)
(120.791 0 0)
(121.975 0 0)
(123.163 0 0)
(124.354 0 0)
(125.547 0 0)
(126.742 0 0)
(127.937 0 0)
(129.133 0 0)
(130.329 0 0)
(131.525 0 0)
(132.72 0 0)
(133.914 0 0)
(135.106 0 0)
(136.296 0 0)
(137.485 0 0)
(138.671 0 0)
(139.855 0 0)
(141.036 0 0)
(142.215 0 0)
(143.391 0 0)
(144.563 0 0)
(145.737 0 0)
(146.89 0 0)
(148.094 0 0)
(149.13 0 0)
(150.667 0 0)
(225.808 0 0)
(223.358 0 0)
(220.832 0 0)
(218.225 0 0)
(215.533 0 0)
(212.748 0 0)
(209.866 0 0)
(206.879 0 0)
(203.777 0 0)
(200.553 0 0)
(197.194 0 0)
(193.688 0 0)
(190.02 0 0)
(186.173 0 0)
(182.125 0 0)
(177.852 0 0)
(173.324 0 0)
(168.506 0 0)
(163.358 0 0)
(157.836 0 0)
(151.905 0 0)
(145.572 0 0)
(138.935 0 0)
(132.216 0 0)
(125.748 0 0)
(119.886 0 0)
(114.896 0 0)
(110.895 0 0)
(107.859 0 0)
(105.673 0 0)
(104.193 0 0)
(103.272 0 0)
(102.788 0 0)
(102.641 0 0)
(102.756 0 0)
(103.073 0 0)
(103.551 0 0)
(104.154 0 0)
(104.858 0 0)
(105.644 0 0)
(106.496 0 0)
(107.403 0 0)
(108.354 0 0)
(109.342 0 0)
(110.362 0 0)
(111.407 0 0)
(112.474 0 0)
(113.56 0 0)
(114.661 0 0)
(115.775 0 0)
(116.9 0 0)
(118.033 0 0)
(119.175 0 0)
(120.322 0 0)
(121.474 0 0)
(122.631 0 0)
(123.791 0 0)
(124.953 0 0)
(126.116 0 0)
(127.281 0 0)
(128.447 0 0)
(129.612 0 0)
(130.777 0 0)
(131.942 0 0)
(133.105 0 0)
(134.268 0 0)
(135.428 0 0)
(136.587 0 0)
(137.744 0 0)
(138.898 0 0)
(140.051 0 0)
(141.2 0 0)
(142.347 0 0)
(143.49 0 0)
(144.635 0 0)
(145.761 0 0)
(146.934 0 0)
(147.947 0 0)
(149.44 0 0)
(223.411 0 0)
(220.957 0 0)
(218.427 0 0)
(215.816 0 0)
(213.118 0 0)
(210.328 0 0)
(207.44 0 0)
(204.444 0 0)
(201.334 0 0)
(198.099 0 0)
(194.727 0 0)
(191.207 0 0)
(187.521 0 0)
(183.652 0 0)
(179.578 0 0)
(175.274 0 0)
(170.709 0 0)
(165.848 0 0)
(160.651 0 0)
(155.079 0 0)
(149.113 0 0)
(142.786 0 0)
(136.235 0 0)
(129.715 0 0)
(123.56 0 0)
(118.086 0 0)
(113.502 0 0)
(109.873 0 0)
(107.145 0 0)
(105.197 0 0)
(103.89 0 0)
(103.089 0 0)
(102.685 0 0)
(102.589 0 0)
(102.732 0 0)
(103.063 0 0)
(103.541 0 0)
(104.138 0 0)
(104.829 0 0)
(105.597 0 0)
(106.428 0 0)
(107.311 0 0)
(108.237 0 0)
(109.198 0 0)
(110.19 0 0)
(111.206 0 0)
(112.244 0 0)
(113.3 0 0)
(114.371 0 0)
(115.454 0 0)
(116.549 0 0)
(117.652 0 0)
(118.763 0 0)
(119.879 0 0)
(121.001 0 0)
(122.128 0 0)
(123.257 0 0)
(124.389 0 0)
(125.522 0 0)
(126.657 0 0)
(127.793 0 0)
(128.928 0 0)
(130.064 0 0)
(131.199 0 0)
(132.333 0 0)
(133.466 0 0)
(134.597 0 0)
(135.727 0 0)
(136.855 0 0)
(137.981 0 0)
(139.105 0 0)
(140.226 0 0)
(141.344 0 0)
(142.459 0 0)
(143.576 0 0)
(144.674 0 0)
(145.818 0 0)
(146.807 0 0)
(148.26 0 0)
(221.009 0 0)
(218.551 0 0)
(216.017 0 0)
(213.4 0 0)
(210.697 0 0)
(207.901 0 0)
(205.005 0 0)
(202.001 0 0)
(198.88 0 0)
(195.633 0 0)
(192.247 0 0)
(188.709 0 0)
(185.002 0 0)
(181.109 0 0)
(177.006 0 0)
(172.668 0 0)
(168.062 0 0)
(163.155 0 0)
(157.908 0 0)
(152.289 0 0)
(146.298 0 0)
(140.002 0 0)
(133.575 0 0)
(127.293 0 0)
(121.477 0 0)
(116.399 0 0)
(112.211 0 0)
(108.934 0 0)
(106.493 0 0)
(104.764 0 0)
(103.615 0 0)
(102.925 0 0)
(102.594 0 0)
(102.544 0 0)
(102.714 0 0)
(103.056 0 0)
(103.536 0 0)
(104.125 0 0)
(104.804 0 0)
(105.555 0 0)
(106.366 0 0)
(107.226 0 0)
(108.128 0 0)
(109.063 0 0)
(110.028 0 0)
(111.017 0 0)
(112.026 0 0)
(113.053 0 0)
(114.095 0 0)
(115.149 0 0)
(116.214 0 0)
(117.288 0 0)
(118.369 0 0)
(119.456 0 0)
(120.549 0 0)
(121.645 0 0)
(122.745 0 0)
(123.847 0 0)
(124.951 0 0)
(126.057 0 0)
(127.163 0 0)
(128.27 0 0)
(129.377 0 0)
(130.483 0 0)
(131.588 0 0)
(132.693 0 0)
(133.796 0 0)
(134.897 0 0)
(135.997 0 0)
(137.095 0 0)
(138.19 0 0)
(139.284 0 0)
(140.375 0 0)
(141.462 0 0)
(142.551 0 0)
(143.621 0 0)
(144.737 0 0)
(145.703 0 0)
(147.117 0 0)
(218.609 0 0)
(216.146 0 0)
(213.607 0 0)
(210.986 0 0)
(208.277 0 0)
(205.473 0 0)
(202.569 0 0)
(199.555 0 0)
(196.423 0 0)
(193.162 0 0)
(189.761 0 0)
(186.204 0 0)
(182.475 0 0)
(178.555 0 0)
(174.42 0 0)
(170.044 0 0)
(165.396 0 0)
(160.44 0 0)
(155.143 0 0)
(149.485 0 0)
(143.488 0 0)
(137.254 0 0)
(130.99 0 0)
(124.981 0 0)
(119.524 0 0)
(114.84 0 0)
(111.032 0 0)
(108.083 0 0)
(105.905 0 0)
(104.375 0 0)
(103.369 0 0)
(102.779 0 0)
(102.515 0 0)
(102.507 0 0)
(102.7 0 0)
(103.052 0 0)
(103.532 0 0)
(104.115 0 0)
(104.781 0 0)
(105.516 0 0)
(106.308 0 0)
(107.146 0 0)
(108.024 0 0)
(108.934 0 0)
(109.873 0 0)
(110.835 0 0)
(111.817 0 0)
(112.817 0 0)
(113.83 0 0)
(114.856 0 0)
(115.892 0 0)
(116.937 0 0)
(117.99 0 0)
(119.048 0 0)
(120.112 0 0)
(121.179 0 0)
(122.251 0 0)
(123.324 0 0)
(124.4 0 0)
(125.477 0 0)
(126.555 0 0)
(127.634 0 0)
(128.712 0 0)
(129.79 0 0)
(130.868 0 0)
(131.944 0 0)
(133.02 0 0)
(134.094 0 0)
(135.166 0 0)
(136.236 0 0)
(137.304 0 0)
(138.37 0 0)
(139.434 0 0)
(140.494 0 0)
(141.556 0 0)
(142.6 0 0)
(143.688 0 0)
(144.631 0 0)
(146.007 0 0)
(216.212 0 0)
(213.745 0 0)
(211.201 0 0)
(208.574 0 0)
(205.859 0 0)
(203.048 0 0)
(200.134 0 0)
(197.11 0 0)
(193.966 0 0)
(190.69 0 0)
(187.271 0 0)
(183.694 0 0)
(179.94 0 0)
(175.991 0 0)
(171.823 0 0)
(167.408 0 0)
(162.714 0 0)
(157.71 0 0)
(152.367 0 0)
(146.681 0 0)
(140.701 0 0)
(134.565 0 0)
(128.502 0 0)
(122.796 0 0)
(117.709 0 0)
(113.413 0 0)
(109.963 0 0)
(107.317 0 0)
(105.378 0 0)
(104.028 0 0)
(103.151 0 0)
(102.65 0 0)
(102.446 0 0)
(102.475 0 0)
(102.689 0 0)
(103.05 0 0)
(103.53 0 0)
(104.106 0 0)
(104.76 0 0)
(105.479 0 0)
(106.251 0 0)
(107.069 0 0)
(107.924 0 0)
(108.81 0 0)
(109.724 0 0)
(110.66 0 0)
(111.616 0 0)
(112.588 0 0)
(113.574 0 0)
(114.573 0 0)
(115.581 0 0)
(116.598 0 0)
(117.623 0 0)
(118.653 0 0)
(119.689 0 0)
(120.729 0 0)
(121.772 0 0)
(122.818 0 0)
(123.866 0 0)
(124.916 0 0)
(125.966 0 0)
(127.017 0 0)
(128.068 0 0)
(129.119 0 0)
(130.169 0 0)
(131.218 0 0)
(132.267 0 0)
(133.314 0 0)
(134.359 0 0)
(135.402 0 0)
(136.444 0 0)
(137.483 0 0)
(138.521 0 0)
(139.554 0 0)
(140.59 0 0)
(141.608 0 0)
(142.668 0 0)
(143.589 0 0)
(144.928 0 0)
(213.819 0 0)
(211.348 0 0)
(208.799 0 0)
(206.166 0 0)
(203.443 0 0)
(200.624 0 0)
(197.701 0 0)
(194.666 0 0)
(191.508 0 0)
(188.217 0 0)
(184.779 0 0)
(181.179 0 0)
(177.399 0 0)
(173.42 0 0)
(169.215 0 0)
(164.759 0 0)
(160.019 0 0)
(154.967 0 0)
(149.585 0 0)
(143.888 0 0)
(137.955 0 0)
(131.954 0 0)
(126.128 0 0)
(120.748 0 0)
(116.035 0 0)
(112.113 0 0)
(108.999 0 0)
(106.631 0 0)
(104.909 0 0)
(103.72 0 0)
(102.959 0 0)
(102.539 0 0)
(102.388 0 0)
(102.45 0 0)
(102.682 0 0)
(103.051 0 0)
(103.529 0 0)
(104.098 0 0)
(104.74 0 0)
(105.443 0 0)
(106.197 0 0)
(106.994 0 0)
(107.827 0 0)
(108.691 0 0)
(109.58 0 0)
(110.491 0 0)
(111.421 0 0)
(112.367 0 0)
(113.327 0 0)
(114.299 0 0)
(115.28 0 0)
(116.271 0 0)
(117.268 0 0)
(118.271 0 0)
(119.28 0 0)
(120.293 0 0)
(121.309 0 0)
(122.328 0 0)
(123.349 0 0)
(124.371 0 0)
(125.395 0 0)
(126.419 0 0)
(127.443 0 0)
(128.467 0 0)
(129.491 0 0)
(130.514 0 0)
(131.536 0 0)
(132.557 0 0)
(133.576 0 0)
(134.593 0 0)
(135.609 0 0)
(136.622 0 0)
(137.633 0 0)
(138.641 0 0)
(139.651 0 0)
(140.644 0 0)
(141.678 0 0)
(142.576 0 0)
(143.88 0 0)
(211.43 0 0)
(208.955 0 0)
(206.4 0 0)
(203.761 0 0)
(201.031 0 0)
(198.203 0 0)
(195.269 0 0)
(192.221 0 0)
(189.049 0 0)
(185.741 0 0)
(182.282 0 0)
(178.659 0 0)
(174.851 0 0)
(170.838 0 0)
(166.596 0 0)
(162.097 0 0)
(157.311 0 0)
(152.216 0 0)
(146.805 0 0)
(141.118 0 0)
(135.264 0 0)
(129.436 0 0)
(123.88 0 0)
(118.842 0 0)
(114.5 0 0)
(110.934 0 0)
(108.132 0 0)
(106.018 0 0)
(104.492 0 0)
(103.447 0 0)
(102.79 0 0)
(102.442 0 0)
(102.339 0 0)
(102.43 0 0)
(102.679 0 0)
(103.053 0 0)
(103.53 0 0)
(104.091 0 0)
(104.721 0 0)
(105.409 0 0)
(106.145 0 0)
(106.923 0 0)
(107.734 0 0)
(108.575 0 0)
(109.44 0 0)
(110.327 0 0)
(111.233 0 0)
(112.154 0 0)
(113.088 0 0)
(114.034 0 0)
(114.989 0 0)
(115.953 0 0)
(116.924 0 0)
(117.902 0 0)
(118.884 0 0)
(119.87 0 0)
(120.86 0 0)
(121.853 0 0)
(122.847 0 0)
(123.844 0 0)
(124.841 0 0)
(125.839 0 0)
(126.837 0 0)
(127.836 0 0)
(128.834 0 0)
(129.831 0 0)
(130.827 0 0)
(131.822 0 0)
(132.815 0 0)
(133.807 0 0)
(134.797 0 0)
(135.785 0 0)
(136.772 0 0)
(137.754 0 0)
(138.739 0 0)
(139.708 0 0)
(140.715 0 0)
(141.592 0 0)
(142.861 0 0)
(209.045 0 0)
(206.565 0 0)
(204.004 0 0)
(201.358 0 0)
(198.62 0 0)
(195.782 0 0)
(192.838 0 0)
(189.777 0 0)
(186.588 0 0)
(183.261 0 0)
(179.781 0 0)
(176.132 0 0)
(172.295 0 0)
(168.247 0 0)
(163.965 0 0)
(159.422 0 0)
(154.592 0 0)
(149.459 0 0)
(144.036 0 0)
(138.385 0 0)
(132.645 0 0)
(127.025 0 0)
(121.765 0 0)
(117.078 0 0)
(113.099 0 0)
(109.87 0 0)
(107.355 0 0)
(105.472 0 0)
(104.122 0 0)
(103.207 0 0)
(102.643 0 0)
(102.359 0 0)
(102.298 0 0)
(102.416 0 0)
(102.678 0 0)
(103.057 0 0)
(103.531 0 0)
(104.085 0 0)
(104.703 0 0)
(105.376 0 0)
(106.095 0 0)
(106.853 0 0)
(107.644 0 0)
(108.463 0 0)
(109.306 0 0)
(110.169 0 0)
(111.051 0 0)
(111.947 0 0)
(112.856 0 0)
(113.777 0 0)
(114.708 0 0)
(115.646 0 0)
(116.592 0 0)
(117.543 0 0)
(118.5 0 0)
(119.461 0 0)
(120.425 0 0)
(121.392 0 0)
(122.361 0 0)
(123.332 0 0)
(124.304 0 0)
(125.277 0 0)
(126.25 0 0)
(127.223 0 0)
(128.196 0 0)
(129.168 0 0)
(130.139 0 0)
(131.109 0 0)
(132.077 0 0)
(133.045 0 0)
(134.01 0 0)
(134.973 0 0)
(135.935 0 0)
(136.893 0 0)
(137.853 0 0)
(138.798 0 0)
(139.779 0 0)
(140.635 0 0)
(141.87 0 0)
(206.663 0 0)
(204.178 0 0)
(201.611 0 0)
(198.958 0 0)
(196.211 0 0)
(193.363 0 0)
(190.406 0 0)
(187.33 0 0)
(184.125 0 0)
(180.778 0 0)
(177.275 0 0)
(173.598 0 0)
(169.729 0 0)
(165.645 0 0)
(161.322 0 0)
(156.735 0 0)
(151.864 0 0)
(146.704 0 0)
(141.287 0 0)
(135.703 0 0)
(130.114 0 0)
(124.735 0 0)
(119.79 0 0)
(115.456 0 0)
(111.826 0 0)
(108.912 0 0)
(106.66 0 0)
(104.985 0 0)
(103.794 0 0)
(102.996 0 0)
(102.515 0 0)
(102.288 0 0)
(102.265 0 0)
(102.406 0 0)
(102.68 0 0)
(103.062 0 0)
(103.534 0 0)
(104.079 0 0)
(104.686 0 0)
(105.345 0 0)
(106.047 0 0)
(106.786 0 0)
(107.557 0 0)
(108.355 0 0)
(109.176 0 0)
(110.017 0 0)
(110.874 0 0)
(111.747 0 0)
(112.633 0 0)
(113.529 0 0)
(114.435 0 0)
(115.349 0 0)
(116.27 0 0)
(117.197 0 0)
(118.129 0 0)
(119.065 0 0)
(120.004 0 0)
(120.946 0 0)
(121.89 0 0)
(122.837 0 0)
(123.784 0 0)
(124.732 0 0)
(125.68 0 0)
(126.629 0 0)
(127.577 0 0)
(128.524 0 0)
(129.471 0 0)
(130.417 0 0)
(131.361 0 0)
(132.304 0 0)
(133.246 0 0)
(134.185 0 0)
(135.122 0 0)
(136.057 0 0)
(136.993 0 0)
(137.914 0 0)
(138.871 0 0)
(139.706 0 0)
(140.907 0 0)
(204.285 0 0)
(201.794 0 0)
(199.221 0 0)
(196.559 0 0)
(193.803 0 0)
(190.944 0 0)
(187.973 0 0)
(184.882 0 0)
(181.659 0 0)
(178.29 0 0)
(174.762 0 0)
(171.056 0 0)
(167.153 0 0)
(163.031 0 0)
(158.666 0 0)
(154.038 0 0)
(149.132 0 0)
(143.959 0 0)
(138.572 0 0)
(133.087 0 0)
(127.683 0 0)
(122.574 0 0)
(117.956 0 0)
(113.97 0 0)
(110.674 0 0)
(108.051 0 0)
(106.039 0 0)
(104.553 0 0)
(103.504 0 0)
(102.81 0 0)
(102.404 0 0)
(102.228 0 0)
(102.239 0 0)
(102.4 0 0)
(102.685 0 0)
(103.069 0 0)
(103.538 0 0)
(104.075 0 0)
(104.67 0 0)
(105.315 0 0)
(106.001 0 0)
(106.722 0 0)
(107.473 0 0)
(108.25 0 0)
(109.05 0 0)
(109.869 0 0)
(110.704 0 0)
(111.554 0 0)
(112.416 0 0)
(113.289 0 0)
(114.171 0 0)
(115.061 0 0)
(115.958 0 0)
(116.861 0 0)
(117.769 0 0)
(118.681 0 0)
(119.596 0 0)
(120.514 0 0)
(121.434 0 0)
(122.356 0 0)
(123.279 0 0)
(124.203 0 0)
(125.128 0 0)
(126.053 0 0)
(126.977 0 0)
(127.901 0 0)
(128.824 0 0)
(129.746 0 0)
(130.667 0 0)
(131.586 0 0)
(132.504 0 0)
(133.419 0 0)
(134.334 0 0)
(135.245 0 0)
(136.157 0 0)
(137.055 0 0)
(137.988 0 0)
(138.803 0 0)
(139.972 0 0)
(201.91 0 0)
(199.413 0 0)
(196.833 0 0)
(194.162 0 0)
(191.396 0 0)
(188.524 0 0)
(185.54 0 0)
(182.431 0 0)
(179.188 0 0)
(175.797 0 0)
(172.241 0 0)
(168.504 0 0)
(164.566 0 0)
(160.405 0 0)
(156 0 0)
(151.333 0 0)
(146.402 0 0)
(141.233 0 0)
(135.905 0 0)
(130.554 0 0)
(125.368 0 0)
(120.549 0 0)
(116.265 0 0)
(112.617 0 0)
(109.634 0 0)
(107.28 0 0)
(105.486 0 0)
(104.17 0 0)
(103.248 0 0)
(102.648 0 0)
(102.308 0 0)
(102.178 0 0)
(102.219 0 0)
(102.398 0 0)
(102.691 0 0)
(103.078 0 0)
(103.542 0 0)
(104.072 0 0)
(104.656 0 0)
(105.286 0 0)
(105.956 0 0)
(106.66 0 0)
(107.392 0 0)
(108.15 0 0)
(108.929 0 0)
(109.726 0 0)
(110.54 0 0)
(111.367 0 0)
(112.207 0 0)
(113.057 0 0)
(113.916 0 0)
(114.783 0 0)
(115.657 0 0)
(116.536 0 0)
(117.421 0 0)
(118.309 0 0)
(119.201 0 0)
(120.096 0 0)
(120.992 0 0)
(121.891 0 0)
(122.791 0 0)
(123.691 0 0)
(124.593 0 0)
(125.494 0 0)
(126.395 0 0)
(127.296 0 0)
(128.196 0 0)
(129.095 0 0)
(129.992 0 0)
(130.889 0 0)
(131.784 0 0)
(132.677 0 0)
(133.568 0 0)
(134.456 0 0)
(135.346 0 0)
(136.222 0 0)
(137.131 0 0)
(137.926 0 0)
(139.063 0 0)
(199.539 0 0)
(197.035 0 0)
(194.446 0 0)
(191.767 0 0)
(188.988 0 0)
(186.104 0 0)
(183.104 0 0)
(179.977 0 0)
(176.713 0 0)
(173.296 0 0)
(169.712 0 0)
(165.943 0 0)
(161.968 0 0)
(157.768 0 0)
(153.324 0 0)
(148.625 0 0)
(143.682 0 0)
(138.541 0 0)
(133.301 0 0)
(128.117 0 0)
(123.178 0 0)
(118.664 0 0)
(114.712 0 0)
(111.39 0 0)
(108.698 0 0)
(106.59 0 0)
(104.994 0 0)
(103.83 0 0)
(103.023 0 0)
(102.506 0 0)
(102.226 0 0)
(102.137 0 0)
(102.205 0 0)
(102.4 0 0)
(102.7 0 0)
(103.087 0 0)
(103.547 0 0)
(104.069 0 0)
(104.642 0 0)
(105.259 0 0)
(105.913 0 0)
(106.6 0 0)
(107.314 0 0)
(108.052 0 0)
(108.811 0 0)
(109.588 0 0)
(110.381 0 0)
(111.187 0 0)
(112.005 0 0)
(112.833 0 0)
(113.669 0 0)
(114.514 0 0)
(115.365 0 0)
(116.222 0 0)
(117.084 0 0)
(117.949 0 0)
(118.818 0 0)
(119.69 0 0)
(120.564 0 0)
(121.44 0 0)
(122.317 0 0)
(123.195 0 0)
(124.074 0 0)
(124.952 0 0)
(125.831 0 0)
(126.709 0 0)
(127.587 0 0)
(128.463 0 0)
(129.338 0 0)
(130.212 0 0)
(131.085 0 0)
(131.956 0 0)
(132.825 0 0)
(133.691 0 0)
(134.558 0 0)
(135.412 0 0)
(136.298 0 0)
(137.075 0 0)
(138.181 0 0)
(197.17 0 0)
(194.659 0 0)
(192.061 0 0)
(189.371 0 0)
(186.581 0 0)
(183.682 0 0)
(180.665 0 0)
(177.519 0 0)
(174.232 0 0)
(170.789 0 0)
(167.175 0 0)
(163.371 0 0)
(159.36 0 0)
(155.121 0 0)
(150.642 0 0)
(145.92 0 0)
(140.982 0 0)
(135.894 0 0)
(130.776 0 0)
(125.792 0 0)
(121.121 0 0)
(116.921 0 0)
(113.295 0 0)
(110.281 0 0)
(107.859 0 0)
(105.975 0 0)
(104.557 0 0)
(103.53 0 0)
(102.825 0 0)
(102.383 0 0)
(102.156 0 0)
(102.104 0 0)
(102.195 0 0)
(102.404 0 0)
(102.71 0 0)
(103.098 0 0)
(103.553 0 0)
(104.067 0 0)
(104.629 0 0)
(105.232 0 0)
(105.872 0 0)
(106.542 0 0)
(107.239 0 0)
(107.958 0 0)
(108.698 0 0)
(109.455 0 0)
(110.227 0 0)
(111.012 0 0)
(111.809 0 0)
(112.616 0 0)
(113.431 0 0)
(114.254 0 0)
(115.083 0 0)
(115.918 0 0)
(116.757 0 0)
(117.601 0 0)
(118.448 0 0)
(119.298 0 0)
(120.15 0 0)
(121.003 0 0)
(121.858 0 0)
(122.714 0 0)
(123.571 0 0)
(124.428 0 0)
(125.284 0 0)
(126.14 0 0)
(126.996 0 0)
(127.851 0 0)
(128.704 0 0)
(129.556 0 0)
(130.407 0 0)
(131.256 0 0)
(132.104 0 0)
(132.948 0 0)
(133.794 0 0)
(134.626 0 0)
(135.49 0 0)
(136.248 0 0)
(137.324 0 0)
(194.803 0 0)
(192.284 0 0)
(189.678 0 0)
(186.976 0 0)
(184.173 0 0)
(181.258 0 0)
(178.223 0 0)
(175.056 0 0)
(171.744 0 0)
(168.274 0 0)
(164.628 0 0)
(160.79 0 0)
(156.741 0 0)
(152.466 0 0)
(147.958 0 0)
(143.227 0 0)
(138.315 0 0)
(133.309 0 0)
(128.345 0 0)
(123.588 0 0)
(119.203 0 0)
(115.318 0 0)
(112.007 0 0)
(109.281 0 0)
(107.108 0 0)
(105.427 0 0)
(104.169 0 0)
(103.264 0 0)
(102.651 0 0)
(102.277 0 0)
(102.097 0 0)
(102.078 0 0)
(102.19 0 0)
(102.411 0 0)
(102.722 0 0)
(103.109 0 0)
(103.56 0 0)
(104.065 0 0)
(104.616 0 0)
(105.207 0 0)
(105.832 0 0)
(106.486 0 0)
(107.166 0 0)
(107.868 0 0)
(108.588 0 0)
(109.326 0 0)
(110.078 0 0)
(110.843 0 0)
(111.62 0 0)
(112.406 0 0)
(113.2 0 0)
(114.002 0 0)
(114.81 0 0)
(115.623 0 0)
(116.442 0 0)
(117.264 0 0)
(118.089 0 0)
(118.918 0 0)
(119.748 0 0)
(120.58 0 0)
(121.414 0 0)
(122.249 0 0)
(123.084 0 0)
(123.919 0 0)
(124.754 0 0)
(125.589 0 0)
(126.423 0 0)
(127.257 0 0)
(128.089 0 0)
(128.92 0 0)
(129.749 0 0)
(130.577 0 0)
(131.404 0 0)
(132.227 0 0)
(133.052 0 0)
(133.864 0 0)
(134.705 0 0)
(135.445 0 0)
(136.492 0 0)
(192.439 0 0)
(189.911 0 0)
(187.294 0 0)
(184.581 0 0)
(181.763 0 0)
(178.832 0 0)
(175.777 0 0)
(172.588 0 0)
(169.25 0 0)
(165.75 0 0)
(162.072 0 0)
(158.198 0 0)
(154.114 0 0)
(149.807 0 0)
(145.28 0 0)
(140.555 0 0)
(135.694 0 0)
(130.802 0 0)
(126.022 0 0)
(121.515 0 0)
(117.425 0 0)
(113.852 0 0)
(110.841 0 0)
(108.383 0 0)
(106.437 0 0)
(104.94 0 0)
(103.825 0 0)
(103.031 0 0)
(102.5 0 0)
(102.185 0 0)
(102.048 0 0)
(102.058 0 0)
(102.189 0 0)
(102.42 0 0)
(102.735 0 0)
(103.121 0 0)
(103.567 0 0)
(104.064 0 0)
(104.605 0 0)
(105.183 0 0)
(105.794 0 0)
(106.433 0 0)
(107.096 0 0)
(107.78 0 0)
(108.483 0 0)
(109.202 0 0)
(109.935 0 0)
(110.68 0 0)
(111.437 0 0)
(112.203 0 0)
(112.977 0 0)
(113.758 0 0)
(114.546 0 0)
(115.338 0 0)
(116.136 0 0)
(116.937 0 0)
(117.742 0 0)
(118.55 0 0)
(119.359 0 0)
(120.171 0 0)
(120.983 0 0)
(121.797 0 0)
(122.611 0 0)
(123.426 0 0)
(124.24 0 0)
(125.054 0 0)
(125.868 0 0)
(126.681 0 0)
(127.492 0 0)
(128.302 0 0)
(129.111 0 0)
(129.919 0 0)
(130.724 0 0)
(131.527 0 0)
(132.331 0 0)
(133.123 0 0)
(133.943 0 0)
(134.666 0 0)
(135.683 0 0)
(190.077 0 0)
(187.539 0 0)
(184.911 0 0)
(182.184 0 0)
(179.351 0 0)
(176.402 0 0)
(173.326 0 0)
(170.113 0 0)
(166.748 0 0)
(163.218 0 0)
(159.506 0 0)
(155.598 0 0)
(151.48 0 0)
(147.149 0 0)
(142.614 0 0)
(137.917 0 0)
(133.134 0 0)
(128.386 0 0)
(123.818 0 0)
(119.579 0 0)
(115.788 0 0)
(112.518 0 0)
(109.789 0 0)
(107.578 0 0)
(105.838 0 0)
(104.507 0 0)
(103.522 0 0)
(102.825 0 0)
(102.368 0 0)
(102.107 0 0)
(102.008 0 0)
(102.044 0 0)
(102.191 0 0)
(102.431 0 0)
(102.749 0 0)
(103.134 0 0)
(103.575 0 0)
(104.064 0 0)
(104.594 0 0)
(105.16 0 0)
(105.757 0 0)
(106.381 0 0)
(107.028 0 0)
(107.695 0 0)
(108.38 0 0)
(109.081 0 0)
(109.796 0 0)
(110.523 0 0)
(111.26 0 0)
(112.006 0 0)
(112.761 0 0)
(113.522 0 0)
(114.29 0 0)
(115.063 0 0)
(115.84 0 0)
(116.622 0 0)
(117.406 0 0)
(118.193 0 0)
(118.983 0 0)
(119.774 0 0)
(120.566 0 0)
(121.36 0 0)
(122.154 0 0)
(122.948 0 0)
(123.742 0 0)
(124.536 0 0)
(125.329 0 0)
(126.122 0 0)
(126.914 0 0)
(127.704 0 0)
(128.493 0 0)
(129.28 0 0)
(130.066 0 0)
(130.849 0 0)
(131.632 0 0)
(132.405 0 0)
(133.204 0 0)
(133.909 0 0)
(134.899 0 0)
(187.716 0 0)
(185.168 0 0)
(182.527 0 0)
(179.786 0 0)
(176.936 0 0)
(173.968 0 0)
(170.87 0 0)
(167.631 0 0)
(164.238 0 0)
(160.677 0 0)
(156.932 0 0)
(152.991 0 0)
(148.845 0 0)
(144.497 0 0)
(139.972 0 0)
(135.325 0 0)
(130.651 0 0)
(126.076 0 0)
(121.743 0 0)
(117.782 0 0)
(114.288 0 0)
(111.308 0 0)
(108.842 0 0)
(106.859 0 0)
(105.305 0 0)
(104.123 0 0)
(103.253 0 0)
(102.645 0 0)
(102.254 0 0)
(102.041 0 0)
(101.976 0 0)
(102.035 0 0)
(102.196 0 0)
(102.444 0 0)
(102.764 0 0)
(103.147 0 0)
(103.583 0 0)
(104.064 0 0)
(104.584 0 0)
(105.138 0 0)
(105.722 0 0)
(106.331 0 0)
(106.962 0 0)
(107.613 0 0)
(108.282 0 0)
(108.965 0 0)
(109.662 0 0)
(110.37 0 0)
(111.089 0 0)
(111.816 0 0)
(112.552 0 0)
(113.294 0 0)
(114.043 0 0)
(114.796 0 0)
(115.554 0 0)
(116.316 0 0)
(117.081 0 0)
(117.848 0 0)
(118.618 0 0)
(119.39 0 0)
(120.162 0 0)
(120.936 0 0)
(121.71 0 0)
(122.485 0 0)
(123.26 0 0)
(124.034 0 0)
(124.808 0 0)
(125.581 0 0)
(126.352 0 0)
(127.123 0 0)
(127.893 0 0)
(128.66 0 0)
(129.426 0 0)
(130.19 0 0)
(130.954 0 0)
(131.707 0 0)
(132.486 0 0)
(133.175 0 0)
(134.137 0 0)
(185.355 0 0)
(182.796 0 0)
(180.142 0 0)
(177.386 0 0)
(174.518 0 0)
(171.529 0 0)
(168.408 0 0)
(165.143 0 0)
(161.72 0 0)
(158.127 0 0)
(154.35 0 0)
(150.379 0 0)
(146.212 0 0)
(141.861 0 0)
(137.366 0 0)
(132.796 0 0)
(128.259 0 0)
(123.883 0 0)
(119.802 0 0)
(116.125 0 0)
(112.921 0 0)
(110.215 0 0)
(107.993 0 0)
(106.216 0 0)
(104.831 0 0)
(103.782 0 0)
(103.017 0 0)
(102.488 0 0)
(102.155 0 0)
(101.985 0 0)
(101.951 0 0)
(102.03 0 0)
(102.204 0 0)
(102.458 0 0)
(102.781 0 0)
(103.161 0 0)
(103.591 0 0)
(104.064 0 0)
(104.575 0 0)
(105.117 0 0)
(105.687 0 0)
(106.282 0 0)
(106.899 0 0)
(107.534 0 0)
(108.186 0 0)
(108.853 0 0)
(109.532 0 0)
(110.223 0 0)
(110.923 0 0)
(111.633 0 0)
(112.35 0 0)
(113.074 0 0)
(113.803 0 0)
(114.538 0 0)
(115.277 0 0)
(116.02 0 0)
(116.766 0 0)
(117.514 0 0)
(118.265 0 0)
(119.017 0 0)
(119.771 0 0)
(120.526 0 0)
(121.281 0 0)
(122.036 0 0)
(122.792 0 0)
(123.547 0 0)
(124.302 0 0)
(125.056 0 0)
(125.808 0 0)
(126.56 0 0)
(127.31 0 0)
(128.059 0 0)
(128.806 0 0)
(129.551 0 0)
(130.296 0 0)
(131.031 0 0)
(131.79 0 0)
(132.462 0 0)
(133.398 0 0)
(182.995 0 0)
(180.424 0 0)
(177.756 0 0)
(174.983 0 0)
(172.096 0 0)
(169.085 0 0)
(165.939 0 0)
(162.647 0 0)
(159.194 0 0)
(155.57 0 0)
(151.763 0 0)
(147.767 0 0)
(143.589 0 0)
(139.251 0 0)
(134.808 0 0)
(130.344 0 0)
(125.971 0 0)
(121.818 0 0)
(117.999 0 0)
(114.604 0 0)
(111.679 0 0)
(109.23 0 0)
(107.233 0 0)
(105.643 0 0)
(104.41 0 0)
(103.482 0 0)
(102.809 0 0)
(102.351 0 0)
(102.071 0 0)
(101.939 0 0)
(101.932 0 0)
(102.029 0 0)
(102.214 0 0)
(102.474 0 0)
(102.797 0 0)
(103.175 0 0)
(103.6 0 0)
(104.065 0 0)
(104.566 0 0)
(105.097 0 0)
(105.655 0 0)
(106.236 0 0)
(106.838 0 0)
(107.458 0 0)
(108.094 0 0)
(108.744 0 0)
(109.407 0 0)
(110.08 0 0)
(110.763 0 0)
(111.455 0 0)
(112.154 0 0)
(112.86 0 0)
(113.572 0 0)
(114.288 0 0)
(115.009 0 0)
(115.733 0 0)
(116.461 0 0)
(117.191 0 0)
(117.923 0 0)
(118.657 0 0)
(119.392 0 0)
(120.128 0 0)
(120.865 0 0)
(121.602 0 0)
(122.339 0 0)
(123.075 0 0)
(123.811 0 0)
(124.547 0 0)
(125.281 0 0)
(126.014 0 0)
(126.746 0 0)
(127.476 0 0)
(128.205 0 0)
(128.931 0 0)
(129.658 0 0)
(130.374 0 0)
(131.114 0 0)
(131.77 0 0)
(132.68 0 0)
(180.635 0 0)
(178.05 0 0)
(175.367 0 0)
(172.576 0 0)
(169.669 0 0)
(166.635 0 0)
(163.464 0 0)
(160.143 0 0)
(156.661 0 0)
(153.007 0 0)
(149.174 0 0)
(145.161 0 0)
(140.984 0 0)
(136.68 0 0)
(132.314 0 0)
(127.982 0 0)
(123.8 0 0)
(119.885 0 0)
(116.335 0 0)
(113.217 0 0)
(110.556 0 0)
(108.346 0 0)
(106.553 0 0)
(105.133 0 0)
(104.037 0 0)
(103.216 0 0)
(102.627 0 0)
(102.231 0 0)
(101.998 0 0)
(101.901 0 0)
(101.919 0 0)
(102.032 0 0)
(102.227 0 0)
(102.491 0 0)
(102.815 0 0)
(103.19 0 0)
(103.609 0 0)
(104.066 0 0)
(104.557 0 0)
(105.077 0 0)
(105.623 0 0)
(106.191 0 0)
(106.779 0 0)
(107.384 0 0)
(108.005 0 0)
(108.639 0 0)
(109.285 0 0)
(109.942 0 0)
(110.609 0 0)
(111.283 0 0)
(111.965 0 0)
(112.654 0 0)
(113.348 0 0)
(114.046 0 0)
(114.749 0 0)
(115.456 0 0)
(116.166 0 0)
(116.878 0 0)
(117.592 0 0)
(118.308 0 0)
(119.025 0 0)
(119.743 0 0)
(120.462 0 0)
(121.181 0 0)
(121.899 0 0)
(122.618 0 0)
(123.336 0 0)
(124.053 0 0)
(124.77 0 0)
(125.485 0 0)
(126.199 0 0)
(126.911 0 0)
(127.622 0 0)
(128.33 0 0)
(129.039 0 0)
(129.737 0 0)
(130.459 0 0)
(131.099 0 0)
(131.984 0 0)
(178.274 0 0)
(175.675 0 0)
(172.975 0 0)
(170.165 0 0)
(167.237 0 0)
(164.179 0 0)
(160.982 0 0)
(157.633 0 0)
(154.122 0 0)
(150.441 0 0)
(146.587 0 0)
(142.568 0 0)
(138.409 0 0)
(134.16 0 0)
(129.898 0 0)
(125.725 0 0)
(121.754 0 0)
(118.088 0 0)
(114.807 0 0)
(111.956 0 0)
(109.544 0 0)
(107.553 0 0)
(105.947 0 0)
(104.68 0 0)
(103.706 0 0)
(102.982 0 0)
(102.467 0 0)
(102.128 0 0)
(101.938 0 0)
(101.871 0 0)
(101.91 0 0)
(102.038 0 0)
(102.241 0 0)
(102.509 0 0)
(102.833 0 0)
(103.205 0 0)
(103.618 0 0)
(104.068 0 0)
(104.55 0 0)
(105.059 0 0)
(105.592 0 0)
(106.148 0 0)
(106.722 0 0)
(107.313 0 0)
(107.919 0 0)
(108.538 0 0)
(109.168 0 0)
(109.809 0 0)
(110.459 0 0)
(111.117 0 0)
(111.783 0 0)
(112.454 0 0)
(113.131 0 0)
(113.813 0 0)
(114.498 0 0)
(115.188 0 0)
(115.88 0 0)
(116.575 0 0)
(117.271 0 0)
(117.97 0 0)
(118.669 0 0)
(119.37 0 0)
(120.071 0 0)
(120.773 0 0)
(121.474 0 0)
(122.175 0 0)
(122.876 0 0)
(123.575 0 0)
(124.274 0 0)
(124.972 0 0)
(125.668 0 0)
(126.363 0 0)
(127.056 0 0)
(127.747 0 0)
(128.438 0 0)
(129.119 0 0)
(129.823 0 0)
(130.448 0 0)
(131.308 0 0)
(175.912 0 0)
(173.297 0 0)
(170.58 0 0)
(167.75 0 0)
(164.799 0 0)
(161.717 0 0)
(158.493 0 0)
(155.116 0 0)
(151.579 0 0)
(147.876 0 0)
(144.01 0 0)
(139.997 0 0)
(135.876 0 0)
(131.706 0 0)
(127.574 0 0)
(123.584 0 0)
(119.839 0 0)
(116.428 0 0)
(113.411 0 0)
(110.814 0 0)
(108.634 0 0)
(106.844 0 0)
(105.406 0 0)
(104.277 0 0)
(103.414 0 0)
(102.775 0 0)
(102.327 0 0)
(102.04 0 0)
(101.887 0 0)
(101.848 0 0)
(101.906 0 0)
(102.046 0 0)
(102.257 0 0)
(102.528 0 0)
(102.851 0 0)
(103.22 0 0)
(103.628 0 0)
(104.07 0 0)
(104.542 0 0)
(105.041 0 0)
(105.563 0 0)
(106.106 0 0)
(106.667 0 0)
(107.244 0 0)
(107.835 0 0)
(108.44 0 0)
(109.055 0 0)
(109.68 0 0)
(110.315 0 0)
(110.957 0 0)
(111.606 0 0)
(112.261 0 0)
(112.921 0 0)
(113.586 0 0)
(114.255 0 0)
(114.928 0 0)
(115.603 0 0)
(116.281 0 0)
(116.961 0 0)
(117.643 0 0)
(118.325 0 0)
(119.009 0 0)
(119.693 0 0)
(120.377 0 0)
(121.062 0 0)
(121.746 0 0)
(122.429 0 0)
(123.112 0 0)
(123.794 0 0)
(124.474 0 0)
(125.154 0 0)
(125.832 0 0)
(126.508 0 0)
(127.181 0 0)
(127.856 0 0)
(128.52 0 0)
(129.205 0 0)
(129.816 0 0)
(130.653 0 0)
(173.547 0 0)
(170.917 0 0)
(168.181 0 0)
(165.331 0 0)
(162.356 0 0)
(159.249 0 0)
(155.998 0 0)
(152.596 0 0)
(149.035 0 0)
(145.316 0 0)
(141.449 0 0)
(137.46 0 0)
(133.397 0 0)
(129.331 0 0)
(125.355 0 0)
(121.567 0 0)
(118.059 0 0)
(114.904 0 0)
(112.142 0 0)
(109.784 0 0)
(107.817 0 0)
(106.211 0 0)
(104.926 0 0)
(103.92 0 0)
(103.155 0 0)
(102.594 0 0)
(102.206 0 0)
(101.964 0 0)
(101.845 0 0)
(101.831 0 0)
(101.906 0 0)
(102.057 0 0)
(102.274 0 0)
(102.548 0 0)
(102.87 0 0)
(103.235 0 0)
(103.637 0 0)
(104.072 0 0)
(104.535 0 0)
(105.024 0 0)
(105.535 0 0)
(106.066 0 0)
(106.614 0 0)
(107.177 0 0)
(107.755 0 0)
(108.345 0 0)
(108.946 0 0)
(109.556 0 0)
(110.175 0 0)
(110.801 0 0)
(111.435 0 0)
(112.074 0 0)
(112.718 0 0)
(113.367 0 0)
(114.02 0 0)
(114.677 0 0)
(115.336 0 0)
(115.997 0 0)
(116.661 0 0)
(117.326 0 0)
(117.992 0 0)
(118.659 0 0)
(119.327 0 0)
(119.994 0 0)
(120.662 0 0)
(121.33 0 0)
(121.997 0 0)
(122.663 0 0)
(123.328 0 0)
(123.992 0 0)
(124.655 0 0)
(125.316 0 0)
(125.976 0 0)
(126.633 0 0)
(127.291 0 0)
(127.939 0 0)
(128.607 0 0)
(129.203 0 0)
(130.017 0 0)
(171.181 0 0)
(168.533 0 0)
(165.778 0 0)
(162.906 0 0)
(159.908 0 0)
(156.775 0 0)
(153.499 0 0)
(150.073 0 0)
(146.495 0 0)
(142.769 0 0)
(138.914 0 0)
(134.968 0 0)
(130.987 0 0)
(127.051 0 0)
(123.251 0 0)
(119.68 0 0)
(116.415 0 0)
(113.511 0 0)
(110.992 0 0)
(108.857 0 0)
(107.086 0 0)
(105.646 0 0)
(104.498 0 0)
(103.604 0 0)
(102.927 0 0)
(102.435 0 0)
(102.101 0 0)
(101.899 0 0)
(101.811 0 0)
(101.819 0 0)
(101.909 0 0)
(102.071 0 0)
(102.293 0 0)
(102.568 0 0)
(102.889 0 0)
(103.25 0 0)
(103.647 0 0)
(104.074 0 0)
(104.529 0 0)
(105.008 0 0)
(105.508 0 0)