/*--------------------------------*- C++ -*----------------------------------*\
| =========                 |                                                 |
| \\      /  F ield         | OpenFOAM: The Open Source CFD Toolbox           |
|  \\    /   O peration     | Version:  2312                                  |
|   \\  /    A nd           | Website:  www.openfoam.com                      |
|    \\/     M anipulation  |                                                 |
\*---------------------------------------------------------------------------*/
FoamFile
{
    version     2.0;
    format      ascii;
    arch        "LSB;label=32;scalar=64";
    class       volVectorField;
    location    "2";
    object      flux;
}
// * * * * * * * * * * * * * * * * * * * * * * * * * * * * * * * * * * * * * //

dimensions      [0 1 -1 1 0 0 0];

internalField   nonuniform List<vector> 
100
(
(-5.04573 0 0)
(-4.68209 0 0)
(-4.33176 0 0)
(-3.9947 0 0)
(-3.67079 0 0)
(-3.35993 0 0)
(-3.06199 0 0)
(-2.77678 0 0)
(-2.50415 0 0)
(-2.24388 0 0)
(-1.99575 0 0)
(-1.75955 0 0)
(-1.53502 0 0)
(-1.32191 0 0)
(-1.11995 0 0)
(-0.928869 0 0)
(-0.748386 0 0)
(-0.57821 0 0)
(-0.418047 0 0)
(-0.2676 0 0)
(-0.126568 0 0)
(0.00535391 0 0)
(0.128469 0 0)
(0.243084 0 0)
(0.349502 0 0)
(0.448028 0 0)
(0.538964 0 0)
(0.62261 0 0)
(0.699263 0 0)
(0.769216 0 0)
(0.832759 0 0)
(0.890176 0 0)
(0.941749 0 0)
(0.987753 0 0)
(1.02846 0 0)
(1.06413 0 0)
(1.09502 0 0)
(1.12138 0 0)
(1.14347 0 0)
(1.16151 0 0)
(1.17574 0 0)
(1.18639 0 0)
(1.19367 0 0)
(1.19779 0 0)
(1.19896 0 0)
(1.19737 0 0)
(1.19322 0 0)
(1.18669 0 0)
(1.17794 0 0)
(1.16715 0 0)
(1.15449 0 0)
(1.14009 0 0)
(1.12412 0 0)
(1.10671 0 0)
(1.088 0 0)
(1.06811 0 0)
(1.04716 0 0)
(1.02526 0 0)
(1.00253 0 0)
(0.979069 0 0)
(0.954967 0 0)
(0.930316 0 0)
(0.9052 0 0)
(0.879697 0 0)
(0.853881 0 0)
(0.82782 0 0)
(0.801576 0 0)
(0.775207 0 0)
(0.748765 0 0)
(0.722299 0 0)
(0.695854 0 0)
(0.669467 0 0)
(0.643176 0 0)
(0.61701 0 0)
(0.590999 0 0)
(0.565164 0 0)
(0.539528 0 0)
(0.514106 0 0)
(0.488913 0 0)
(0.463958 0 0)
(0.439251 0 0)
(0.414796 0 0)
(0.390595 0 0)
(0.366649 0 0)
(0.342954 0 0)
(0.319507 0 0)
(0.296301 0 0)
(0.273326 0 0)
(0.250574 0 0)
(0.228033 0 0)
(0.205688 0 0)
(0.183525 0 0)
(0.161528 0 0)
(0.13968 0 0)
(0.117964 0 0)
(0.0963604 0 0)
(0.0748495 0 0)
(0.0534115 0 0)
(0.0320259 0 0)
(0.0106718 0 0)
)
;

boundaryField
{
    movingWall
    {
        type            calculated;
        value           uniform (-5.23089 0 0);
    }
    fixedWalls
    {
        type            calculated;
        value           nonuniform List<vector> 
201
(
(-5.04573 0 0)
(-4.68209 0 0)
(-4.33176 0 0)
(-3.9947 0 0)
(-3.67079 0 0)
(-3.35993 0 0)
(-3.06199 0 0)
(-2.77678 0 0)
(-2.50415 0 0)
(-2.24388 0 0)
(-1.99575 0 0)
(-1.75955 0 0)
(-1.53502 0 0)
(-1.32191 0 0)
(-1.11995 0 0)
(-0.928869 0 0)
(-0.748386 0 0)
(-0.57821 0 0)
(-0.418047 0 0)
(-0.2676 0 0)
(-0.126568 0 0)
(0.00535391 0 0)
(0.128469 0 0)
(0.243084 0 0)
(0.349502 0 0)
(0.448028 0 0)
(0.538964 0 0)
(0.62261 0 0)
(0.699263 0 0)
(0.769216 0 0)
(0.832759 0 0)
(0.890176 0 0)
(0.941749 0 0)
(0.987753 0 0)
(1.02846 0 0)
(1.06413 0 0)
(1.09502 0 0)
(1.12138 0 0)
(1.14347 0 0)
(1.16151 0 0)
(1.17574 0 0)
(1.18639 0 0)
(1.19367 0 0)
(1.19779 0 0)
(1.19896 0 0)
(1.19737 0 0)
(1.19322 0 0)
(1.18669 0 0)
(1.17794 0 0)
(1.16715 0 0)
(1.15449 0 0)
(1.14009 0 0)
(1.12412 0 0)
(1.10671 0 0)
(1.088 0 0)
(1.06811 0 0)
(1.04716 0 0)
(1.02526 0 0)
(1.00253 0 0)
(0.979069 0 0)
(0.954967 0 0)
(0.930316 0 0)
(0.9052 0 0)
(0.879697 0 0)
(0.853881 0 0)
(0.82782 0 0)
(0.801576 0 0)
(0.775207 0 0)
(0.748765 0 0)
(0.722299 0 0)
(0.695854 0 0)
(0.669467 0 0)
(0.643176 0 0)
(0.61701 0 0)
(0.590999 0 0)
(0.565164 0 0)
(0.539528 0 0)
(0.514106 0 0)
(0.488913 0 0)
(0.463958 0 0)
(0.439251 0 0)
(0.414796 0 0)
(0.390595 0 0)
(0.366649 0 0)
(0.342954 0 0)
(0.319507 0 0)
(0.296301 0 0)
(0.273326 0 0)
(0.250574 0 0)
(0.228033 0 0)
(0.205688 0 0)
(0.183525 0 0)
(0.161528 0 0)
(0.13968 0 0)
(0.117964 0 0)
(0.0963604 0 0)
(0.0748495 0 0)
(0.0534115 0 0)
(0.0320259 0 0)
(0.0106718 0 0)
(0 0 0)
(-5.04573 0 0)
(-4.68209 0 0)
(-4.33176 0 0)
(-3.9947 0 0)
(-3.67079 0 0)
(-3.35993 0 0)
(-3.06199 0 0)
(-2.77678 0 0)
(-2.50415 0 0)
(-2.24388 0 0)
(-1.99575 0 0)
(-1.75955 0 0)
(-1.53502 0 0)
(-1.32191 0 0)
(-1.11995 0 0)
(-0.928869 0 0)
(-0.748386 0 0)
(-0.57821 0 0)
(-0.418047 0 0)
(-0.2676 0 0)
(-0.126568 0 0)
(0.00535391 0 0)
(0.128469 0 0)
(0.243084 0 0)
(0.349502 0 0)
(0.448028 0 0)
(0.538964 0 0)
(0.62261 0 0)
(0.699263 0 0)
(0.769216 0 0)
(0.832759 0 0)
(0.890176 0 0)
(0.941749 0 0)
(0.987753 0 0)
(1.02846 0 0)
(1.06413 0 0)
(1.09502 0 0)
(1.12138 0 0)
(1.14347 0 0)
(1.16151 0 0)
(1.17574 0 0)
(1.18639 0 0)
(1.19367 0 0)
(1.19779 0 0)
(1.19896 0 0)
(1.19737 0 0)
(1.19322 0 0)
(1.18669 0 0)
(1.17794 0 0)
(1.16715 0 0)
(1.15449 0 0)
(1.14009 0 0)
(1.12412 0 0)
(1.10671 0 0)
(1.088 0 0)
(1.06811 0 0)
(1.04716 0 0)
(1.02526 0 0)
(1.00253 0 0)
(0.979069 0 0)
(0.954967 0 0)
(0.930316 0 0)
(0.9052 0 0)
(0.879697 0 0)
(0.853881 0 0)
(0.82782 0 0)
(0.801576 0 0)
(0.775207 0 0)
(0.748765 0 0)
(0.722299 0 0)
(0.695854 0 0)
(0.669467 0 0)
(0.643176 0 0)
(0.61701 0 0)
(0.590999 0 0)
(0.565164 0 0)
(0.539528 0 0)
(0.514106 0 0)
(0.488913 0 0)
(0.463958 0 0)
(0.439251 0 0)
(0.414796 0 0)
(0.390595 0 0)
(0.366649 0 0)
(0.342954 0 0)
(0.319507 0 0)
(0.296301 0 0)
(0.273326 0 0)
(0.250574 0 0)
(0.228033 0 0)
(0.205688 0 0)
(0.183525 0 0)
(0.161528 0 0)
(0.13968 0 0)
(0.117964 0 0)
(0.0963604 0 0)
(0.0748495 0 0)
(0.0534115 0 0)
(0.0320259 0 0)
(0.0106718 0 0)
)
;
    }
    frontAndBack
    {
        type            empty;
    }
}


// ************************************************************************* //
