/*--------------------------------*- C++ -*----------------------------------*\
| =========                 |                                                 |
| \\      /  F ield         | OpenFOAM: The Open Source CFD Toolbox           |
|  \\    /   O peration     | Version:  2312                                  |
|   \\  /    A nd           | Website:  www.openfoam.com                      |
|    \\/     M anipulation  |                                                 |
\*---------------------------------------------------------------------------*/
FoamFile
{
    version     2.0;
    format      ascii;
    arch        "LSB;label=32;scalar=64";
    class       volScalarField;
    location    "2";
    object      gradTx;
}
// * * * * * * * * * * * * * * * * * * * * * * * * * * * * * * * * * * * * * //

dimensions      [0 -1 0 1 0 0 0];

internalField   nonuniform List<scalar> 
100
(
-5.04573
-4.68209
-4.33176
-3.9947
-3.67079
-3.35993
-3.06199
-2.77678
-2.50415
-2.24388
-1.99575
-1.75955
-1.53502
-1.32191
-1.11995
-0.928869
-0.748386
-0.57821
-0.418047
-0.2676
-0.126568
0.00535391
0.128469
0.243084
0.349502
0.448028
0.538964
0.62261
0.699263
0.769216
0.832759
0.890176
0.941749
0.987753
1.02846
1.06413
1.09502
1.12138
1.14347
1.16151
1.17574
1.18639
1.19367
1.19779
1.19896
1.19737
1.19322
1.18669
1.17794
1.16715
1.15449
1.14009
1.12412
1.10671
1.088
1.06811
1.04716
1.02526
1.00253
0.979069
0.954967
0.930316
0.9052
0.879697
0.853881
0.82782
0.801576
0.775207
0.748765
0.722299
0.695854
0.669467
0.643176
0.61701
0.590999
0.565164
0.539528
0.514106
0.488913
0.463958
0.439251
0.414796
0.390595
0.366649
0.342954
0.319507
0.296301
0.273326
0.250574
0.228033
0.205688
0.183525
0.161528
0.13968
0.117964
0.0963604
0.0748495
0.0534115
0.0320259
0.0106718
)
;

boundaryField
{
    movingWall
    {
        type            calculated;
        value           uniform -5.23089;
    }
    fixedWalls
    {
        type            calculated;
        value           nonuniform List<scalar> 
201
(
-5.04573
-4.68209
-4.33176
-3.9947
-3.67079
-3.35993
-3.06199
-2.77678
-2.50415
-2.24388
-1.99575
-1.75955
-1.53502
-1.32191
-1.11995
-0.928869
-0.748386
-0.57821
-0.418047
-0.2676
-0.126568
0.00535391
0.128469
0.243084
0.349502
0.448028
0.538964
0.62261
0.699263
0.769216
0.832759
0.890176
0.941749
0.987753
1.02846
1.06413
1.09502
1.12138
1.14347
1.16151
1.17574
1.18639
1.19367
1.19779
1.19896
1.19737
1.19322
1.18669
1.17794
1.16715
1.15449
1.14009
1.12412
1.10671
1.088
1.06811
1.04716
1.02526
1.00253
0.979069
0.954967
0.930316
0.9052
0.879697
0.853881
0.82782
0.801576
0.775207
0.748765
0.722299
0.695854
0.669467
0.643176
0.61701
0.590999
0.565164
0.539528
0.514106
0.488913
0.463958
0.439251
0.414796
0.390595
0.366649
0.342954
0.319507
0.296301
0.273326
0.250574
0.228033
0.205688
0.183525
0.161528
0.13968
0.117964
0.0963604
0.0748495
0.0534115
0.0320259
0.0106718
0
-5.04573
-4.68209
-4.33176
-3.9947
-3.67079
-3.35993
-3.06199
-2.77678
-2.50415
-2.24388
-1.99575
-1.75955
-1.53502
-1.32191
-1.11995
-0.928869
-0.748386
-0.57821
-0.418047
-0.2676
-0.126568
0.00535391
0.128469
0.243084
0.349502
0.448028
0.538964
0.62261
0.699263
0.769216
0.832759
0.890176
0.941749
0.987753
1.02846
1.06413
1.09502
1.12138
1.14347
1.16151
1.17574
1.18639
1.19367
1.19779
1.19896
1.19737
1.19322
1.18669
1.17794
1.16715
1.15449
1.14009
1.12412
1.10671
1.088
1.06811
1.04716
1.02526
1.00253
0.979069
0.954967
0.930316
0.9052
0.879697
0.853881
0.82782
0.801576
0.775207
0.748765
0.722299
0.695854
0.669467
0.643176
0.61701
0.590999
0.565164
0.539528
0.514106
0.488913
0.463958
0.439251
0.414796
0.390595
0.366649
0.342954
0.319507
0.296301
0.273326
0.250574
0.228033
0.205688
0.183525
0.161528
0.13968
0.117964
0.0963604
0.0748495
0.0534115
0.0320259
0.0106718
)
;
    }
    frontAndBack
    {
        type            empty;
    }
}


// ************************************************************************* //
