/*--------------------------------*- C++ -*----------------------------------*\
| =========                 |                                                 |
| \\      /  F ield         | OpenFOAM: The Open Source CFD Toolbox           |
|  \\    /   O peration     | Version:  2312                                  |
|   \\  /    A nd           | Website:  www.openfoam.com                      |
|    \\/     M anipulation  |                                                 |
\*---------------------------------------------------------------------------*/
FoamFile
{
    version     2.0;
    format      ascii;
    arch        "LSB;label=32;scalar=64";
    class       volVectorField;
    location    "0.5";
    object      flux;
}
// * * * * * * * * * * * * * * * * * * * * * * * * * * * * * * * * * * * * * //

dimensions      [0 1 -1 1 0 0 0];

internalField   nonuniform List<vector> 
100
(
(5.43818 0 0)
(5.07425 0 0)
(4.72337 0 0)
(4.38545 0 0)
(4.06042 0 0)
(3.74816 0 0)
(3.44853 0 0)
(3.16138 0 0)
(2.88652 0 0)
(2.62377 0 0)
(2.3729 0 0)
(2.13369 0 0)
(1.90591 0 0)
(1.6893 0 0)
(1.4836 0 0)
(1.28855 0 0)
(1.10387 0 0)
(0.929278 0 0)
(0.764488 0 0)
(0.60921 0 0)
(0.463152 0 0)
(0.326016 0 0)
(0.197509 0 0)
(0.0773337 0 0)
(-0.0348059 0 0)
(-0.139204 0 0)
(-0.236153 0 0)
(-0.325944 0 0)
(-0.408862 0 0)
(-0.485192 0 0)
(-0.555213 0 0)
(-0.619199 0 0)
(-0.677422 0 0)
(-0.730145 0 0)
(-0.777628 0 0)
(-0.820125 0 0)
(-0.857883 0 0)
(-0.891144 0 0)
(-0.920143 0 0)
(-0.945107 0 0)
(-0.96626 0 0)
(-0.983816 0 0)
(-0.997982 0 0)
(-1.00896 0 0)
(-1.01695 0 0)
(-1.02213 0 0)
(-1.02468 0 0)
(-1.02479 0 0)
(-1.02261 0 0)
(-1.0183 0 0)
(-1.01202 0 0)
(-1.00392 0 0)
(-0.994131 0 0)
(-0.982791 0 0)
(-0.970027 0 0)
(-0.955958 0 0)
(-0.9407 0 0)
(-0.924362 0 0)
(-0.907046 0 0)
(-0.88885 0 0)
(-0.869864 0 0)
(-0.850175 0 0)
(-0.829863 0 0)
(-0.809005 0 0)
(-0.787671 0 0)
(-0.765926 0 0)
(-0.743832 0 0)
(-0.721445 0 0)
(-0.698818 0 0)
(-0.675998 0 0)
(-0.65303 0 0)
(-0.629954 0 0)
(-0.606807 0 0)
(-0.58362 0 0)
(-0.560424 0 0)
(-0.537245 0 0)
(-0.514106 0 0)
(-0.491027 0 0)
(-0.468024 0 0)
(-0.445114 0 0)
(-0.422307 0 0)
(-0.399614 0 0)
(-0.377042 0 0)
(-0.354595 0 0)
(-0.332277 0 0)
(-0.31009 0 0)
(-0.288033 0 0)
(-0.266104 0 0)
(-0.2443 0 0)
(-0.222615 0 0)
(-0.201043 0 0)
(-0.179577 0 0)
(-0.158209 0 0)
(-0.136929 0 0)
(-0.115726 0 0)
(-0.0945915 0 0)
(-0.0735124 0 0)
(-0.0524772 0 0)
(-0.0314736 0 0)
(-0.0104891 0 0)
)
;

boundaryField
{
    movingWall
    {
        type            calculated;
        value           uniform (5.6234 0 0);
    }
    fixedWalls
    {
        type            calculated;
        value           nonuniform List<vector> 
201
(
(5.43818 0 0)
(5.07425 0 0)
(4.72337 0 0)
(4.38545 0 0)
(4.06042 0 0)
(3.74816 0 0)
(3.44853 0 0)
(3.16138 0 0)
(2.88652 0 0)
(2.62377 0 0)
(2.3729 0 0)
(2.13369 0 0)
(1.90591 0 0)
(1.6893 0 0)
(1.4836 0 0)
(1.28855 0 0)
(1.10387 0 0)
(0.929278 0 0)
(0.764488 0 0)
(0.60921 0 0)
(0.463152 0 0)
(0.326016 0 0)
(0.197509 0 0)
(0.0773337 0 0)
(-0.0348059 0 0)
(-0.139204 0 0)
(-0.236153 0 0)
(-0.325944 0 0)
(-0.408862 0 0)
(-0.485192 0 0)
(-0.555213 0 0)
(-0.619199 0 0)
(-0.677422 0 0)
(-0.730145 0 0)
(-0.777628 0 0)
(-0.820125 0 0)
(-0.857883 0 0)
(-0.891144 0 0)
(-0.920143 0 0)
(-0.945107 0 0)
(-0.96626 0 0)
(-0.983816 0 0)
(-0.997982 0 0)
(-1.00896 0 0)
(-1.01695 0 0)
(-1.02213 0 0)
(-1.02468 0 0)
(-1.02479 0 0)
(-1.02261 0 0)
(-1.0183 0 0)
(-1.01202 0 0)
(-1.00392 0 0)
(-0.994131 0 0)
(-0.982791 0 0)
(-0.970027 0 0)
(-0.955958 0 0)
(-0.9407 0 0)
(-0.924362 0 0)
(-0.907046 0 0)
(-0.88885 0 0)
(-0.869864 0 0)
(-0.850175 0 0)
(-0.829863 0 0)
(-0.809005 0 0)
(-0.787671 0 0)
(-0.765926 0 0)
(-0.743832 0 0)
(-0.721445 0 0)
(-0.698818 0 0)
(-0.675998 0 0)
(-0.65303 0 0)
(-0.629954 0 0)
(-0.606807 0 0)
(-0.58362 0 0)
(-0.560424 0 0)
(-0.537245 0 0)
(-0.514106 0 0)
(-0.491027 0 0)
(-0.468024 0 0)
(-0.445114 0 0)
(-0.422307 0 0)
(-0.399614 0 0)
(-0.377042 0 0)
(-0.354595 0 0)
(-0.332277 0 0)
(-0.31009 0 0)
(-0.288033 0 0)
(-0.266104 0 0)
(-0.2443 0 0)
(-0.222615 0 0)
(-0.201043 0 0)
(-0.179577 0 0)
(-0.158209 0 0)
(-0.136929 0 0)
(-0.115726 0 0)
(-0.0945915 0 0)
(-0.0735124 0 0)
(-0.0524772 0 0)
(-0.0314736 0 0)
(-0.0104891 0 0)
(0 0 0)
(5.43818 0 0)
(5.07425 0 0)
(4.72337 0 0)
(4.38545 0 0)
(4.06042 0 0)
(3.74816 0 0)
(3.44853 0 0)
(3.16138 0 0)
(2.88652 0 0)
(2.62377 0 0)
(2.3729 0 0)
(2.13369 0 0)
(1.90591 0 0)
(1.6893 0 0)
(1.4836 0 0)
(1.28855 0 0)
(1.10387 0 0)
(0.929278 0 0)
(0.764488 0 0)
(0.60921 0 0)
(0.463152 0 0)
(0.326016 0 0)
(0.197509 0 0)
(0.0773337 0 0)
(-0.0348059 0 0)
(-0.139204 0 0)
(-0.236153 0 0)
(-0.325944 0 0)
(-0.408862 0 0)
(-0.485192 0 0)
(-0.555213 0 0)
(-0.619199 0 0)
(-0.677422 0 0)
(-0.730145 0 0)
(-0.777628 0 0)
(-0.820125 0 0)
(-0.857883 0 0)
(-0.891144 0 0)
(-0.920143 0 0)
(-0.945107 0 0)
(-0.96626 0 0)
(-0.983816 0 0)
(-0.997982 0 0)
(-1.00896 0 0)
(-1.01695 0 0)
(-1.02213 0 0)
(-1.02468 0 0)
(-1.02479 0 0)
(-1.02261 0 0)
(-1.0183 0 0)
(-1.01202 0 0)
(-1.00392 0 0)
(-0.994131 0 0)
(-0.982791 0 0)
(-0.970027 0 0)
(-0.955958 0 0)
(-0.9407 0 0)
(-0.924362 0 0)
(-0.907046 0 0)
(-0.88885 0 0)
(-0.869864 0 0)
(-0.850175 0 0)
(-0.829863 0 0)
(-0.809005 0 0)
(-0.787671 0 0)
(-0.765926 0 0)
(-0.743832 0 0)
(-0.721445 0 0)
(-0.698818 0 0)
(-0.675998 0 0)
(-0.65303 0 0)
(-0.629954 0 0)
(-0.606807 0 0)
(-0.58362 0 0)
(-0.560424 0 0)
(-0.537245 0 0)
(-0.514106 0 0)
(-0.491027 0 0)
(-0.468024 0 0)
(-0.445114 0 0)
(-0.422307 0 0)
(-0.399614 0 0)
(-0.377042 0 0)
(-0.354595 0 0)
(-0.332277 0 0)
(-0.31009 0 0)
(-0.288033 0 0)
(-0.266104 0 0)
(-0.2443 0 0)
(-0.222615 0 0)
(-0.201043 0 0)
(-0.179577 0 0)
(-0.158209 0 0)
(-0.136929 0 0)
(-0.115726 0 0)
(-0.0945915 0 0)
(-0.0735124 0 0)
(-0.0524772 0 0)
(-0.0314736 0 0)
(-0.0104891 0 0)
)
;
    }
    frontAndBack
    {
        type            empty;
    }
}


// ************************************************************************* //
