/*--------------------------------*- C++ -*----------------------------------*\
| =========                 |                                                 |
| \\      /  F ield         | OpenFOAM: The Open Source CFD Toolbox           |
|  \\    /   O peration     | Version:  2312                                  |
|   \\  /    A nd           | Website:  www.openfoam.com                      |
|    \\/     M anipulation  |                                                 |
\*---------------------------------------------------------------------------*/
FoamFile
{
    version     2.0;
    format      ascii;
    arch        "LSB;label=32;scalar=64";
    class       volScalarField;
    location    "0.5";
    object      gradTx;
}
// * * * * * * * * * * * * * * * * * * * * * * * * * * * * * * * * * * * * * //

dimensions      [0 -1 0 1 0 0 0];

internalField   nonuniform List<scalar> 
100
(
5.43818
5.07425
4.72337
4.38545
4.06042
3.74816
3.44853
3.16138
2.88652
2.62377
2.3729
2.13369
1.90591
1.6893
1.4836
1.28855
1.10387
0.929278
0.764488
0.60921
0.463152
0.326016
0.197509
0.0773337
-0.0348059
-0.139204
-0.236153
-0.325944
-0.408862
-0.485192
-0.555213
-0.619199
-0.677422
-0.730145
-0.777628
-0.820125
-0.857883
-0.891144
-0.920143
-0.945107
-0.96626
-0.983816
-0.997982
-1.00896
-1.01695
-1.02213
-1.02468
-1.02479
-1.02261
-1.0183
-1.01202
-1.00392
-0.994131
-0.982791
-0.970027
-0.955958
-0.9407
-0.924362
-0.907046
-0.88885
-0.869864
-0.850175
-0.829863
-0.809005
-0.787671
-0.765926
-0.743832
-0.721445
-0.698818
-0.675998
-0.65303
-0.629954
-0.606807
-0.58362
-0.560424
-0.537245
-0.514106
-0.491027
-0.468024
-0.445114
-0.422307
-0.399614
-0.377042
-0.354595
-0.332277
-0.31009
-0.288033
-0.266104
-0.2443
-0.222615
-0.201043
-0.179577
-0.158209
-0.136929
-0.115726
-0.0945915
-0.0735124
-0.0524772
-0.0314736
-0.0104891
)
;

boundaryField
{
    movingWall
    {
        type            calculated;
        value           uniform 5.6234;
    }
    fixedWalls
    {
        type            calculated;
        value           nonuniform List<scalar> 
201
(
5.43818
5.07425
4.72337
4.38545
4.06042
3.74816
3.44853
3.16138
2.88652
2.62377
2.3729
2.13369
1.90591
1.6893
1.4836
1.28855
1.10387
0.929278
0.764488
0.60921
0.463152
0.326016
0.197509
0.0773337
-0.0348059
-0.139204
-0.236153
-0.325944
-0.408862
-0.485192
-0.555213
-0.619199
-0.677422
-0.730145
-0.777628
-0.820125
-0.857883
-0.891144
-0.920143
-0.945107
-0.96626
-0.983816
-0.997982
-1.00896
-1.01695
-1.02213
-1.02468
-1.02479
-1.02261
-1.0183
-1.01202
-1.00392
-0.994131
-0.982791
-0.970027
-0.955958
-0.9407
-0.924362
-0.907046
-0.88885
-0.869864
-0.850175
-0.829863
-0.809005
-0.787671
-0.765926
-0.743832
-0.721445
-0.698818
-0.675998
-0.65303
-0.629954
-0.606807
-0.58362
-0.560424
-0.537245
-0.514106
-0.491027
-0.468024
-0.445114
-0.422307
-0.399614
-0.377042
-0.354595
-0.332277
-0.31009
-0.288033
-0.266104
-0.2443
-0.222615
-0.201043
-0.179577
-0.158209
-0.136929
-0.115726
-0.0945915
-0.0735124
-0.0524772
-0.0314736
-0.0104891
0
5.43818
5.07425
4.72337
4.38545
4.06042
3.74816
3.44853
3.16138
2.88652
2.62377
2.3729
2.13369
1.90591
1.6893
1.4836
1.28855
1.10387
0.929278
0.764488
0.60921
0.463152
0.326016
0.197509
0.0773337
-0.0348059
-0.139204
-0.236153
-0.325944
-0.408862
-0.485192
-0.555213
-0.619199
-0.677422
-0.730145
-0.777628
-0.820125
-0.857883
-0.891144
-0.920143
-0.945107
-0.96626
-0.983816
-0.997982
-1.00896
-1.01695
-1.02213
-1.02468
-1.02479
-1.02261
-1.0183
-1.01202
-1.00392
-0.994131
-0.982791
-0.970027
-0.955958
-0.9407
-0.924362
-0.907046
-0.88885
-0.869864
-0.850175
-0.829863
-0.809005
-0.787671
-0.765926
-0.743832
-0.721445
-0.698818
-0.675998
-0.65303
-0.629954
-0.606807
-0.58362
-0.560424
-0.537245
-0.514106
-0.491027
-0.468024
-0.445114
-0.422307
-0.399614
-0.377042
-0.354595
-0.332277
-0.31009
-0.288033
-0.266104
-0.2443
-0.222615
-0.201043
-0.179577
-0.158209
-0.136929
-0.115726
-0.0945915
-0.0735124
-0.0524772
-0.0314736
-0.0104891
)
;
    }
    frontAndBack
    {
        type            empty;
    }
}


// ************************************************************************* //
