/*--------------------------------*- C++ -*----------------------------------*\
| =========                 |                                                 |
| \\      /  F ield         | OpenFOAM: The Open Source CFD Toolbox           |
|  \\    /   O peration     | Version:  2206                                  |
|   \\  /    A nd           | Website:  www.openfoam.com                      |
|    \\/     M anipulation  |                                                 |
\*---------------------------------------------------------------------------*/
FoamFile
{
    version     2.0;
    format      ascii;
    arch        "LSB;label=32;scalar=64";
    class       volScalarField;
    location    "0.8";
    object      wave;
}
// * * * * * * * * * * * * * * * * * * * * * * * * * * * * * * * * * * * * * //

dimensions      [0 0 0 0 0 0 0];

internalField   nonuniform List<scalar> 
100
(
0.770314
0.86139
0.930826
0.976877
0.998387
0.994816
0.966252
0.913415
0.83763
0.740802
0.625363
0.494214
0.350649
0.198275
0.04092
-0.117463
-0.272895
-0.421472
-0.55946
-0.683393
-0.790158
-0.877072
-0.941952
-0.983169
-0.999686
-0.991089
-0.957593
-0.90004
-0.819877
-0.719116
-0.60029
-0.466383
-0.320759
-0.167077
-0.00919807
0.148912
0.303281
0.450032
0.585476
0.706212
0.809206
0.891871
0.952131
0.988471
0.999978
0.986363
0.947969
0.88576
0.801299
0.696707
0.574612
0.438082
0.290546
0.135711
-0.0225331
-0.180211
-0.333362
-0.478138
-0.610903
-0.72832
-0.82744
-0.905772
-0.96135
-0.992777
-0.999263
-0.980645
-0.937391
-0.870588
-0.781914
-0.673596
-0.548356
-0.40934
-0.260041
-0.104209
0.0542416
0.211329
0.363107
0.505764
0.635714
0.749694
0.84484
0.918762
0.969602
0.996084
0.997542
0.973939
0.925869
0.854539
0.761741
0.649807
0.521548
0.380186
0.229273
0.0726009
-0.0858954
-0.242234
-0.392487
-0.53288
-0.659886
-0.770314
)
;

boundaryField
{
    movingWall
    {
        type            calculated;
        value           uniform 0;
    }
    fixedWalls
    {
        type            calculated;
        value           uniform 0;
    }
    frontAndBack
    {
        type            empty;
    }
}


// ************************************************************************* //
