/*--------------------------------*- C++ -*----------------------------------*\
| =========                 |                                                 |
| \\      /  F ield         | OpenFOAM: The Open Source CFD Toolbox           |
|  \\    /   O peration     | Version:  2312                                  |
|   \\  /    A nd           | Website:  www.openfoam.com                      |
|    \\/     M anipulation  |                                                 |
\*---------------------------------------------------------------------------*/
FoamFile
{
    version     2.0;
    format      ascii;
    arch        "LSB;label=32;scalar=64";
    class       volScalarField;
    location    "1.6";
    object      wave;
}
// * * * * * * * * * * * * * * * * * * * * * * * * * * * * * * * * * * * * * //

dimensions      [0 0 0 0 0 0 0];

internalField   nonuniform List<scalar> 
100
(
0.994116
0.964513
0.91068
0.833968
0.736306
0.620145
0.488406
0.344396
0.191735
0.0342562
-0.124083
-0.279305
-0.427509
-0.564974
-0.688246
-0.794227
-0.880256
-0.94417
-0.984365
-0.999831
-0.990178
-0.95565
-0.897114
-0.816041
-0.714466
-0.594943
-0.460474
-0.314436
-0.160499
-0.00252966
0.155503
0.309629
0.455977
0.590869
0.710917
0.813106
0.894868
0.954148
0.989458
0.999911
0.985244
0.945825
0.882645
0.797291
0.691908
0.569142
0.432078
0.284159
0.129101
-0.0291994
-0.186767
-0.339642
-0.483985
-0.616169
-0.732873
-0.831166
-0.908578
-0.963165
-0.993555
-0.998985
-0.979317
-0.935048
-0.867288
-0.777739
-0.668652
-0.542767
-0.403247
-0.253596
-0.0975741
0.060899
0.217842
0.369313
0.511505
0.640848
0.75409
0.848389
0.921374
0.971212
0.996651
0.997052
0.972405
0.923329
0.851056
0.757404
0.644724
0.515846
0.37401
0.222777
0.0659484
-0.0925374
-0.248698
-0.398612
-0.538511
-0.664881
-0.774549
-0.864758
-0.933242
-0.978281
-0.998744
-0.994116
)
;

boundaryField
{
    movingWall
    {
        type            calculated;
        value           uniform 0;
    }
    fixedWalls
    {
        type            calculated;
        value           uniform 0;
    }
    frontAndBack
    {
        type            empty;
    }
}


// ************************************************************************* //
