/*--------------------------------*- C++ -*----------------------------------*\
| =========                 |                                                 |
| \\      /  F ield         | OpenFOAM: The Open Source CFD Toolbox           |
|  \\    /   O peration     | Version:  2206                                  |
|   \\  /    A nd           | Website:  www.openfoam.com                      |
|    \\/     M anipulation  |                                                 |
\*---------------------------------------------------------------------------*/
FoamFile
{
    version     2.0;
    format      ascii;
    arch        "LSB;label=32;scalar=64";
    class       volScalarField;
    location    "0.7";
    object      wave;
}
// * * * * * * * * * * * * * * * * * * * * * * * * * * * * * * * * * * * * * //

dimensions      [0 0 0 0 0 0 0];

internalField   nonuniform List<scalar> 
100
(
0.702805
0.806377
0.88969
0.950652
0.987732
0.999998
0.987142
0.949486
0.887978
0.804161
0.700142
0.578534
0.442392
0.295136
0.140465
-0.017734
-0.175488
-0.328833
-0.473917
-0.607095
-0.725022
-0.824735
-0.903728
-0.960018
-0.99219
-0.999436
-0.981573
-0.939052
-0.87294
-0.784897
-0.677136
-0.552364
-0.413715
-0.264673
-0.108981
0.0494479
0.206635
0.358631
0.501617
0.632002
0.746509
0.842262
0.916856
0.968416
0.995648
0.997866
0.975017
0.927672
0.857022
0.764842
0.653448
0.525637
0.384621
0.233943
0.0773875
-0.0811121
-0.237574
-0.388068
-0.528812
-0.656271
-0.767244
-0.858942
-0.929061
-0.97584
-0.998103
-0.995293
-0.967478
-0.915358
-0.840242
-0.744018
-0.629102
-0.498381
-0.355141
-0.202978
-0.0457159
0.112695
0.268274
0.417114
0.555474
0.679881
0.787206
0.874756
0.94033
0.982281
0.999554
0.991717
0.958965
0.902122
0.822616
0.722444
0.604122
0.470624
0.325302
0.171808
0.0139981
-0.144164
-0.298704
-0.44574
-0.581578
-0.702805
)
;

boundaryField
{
    movingWall
    {
        type            calculated;
        value           uniform 0;
    }
    fixedWalls
    {
        type            calculated;
        value           uniform 0;
    }
    frontAndBack
    {
        type            empty;
    }
}


// ************************************************************************* //
