/*--------------------------------*- C++ -*----------------------------------*\
| =========                 |                                                 |
| \\      /  F ield         | OpenFOAM: The Open Source CFD Toolbox           |
|  \\    /   O peration     | Version:  2312                                  |
|   \\  /    A nd           | Website:  www.openfoam.com                      |
|    \\/     M anipulation  |                                                 |
\*---------------------------------------------------------------------------*/
FoamFile
{
    version     2.0;
    format      ascii;
    arch        "LSB;label=32;scalar=64";
    class       volVectorField;
    location    "0.873";
    object      U;
}
// * * * * * * * * * * * * * * * * * * * * * * * * * * * * * * * * * * * * * //

dimensions      [0 1 -1 0 0 0 0];

internalField   nonuniform List<vector> 
31205
(
(229.019 0 0)
(231.354 0 0)
(233.625 0 0)
(235.837 0 0)
(237.991 0 0)
(240.09 0 0)
(242.136 0 0)
(244.131 0 0)
(246.076 0 0)
(247.973 0 0)
(249.824 0 0)
(251.63 0 0)
(253.392 0 0)
(255.112 0 0)
(256.791 0 0)
(258.429 0 0)
(260.028 0 0)
(261.589 0 0)
(263.112 0 0)
(264.599 0 0)
(266.049 0 0)
(267.465 0 0)
(268.845 0 0)
(270.192 0 0)
(271.505 0 0)
(272.786 0 0)
(274.034 0 0)
(275.25 0 0)
(276.434 0 0)
(277.587 0 0)
(278.709 0 0)
(279.801 0 0)
(280.862 0 0)
(281.894 0 0)
(282.896 0 0)
(283.868 0 0)
(284.811 0 0)
(285.725 0 0)
(286.61 0 0)
(287.466 0 0)
(288.293 0 0)
(289.092 0 0)
(289.861 0 0)
(290.602 0 0)
(291.315 0 0)
(291.999 0 0)
(292.653 0 0)
(293.279 0 0)
(293.877 0 0)
(294.445 0 0)
(294.983 0 0)
(295.493 0 0)
(295.972 0 0)
(296.422 0 0)
(296.842 0 0)
(297.231 0 0)
(297.589 0 0)
(297.916 0 0)
(298.212 0 0)
(298.475 0 0)
(298.706 0 0)
(298.903 0 0)
(299.067 0 0)
(299.196 0 0)
(299.29 0 0)
(299.348 0 0)
(299.37 0 0)
(299.353 0 0)
(299.297 0 0)
(299.202 0 0)
(299.065 0 0)
(298.886 0 0)
(298.662 0 0)
(298.394 0 0)
(298.073 0 0)
(297.717 0 0)
(297.268 0 0)
(296.878 0 0)
(296.117 0 0)
(231.495 0 0)
(233.696 0 0)
(235.84 0 0)
(237.931 0 0)
(239.969 0 0)
(241.957 0 0)
(243.897 0 0)
(245.791 0 0)
(247.639 0 0)
(249.443 0 0)
(251.205 0 0)
(252.925 0 0)
(254.605 0 0)
(256.247 0 0)
(257.85 0 0)
(259.415 0 0)
(260.945 0 0)
(262.439 0 0)
(263.898 0 0)
(265.322 0 0)
(266.714 0 0)
(268.072 0 0)
(269.398 0 0)
(270.692 0 0)
(271.955 0 0)
(273.187 0 0)
(274.389 0 0)
(275.561 0 0)
(276.703 0 0)
(277.816 0 0)
(278.9 0 0)
(279.955 0 0)
(280.982 0 0)
(281.98 0 0)
(282.951 0 0)
(283.894 0 0)
(284.809 0 0)
(285.697 0 0)
(286.557 0 0)
(287.39 0 0)
(288.197 0 0)
(288.976 0 0)
(289.728 0 0)
(290.453 0 0)
(291.151 0 0)
(291.822 0 0)
(292.465 0 0)
(293.082 0 0)
(293.672 0 0)
(294.234 0 0)
(294.769 0 0)
(295.276 0 0)
(295.755 0 0)
(296.206 0 0)
(296.629 0 0)
(297.024 0 0)
(297.389 0 0)
(297.726 0 0)
(298.032 0 0)
(298.309 0 0)
(298.556 0 0)
(298.772 0 0)
(298.956 0 0)
(299.109 0 0)
(299.229 0 0)
(299.316 0 0)
(299.369 0 0)
(299.387 0 0)
(299.369 0 0)
(299.315 0 0)
(299.223 0 0)
(299.093 0 0)
(298.922 0 0)
(298.712 0 0)
(298.454 0 0)
(298.164 0 0)
(297.794 0 0)
(297.47 0 0)
(296.833 0 0)
(233.939 0 0)
(236.013 0 0)
(238.036 0 0)
(240.01 0 0)
(241.938 0 0)
(243.82 0 0)
(245.658 0 0)
(247.454 0 0)
(249.209 0 0)
(250.923 0 0)
(252.599 0 0)
(254.237 0 0)
(255.837 0 0)
(257.402 0 0)
(258.931 0 0)
(260.426 0 0)
(261.888 0 0)
(263.316 0 0)
(264.712 0 0)
(266.076 0 0)
(267.409 0 0)
(268.712 0 0)
(269.984 0 0)
(271.227 0 0)
(272.44 0 0)
(273.625 0 0)
(274.781 0 0)
(275.909 0 0)
(277.009 0 0)
(278.082 0 0)
(279.127 0 0)
(280.146 0 0)
(281.138 0 0)
(282.103 0 0)
(283.042 0 0)
(283.955 0 0)
(284.842 0 0)
(285.704 0 0)
(286.539 0 0)
(287.349 0 0)
(288.133 0 0)
(288.892 0 0)
(289.625 0 0)
(290.333 0 0)
(291.016 0 0)
(291.673 0 0)
(292.304 0 0)
(292.91 0 0)
(293.491 0 0)
(294.046 0 0)
(294.575 0 0)
(295.078 0 0)
(295.554 0 0)
(296.005 0 0)
(296.429 0 0)
(296.826 0 0)
(297.197 0 0)
(297.54 0 0)
(297.855 0 0)
(298.143 0 0)
(298.402 0 0)
(298.633 0 0)
(298.834 0 0)
(299.006 0 0)
(299.148 0 0)
(299.259 0 0)
(299.339 0 0)
(299.387 0 0)
(299.402 0 0)
(299.383 0 0)
(299.33 0 0)
(299.242 0 0)
(299.117 0 0)
(298.956 0 0)
(298.752 0 0)
(298.519 0 0)
(298.216 0 0)
(297.949 0 0)
(297.419 0 0)
(236.287 0 0)
(238.242 0 0)
(240.152 0 0)
(242.018 0 0)
(243.842 0 0)
(245.624 0 0)
(247.367 0 0)
(249.071 0 0)
(250.737 0 0)
(252.367 0 0)
(253.961 0 0)
(255.52 0 0)
(257.045 0 0)
(258.536 0 0)
(259.996 0 0)
(261.423 0 0)
(262.819 0 0)
(264.185 0 0)
(265.521 0 0)
(266.827 0 0)
(268.104 0 0)
(269.352 0 0)
(270.573 0 0)
(271.765 0 0)
(272.931 0 0)
(274.069 0 0)
(275.181 0 0)
(276.267 0 0)
(277.326 0 0)
(278.36 0 0)
(279.368 0 0)
(280.351 0 0)
(281.309 0 0)
(282.242 0 0)
(283.15 0 0)
(284.034 0 0)
(284.893 0 0)
(285.728 0 0)
(286.538 0 0)
(287.325 0 0)
(288.088 0 0)
(288.826 0 0)
(289.541 0 0)
(290.231 0 0)
(290.898 0 0)
(291.541 0 0)
(292.159 0 0)
(292.754 0 0)
(293.325 0 0)
(293.871 0 0)
(294.393 0 0)
(294.891 0 0)
(295.364 0 0)
(295.813 0 0)
(296.237 0 0)
(296.635 0 0)
(297.009 0 0)
(297.357 0 0)
(297.679 0 0)
(297.975 0 0)
(298.244 0 0)
(298.487 0 0)
(298.703 0 0)
(298.892 0 0)
(299.052 0 0)
(299.184 0 0)
(299.287 0 0)
(299.36 0 0)
(299.403 0 0)
(299.416 0 0)
(299.397 0 0)
(299.345 0 0)
(299.26 0 0)
(299.142 0 0)
(298.986 0 0)
(298.803 0 0)
(298.557 0 0)
(298.34 0 0)
(297.9 0 0)
(238.517 0 0)
(240.363 0 0)
(242.168 0 0)
(243.933 0 0)
(245.66 0 0)
(247.349 0 0)
(249.002 0 0)
(250.62 0 0)
(252.203 0 0)
(253.753 0 0)
(255.269 0 0)
(256.754 0 0)
(258.208 0 0)
(259.63 0 0)
(261.023 0 0)
(262.387 0 0)
(263.721 0 0)
(265.027 0 0)
(266.305 0 0)
(267.556 0 0)
(268.779 0 0)
(269.977 0 0)
(271.147 0 0)
(272.292 0 0)
(273.412 0 0)
(274.506 0 0)
(275.575 0 0)
(276.62 0 0)
(277.64 0 0)
(278.637 0 0)
(279.609 0 0)
(280.557 0 0)
(281.482 0 0)
(282.383 0 0)
(283.262 0 0)
(284.117 0 0)
(284.949 0 0)
(285.758 0 0)
(286.545 0 0)
(287.308 0 0)
(288.049 0 0)
(288.768 0 0)
(289.464 0 0)
(290.137 0 0)
(290.788 0 0)
(291.416 0 0)
(292.022 0 0)
(292.605 0 0)
(293.166 0 0)
(293.703 0 0)
(294.218 0 0)
(294.71 0 0)
(295.179 0 0)
(295.625 0 0)
(296.047 0 0)
(296.446 0 0)
(296.821 0 0)
(297.173 0 0)
(297.5 0 0)
(297.803 0 0)
(298.081 0 0)
(298.335 0 0)
(298.563 0 0)
(298.765 0 0)
(298.942 0 0)
(299.092 0 0)
(299.215 0 0)
(299.311 0 0)
(299.379 0 0)
(299.419 0 0)
(299.43 0 0)
(299.411 0 0)
(299.361 0 0)
(299.281 0 0)
(299.167 0 0)
(299.027 0 0)
(298.833 0 0)
(298.66 0 0)
(298.299 0 0)
(240.628 0 0)
(242.373 0 0)
(244.08 0 0)
(245.751 0 0)
(247.388 0 0)
(248.99 0 0)
(250.559 0 0)
(252.096 0 0)
(253.601 0 0)
(255.076 0 0)
(256.52 0 0)
(257.935 0 0)
(259.321 0 0)
(260.678 0 0)
(262.008 0 0)
(263.311 0 0)
(264.586 0 0)
(265.836 0 0)
(267.059 0 0)
(268.257 0 0)
(269.43 0 0)
(270.578 0 0)
(271.702 0 0)
(272.801 0 0)
(273.877 0 0)
(274.929 0 0)
(275.958 0 0)
(276.963 0 0)
(277.946 0 0)
(278.906 0 0)
(279.843 0 0)
(280.759 0 0)
(281.652 0 0)
(282.523 0 0)
(283.372 0 0)
(284.2 0 0)
(285.005 0 0)
(285.79 0 0)
(286.553 0 0)
(287.294 0 0)
(288.014 0 0)
(288.713 0 0)
(289.391 0 0)
(290.047 0 0)
(290.683 0 0)
(291.297 0 0)
(291.889 0 0)
(292.461 0 0)
(293.011 0 0)
(293.539 0 0)
(294.047 0 0)
(294.532 0 0)
(294.996 0 0)
(295.439 0 0)
(295.859 0 0)
(296.258 0 0)
(296.634 0 0)
(296.988 0 0)
(297.319 0 0)
(297.627 0 0)
(297.913 0 0)
(298.175 0 0)
(298.413 0 0)
(298.628 0 0)
(298.819 0 0)
(298.985 0 0)
(299.126 0 0)
(299.242 0 0)
(299.332 0 0)
(299.396 0 0)
(299.433 0 0)
(299.443 0 0)
(299.425 0 0)
(299.379 0 0)
(299.302 0 0)
(299.201 0 0)
(299.052 0 0)
(298.919 0 0)
(298.626 0 0)
(242.626 0 0)
(244.276 0 0)
(245.892 0 0)
(247.476 0 0)
(249.028 0 0)
(250.549 0 0)
(252.039 0 0)
(253.5 0 0)
(254.932 0 0)
(256.336 0 0)
(257.712 0 0)
(259.061 0 0)
(260.383 0 0)
(261.679 0 0)
(262.95 0 0)
(264.195 0 0)
(265.415 0 0)
(266.611 0 0)
(267.783 0 0)
(268.931 0 0)
(270.055 0 0)
(271.156 0 0)
(272.235 0 0)
(273.291 0 0)
(274.325 0 0)
(275.336 0 0)
(276.326 0 0)
(277.294 0 0)
(278.241 0 0)
(279.166 0 0)
(280.07 0 0)
(280.954 0 0)
(281.816 0 0)
(282.658 0 0)
(283.479 0 0)
(284.28 0 0)
(285.061 0 0)
(285.821 0 0)
(286.561 0 0)
(287.281 0 0)
(287.981 0 0)
(288.661 0 0)
(289.32 0 0)
(289.96 0 0)
(290.58 0 0)
(291.18 0 0)
(291.76 0 0)
(292.319 0 0)
(292.859 0 0)
(293.379 0 0)
(293.878 0 0)
(294.357 0 0)
(294.816 0 0)
(295.254 0 0)
(295.672 0 0)
(296.069 0 0)
(296.445 0 0)
(296.8 0 0)
(297.135 0 0)
(297.447 0 0)
(297.739 0 0)
(298.008 0 0)
(298.256 0 0)
(298.481 0 0)
(298.684 0 0)
(298.864 0 0)
(299.021 0 0)
(299.155 0 0)
(299.265 0 0)
(299.35 0 0)
(299.411 0 0)
(299.447 0 0)
(299.456 0 0)
(299.441 0 0)
(299.397 0 0)
(299.33 0 0)
(299.222 0 0)
(299.123 0 0)
(298.892 0 0)
(244.516 0 0)
(246.079 0 0)
(247.61 0 0)
(249.112 0 0)
(250.585 0 0)
(252.03 0 0)
(253.447 0 0)
(254.837 0 0)
(256.2 0 0)
(257.538 0 0)
(258.849 0 0)
(260.136 0 0)
(261.398 0 0)
(262.636 0 0)
(263.85 0 0)
(265.041 0 0)
(266.208 0 0)
(267.353 0 0)
(268.475 0 0)
(269.576 0 0)
(270.654 0 0)
(271.711 0 0)
(272.747 0 0)
(273.761 0 0)
(274.755 0 0)
(275.728 0 0)
(276.68 0 0)
(277.612 0 0)
(278.525 0 0)
(279.417 0 0)
(280.289 0 0)
(281.142 0 0)
(281.975 0 0)
(282.789 0 0)
(283.583 0 0)
(284.358 0 0)
(285.114 0 0)
(285.851 0 0)
(286.569 0 0)
(287.268 0 0)
(287.948 0 0)
(288.609 0 0)
(289.251 0 0)
(289.875 0 0)
(290.48 0 0)
(291.065 0 0)
(291.632 0 0)
(292.181 0 0)
(292.71 0 0)
(293.22 0 0)
(293.711 0 0)
(294.184 0 0)
(294.637 0 0)
(295.071 0 0)
(295.485 0 0)
(295.88 0 0)
(296.256 0 0)
(296.612 0 0)
(296.948 0 0)
(297.264 0 0)
(297.56 0 0)
(297.836 0 0)
(298.092 0 0)
(298.326 0 0)
(298.54 0 0)
(298.732 0 0)
(298.903 0 0)
(299.052 0 0)
(299.179 0 0)
(299.283 0 0)
(299.365 0 0)
(299.424 0 0)
(299.458 0 0)
(299.47 0 0)
(299.455 0 0)
(299.42 0 0)
(299.347 0 0)
(299.279 0 0)
(299.102 0 0)
(246.308 0 0)
(247.788 0 0)
(249.241 0 0)
(250.667 0 0)
(252.066 0 0)
(253.439 0 0)
(254.787 0 0)
(256.11 0 0)
(257.408 0 0)
(258.683 0 0)
(259.934 0 0)
(261.162 0 0)
(262.367 0 0)
(263.55 0 0)
(264.711 0 0)
(265.85 0 0)
(266.967 0 0)
(268.064 0 0)
(269.139 0 0)
(270.194 0 0)
(271.229 0 0)
(272.243 0 0)
(273.238 0 0)
(274.213 0 0)
(275.168 0 0)
(276.104 0 0)
(277.021 0 0)
(277.919 0 0)
(278.798 0 0)
(279.658 0 0)
(280.5 0 0)
(281.323 0 0)
(282.128 0 0)
(282.915 0 0)
(283.683 0 0)
(284.433 0 0)
(285.166 0 0)
(285.88 0 0)
(286.577 0 0)
(287.255 0 0)
(287.916 0 0)
(288.559 0 0)
(289.184 0 0)
(289.792 0 0)
(290.382 0 0)
(290.954 0 0)
(291.508 0 0)
(292.044 0 0)
(292.563 0 0)
(293.064 0 0)
(293.547 0 0)
(294.012 0 0)
(294.459 0 0)
(294.889 0 0)
(295.299 0 0)
(295.692 0 0)
(296.067 0 0)
(296.423 0 0)
(296.76 0 0)
(297.079 0 0)
(297.378 0 0)
(297.659 0 0)
(297.921 0 0)
(298.163 0 0)
(298.386 0 0)
(298.589 0 0)
(298.772 0 0)
(298.934 0 0)
(299.077 0 0)
(299.198 0 0)
(299.298 0 0)
(299.377 0 0)
(299.434 0 0)
(299.47 0 0)
(299.481 0 0)
(299.473 0 0)
(299.432 0 0)
(299.392 0 0)
(299.264 0 0)
(248.007 0 0)
(249.411 0 0)
(250.79 0 0)
(252.144 0 0)
(253.474 0 0)
(254.78 0 0)
(256.063 0 0)
(257.323 0 0)
(258.56 0 0)
(259.776 0 0)
(260.969 0 0)
(262.142 0 0)
(263.293 0 0)
(264.424 0 0)
(265.534 0 0)
(266.624 0 0)
(267.694 0 0)
(268.745 0 0)
(269.776 0 0)
(270.788 0 0)
(271.781 0 0)
(272.755 0 0)
(273.71 0 0)
(274.647 0 0)
(275.566 0 0)
(276.467 0 0)
(277.35 0 0)
(278.214 0 0)
(279.062 0 0)
(279.891 0 0)
(280.704 0 0)
(281.499 0 0)
(282.276 0 0)
(283.037 0 0)
(283.78 0 0)
(284.506 0 0)
(285.216 0 0)
(285.908 0 0)
(286.584 0 0)
(287.243 0 0)
(287.885 0 0)
(288.51 0 0)
(289.119 0 0)
(289.711 0 0)
(290.286 0 0)
(290.844 0 0)
(291.386 0 0)
(291.911 0 0)
(292.419 0 0)
(292.911 0 0)
(293.385 0 0)
(293.843 0 0)
(294.284 0 0)
(294.708 0 0)
(295.115 0 0)
(295.505 0 0)
(295.877 0 0)
(296.232 0 0)
(296.57 0 0)
(296.891 0 0)
(297.193 0 0)
(297.478 0 0)
(297.745 0 0)
(297.994 0 0)
(298.224 0 0)
(298.436 0 0)
(298.63 0 0)
(298.805 0 0)
(298.96 0 0)
(299.096 0 0)
(299.213 0 0)
(299.31 0 0)
(299.387 0 0)
(299.443 0 0)
(299.478 0 0)
(299.495 0 0)
(299.482 0 0)
(299.467 0 0)
(299.381 0 0)
(249.619 0 0)
(250.952 0 0)
(252.262 0 0)
(253.549 0 0)
(254.813 0 0)
(256.056 0 0)
(257.278 0 0)
(258.479 0 0)
(259.659 0 0)
(260.819 0 0)
(261.958 0 0)
(263.078 0 0)
(264.179 0 0)
(265.26 0 0)
(266.322 0 0)
(267.366 0 0)
(268.391 0 0)
(269.397 0 0)
(270.386 0 0)
(271.357 0 0)
(272.31 0 0)
(273.246 0 0)
(274.164 0 0)
(275.065 0 0)
(275.949 0 0)
(276.815 0 0)
(277.666 0 0)
(278.499 0 0)
(279.316 0 0)
(280.116 0 0)
(280.9 0 0)
(281.668 0 0)
(282.419 0 0)
(283.154 0 0)
(283.874 0 0)
(284.577 0 0)
(285.264 0 0)
(285.935 0 0)
(286.591 0 0)
(287.231 0 0)
(287.854 0 0)
(288.462 0 0)
(289.055 0 0)
(289.631 0 0)
(290.192 0 0)
(290.737 0 0)
(291.267 0 0)
(291.78 0 0)
(292.278 0 0)
(292.76 0 0)
(293.226 0 0)
(293.677 0 0)
(294.111 0 0)
(294.53 0 0)
(294.932 0 0)
(295.318 0 0)
(295.688 0 0)
(296.042 0 0)
(296.38 0 0)
(296.701 0 0)
(297.006 0 0)
(297.294 0 0)
(297.565 0 0)
(297.819 0 0)
(298.056 0 0)
(298.276 0 0)
(298.479 0 0)
(298.664 0 0)
(298.831 0 0)
(298.98 0 0)
(299.112 0 0)
(299.224 0 0)
(299.319 0 0)
(299.394 0 0)
(299.45 0 0)
(299.488 0 0)
(299.501 0 0)
(299.508 0 0)
(299.46 0 0)
(251.151 0 0)
(252.417 0 0)
(253.662 0 0)
(254.886 0 0)
(256.089 0 0)
(257.273 0 0)
(258.437 0 0)
(259.582 0 0)
(260.708 0 0)
(261.815 0 0)
(262.903 0 0)
(263.973 0 0)
(265.025 0 0)
(266.06 0 0)
(267.076 0 0)
(268.076 0 0)
(269.058 0 0)
(270.023 0 0)
(270.972 0 0)
(271.903 0 0)
(272.818 0 0)
(273.717 0 0)
(274.6 0 0)
(275.466 0 0)
(276.317 0 0)
(277.151 0 0)
(277.97 0 0)
(278.773 0 0)
(279.561 0 0)
(280.333 0 0)
(281.09 0 0)
(281.831 0 0)
(282.557 0 0)
(283.268 0 0)
(283.964 0 0)
(284.645 0 0)
(285.311 0 0)
(285.962 0 0)
(286.598 0 0)
(287.219 0 0)
(287.825 0 0)
(288.416 0 0)
(288.992 0 0)
(289.554 0 0)
(290.101 0 0)
(290.633 0 0)
(291.15 0 0)
(291.652 0 0)
(292.14 0 0)
(292.612 0 0)
(293.07 0 0)
(293.513 0 0)
(293.94 0 0)
(294.353 0 0)
(294.751 0 0)
(295.133 0 0)
(295.5 0 0)
(295.852 0 0)
(296.189 0 0)
(296.51 0 0)
(296.816 0 0)
(297.106 0 0)
(297.381 0 0)
(297.64 0 0)
(297.882 0 0)
(298.109 0 0)
(298.319 0 0)
(298.513 0 0)
(298.691 0 0)
(298.852 0 0)
(298.996 0 0)
(299.122 0 0)
(299.232 0 0)
(299.324 0 0)
(299.398 0 0)
(299.456 0 0)
(299.491 0 0)
(299.518 0 0)
(299.504 0 0)
(252.608 0 0)
(253.811 0 0)
(254.995 0 0)
(256.159 0 0)
(257.305 0 0)
(258.433 0 0)
(259.543 0 0)
(260.635 0 0)
(261.709 0 0)
(262.766 0 0)
(263.806 0 0)
(264.829 0 0)
(265.836 0 0)
(266.825 0 0)
(267.799 0 0)
(268.756 0 0)
(269.698 0 0)
(270.624 0 0)
(271.533 0 0)
(272.428 0 0)
(273.307 0 0)
(274.17 0 0)
(275.019 0 0)
(275.852 0 0)
(276.671 0 0)
(277.474 0 0)
(278.263 0 0)
(279.037 0 0)
(279.797 0 0)
(280.542 0 0)
(281.273 0 0)
(281.989 0 0)
(282.691 0 0)
(283.378 0 0)
(284.052 0 0)
(284.711 0 0)
(285.356 0 0)
(285.987 0 0)
(286.604 0 0)
(287.207 0 0)
(287.796 0 0)
(288.371 0 0)
(288.932 0 0)
(289.479 0 0)
(290.012 0 0)
(290.531 0 0)
(291.036 0 0)
(291.527 0 0)
(292.004 0 0)
(292.467 0 0)
(292.916 0 0)
(293.351 0 0)
(293.772 0 0)
(294.179 0 0)
(294.571 0 0)
(294.949 0 0)
(295.314 0 0)
(295.663 0 0)
(295.999 0 0)
(296.319 0 0)
(296.626 0 0)
(296.917 0 0)
(297.194 0 0)
(297.456 0 0)
(297.703 0 0)
(297.936 0 0)
(298.153 0 0)
(298.354 0 0)
(298.541 0 0)
(298.711 0 0)
(298.867 0 0)
(299.006 0 0)
(299.129 0 0)
(299.236 0 0)
(299.326 0 0)
(299.401 0 0)
(299.456 0 0)
(299.501 0 0)
(299.517 0 0)
(253.993 0 0)
(255.138 0 0)
(256.264 0 0)
(257.373 0 0)
(258.464 0 0)
(259.539 0 0)
(260.598 0 0)
(261.64 0 0)
(262.666 0 0)
(263.676 0 0)
(264.67 0 0)
(265.648 0 0)
(266.611 0 0)
(267.559 0 0)
(268.491 0 0)
(269.409 0 0)
(270.312 0 0)
(271.199 0 0)
(272.073 0 0)
(272.932 0 0)
(273.776 0 0)
(274.606 0 0)
(275.422 0 0)
(276.224 0 0)
(277.012 0 0)
(277.786 0 0)
(278.546 0 0)
(279.292 0 0)
(280.025 0 0)
(280.744 0 0)
(281.449 0 0)
(282.141 0 0)
(282.82 0 0)
(283.485 0 0)
(284.137 0 0)
(284.775 0 0)
(285.4 0 0)
(286.012 0 0)
(286.61 0 0)
(287.196 0 0)
(287.768 0 0)
(288.327 0 0)
(288.873 0 0)
(289.405 0 0)
(289.925 0 0)
(290.431 0 0)
(290.924 0 0)
(291.404 0 0)
(291.871 0 0)
(292.325 0 0)
(292.765 0 0)
(293.192 0 0)
(293.606 0 0)
(294.007 0 0)
(294.394 0 0)
(294.768 0 0)
(295.128 0 0)
(295.475 0 0)
(295.808 0 0)
(296.128 0 0)
(296.434 0 0)
(296.727 0 0)
(297.005 0 0)
(297.27 0 0)
(297.521 0 0)
(297.757 0 0)
(297.98 0 0)
(298.188 0 0)
(298.382 0 0)
(298.562 0 0)
(298.726 0 0)
(298.876 0 0)
(299.012 0 0)
(299.132 0 0)
(299.236 0 0)
(299.327 0 0)
(299.399 0 0)
(299.459 0 0)
(299.502 0 0)
(255.312 0 0)
(256.401 0 0)
(257.473 0 0)
(258.53 0 0)
(259.57 0 0)
(260.595 0 0)
(261.605 0 0)
(262.6 0 0)
(263.58 0 0)
(264.545 0 0)
(265.496 0 0)
(266.432 0 0)
(267.354 0 0)
(268.261 0 0)
(269.155 0 0)
(270.035 0 0)
(270.9 0 0)
(271.752 0 0)
(272.591 0 0)
(273.416 0 0)
(274.227 0 0)
(275.025 0 0)
(275.81 0 0)
(276.582 0 0)
(277.34 0 0)
(278.086 0 0)
(278.818 0 0)
(279.538 0 0)
(280.245 0 0)
(280.939 0 0)
(281.62 0 0)
(282.289 0 0)
(282.945 0 0)
(283.588 0 0)
(284.219 0 0)
(284.837 0 0)
(285.443 0 0)
(286.036 0 0)
(286.616 0 0)
(287.185 0 0)
(287.741 0 0)
(288.284 0 0)
(288.815 0 0)
(289.334 0 0)
(289.84 0 0)
(290.334 0 0)
(290.815 0 0)
(291.284 0 0)
(291.741 0 0)
(292.185 0 0)
(292.617 0 0)
(293.036 0 0)
(293.443 0 0)
(293.837 0 0)
(294.218 0 0)
(294.588 0 0)
(294.944 0 0)
(295.288 0 0)
(295.619 0 0)
(295.937 0 0)
(296.242 0 0)
(296.535 0 0)
(296.815 0 0)
(297.081 0 0)
(297.335 0 0)
(297.575 0 0)
(297.802 0 0)
(298.016 0 0)
(298.216 0 0)
(298.403 0 0)
(298.576 0 0)
(298.736 0 0)
(298.881 0 0)
(299.013 0 0)
(299.131 0 0)
(299.234 0 0)
(299.323 0 0)
(299.396 0 0)
(299.463 0 0)
(256.568 0 0)
(257.605 0 0)
(258.626 0 0)
(259.633 0 0)
(260.626 0 0)
(261.604 0 0)
(262.568 0 0)
(263.518 0 0)
(264.455 0 0)
(265.377 0 0)
(266.287 0 0)
(267.183 0 0)
(268.065 0 0)
(268.935 0 0)
(269.791 0 0)
(270.635 0 0)
(271.465 0 0)
(272.283 0 0)
(273.088 0 0)
(273.88 0 0)
(274.66 0 0)
(275.428 0 0)
(276.183 0 0)
(276.926 0 0)
(277.656 0 0)
(278.375 0 0)
(279.081 0 0)
(279.775 0 0)
(280.457 0 0)
(281.127 0 0)
(281.785 0 0)
(282.431 0 0)
(283.065 0 0)
(283.687 0 0)
(284.298 0 0)
(284.897 0 0)
(285.484 0 0)
(286.059 0 0)
(286.622 0 0)
(287.174 0 0)
(287.714 0 0)
(288.242 0 0)
(288.759 0 0)
(289.264 0 0)
(289.757 0 0)
(290.239 0 0)
(290.709 0 0)
(291.167 0 0)
(291.613 0 0)
(292.048 0 0)
(292.471 0 0)
(292.882 0 0)
(293.282 0 0)
(293.67 0 0)
(294.046 0 0)
(294.41 0 0)
(294.762 0 0)
(295.102 0 0)
(295.43 0 0)
(295.747 0 0)
(296.051 0 0)
(296.343 0 0)
(296.623 0 0)
(296.891 0 0)
(297.146 0 0)
(297.389 0 0)
(297.62 0 0)
(297.838 0 0)
(298.044 0 0)
(298.237 0 0)
(298.418 0 0)
(298.585 0 0)
(298.74 0 0)
(298.882 0 0)
(299.01 0 0)
(299.126 0 0)
(299.228 0 0)
(299.314 0 0)
(299.401 0 0)
(257.766 0 0)
(258.753 0 0)
(259.726 0 0)
(260.686 0 0)
(261.633 0 0)
(262.567 0 0)
(263.488 0 0)
(264.396 0 0)
(265.291 0 0)
(266.174 0 0)
(267.044 0 0)
(267.902 0 0)
(268.747 0 0)
(269.58 0 0)
(270.401 0 0)
(271.21 0 0)
(272.007 0 0)
(272.792 0 0)
(273.566 0 0)
(274.327 0 0)
(275.077 0 0)
(275.815 0 0)
(276.542 0 0)
(277.257 0 0)
(277.961 0 0)
(278.653 0 0)
(279.334 0 0)
(280.003 0 0)
(280.661 0 0)
(281.308 0 0)
(281.944 0 0)
(282.568 0 0)
(283.182 0 0)
(283.784 0 0)
(284.375 0 0)
(284.955 0 0)
(285.524 0 0)
(286.081 0 0)
(286.628 0 0)
(287.164 0 0)
(287.688 0 0)
(288.202 0 0)
(288.704 0 0)
(289.196 0 0)
(289.677 0 0)
(290.146 0 0)
(290.605 0 0)
(291.052 0 0)
(291.489 0 0)
(291.914 0 0)
(292.328 0 0)
(292.732 0 0)
(293.124 0 0)
(293.505 0 0)
(293.875 0 0)
(294.234 0 0)
(294.581 0 0)
(294.918 0 0)
(295.243 0 0)
(295.557 0 0)
(295.859 0 0)
(296.151 0 0)
(296.43 0 0)
(296.699 0 0)
(296.956 0 0)
(297.201 0 0)
(297.435 0 0)
(297.657 0 0)
(297.867 0 0)
(298.065 0 0)
(298.252 0 0)
(298.426 0 0)
(298.589 0 0)
(298.739 0 0)
(298.878 0 0)
(299.003 0 0)
(299.118 0 0)
(299.215 0 0)
(299.321 0 0)
(258.907 0 0)
(259.848 0 0)
(260.776 0 0)
(261.692 0 0)
(262.596 0 0)
(263.487 0 0)
(264.367 0 0)
(265.235 0 0)
(266.091 0 0)
(266.936 0 0)
(267.769 0 0)
(268.59 0 0)
(269.4 0 0)
(270.199 0 0)
(270.986 0 0)
(271.763 0 0)
(272.528 0 0)
(273.282 0 0)
(274.025 0 0)
(274.757 0 0)
(275.478 0 0)
(276.188 0 0)
(276.888 0 0)
(277.576 0 0)
(278.254 0 0)
(278.921 0 0)
(279.578 0 0)
(280.224 0 0)
(280.859 0 0)
(281.483 0 0)
(282.098 0 0)
(282.701 0 0)
(283.294 0 0)
(283.877 0 0)
(284.449 0 0)
(285.011 0 0)
(285.562 0 0)
(286.103 0 0)
(286.633 0 0)
(287.154 0 0)
(287.663 0 0)
(288.162 0 0)
(288.651 0 0)
(289.13 0 0)
(289.598 0 0)
(290.056 0 0)
(290.503 0 0)
(290.94 0 0)
(291.367 0 0)
(291.783 0 0)
(292.189 0 0)
(292.584 0 0)
(292.969 0 0)
(293.343 0 0)
(293.707 0 0)
(294.06 0 0)
(294.403 0 0)
(294.736 0 0)
(295.057 0 0)
(295.369 0 0)
(295.669 0 0)
(295.959 0 0)
(296.238 0 0)
(296.506 0 0)
(296.764 0 0)
(297.01 0 0)
(297.246 0 0)
(297.471 0 0)
(297.685 0 0)
(297.888 0 0)
(298.079 0 0)
(298.26 0 0)
(298.429 0 0)
(298.587 0 0)
(298.734 0 0)
(298.869 0 0)
(298.994 0 0)
(299.1 0 0)
(299.222 0 0)
(259.996 0 0)
(260.893 0 0)
(261.779 0 0)
(262.653 0 0)
(263.516 0 0)
(264.368 0 0)
(265.208 0 0)
(266.038 0 0)
(266.857 0 0)
(267.666 0 0)
(268.463 0 0)
(269.25 0 0)
(270.027 0 0)
(270.793 0 0)
(271.548 0 0)
(272.293 0 0)
(273.028 0 0)
(273.752 0 0)
(274.466 0 0)
(275.17 0 0)
(275.863 0 0)
(276.547 0 0)
(277.22 0 0)
(277.883 0 0)
(278.537 0 0)
(279.18 0 0)
(279.813 0 0)
(280.436 0 0)
(281.049 0 0)
(281.653 0 0)
(282.246 0 0)
(282.83 0 0)
(283.403 0 0)
(283.967 0 0)
(284.521 0 0)
(285.065 0 0)
(285.6 0 0)
(286.124 0 0)
(286.639 0 0)
(287.144 0 0)
(287.639 0 0)
(288.124 0 0)
(288.6 0 0)
(289.065 0 0)
(289.521 0 0)
(289.968 0 0)
(290.404 0 0)
(290.831 0 0)
(291.247 0 0)
(291.654 0 0)
(292.052 0 0)
(292.439 0 0)
(292.816 0 0)
(293.184 0 0)
(293.542 0 0)
(293.89 0 0)
(294.227 0 0)
(294.555 0 0)
(294.873 0 0)
(295.181 0 0)
(295.479 0 0)
(295.767 0 0)
(296.045 0 0)
(296.313 0 0)
(296.571 0 0)
(296.818 0 0)
(297.056 0 0)
(297.283 0 0)
(297.499 0 0)
(297.706 0 0)
(297.902 0 0)
(298.087 0 0)
(298.262 0 0)
(298.427 0 0)
(298.581 0 0)
(298.723 0 0)
(298.858 0 0)
(298.972 0 0)
(299.109 0 0)
(261.036 0 0)
(261.891 0 0)
(262.736 0 0)
(263.571 0 0)
(264.395 0 0)
(265.209 0 0)
(266.013 0 0)
(266.807 0 0)
(267.591 0 0)
(268.365 0 0)
(269.129 0 0)
(269.883 0 0)
(270.628 0 0)
(271.362 0 0)
(272.087 0 0)
(272.802 0 0)
(273.508 0 0)
(274.204 0 0)
(274.89 0 0)
(275.567 0 0)
(276.234 0 0)
(276.892 0 0)
(277.541 0 0)
(278.179 0 0)
(278.809 0 0)
(279.429 0 0)
(280.04 0 0)
(280.641 0 0)
(281.233 0 0)
(281.816 0 0)
(282.39 0 0)
(282.954 0 0)
(283.509 0 0)
(284.054 0 0)
(284.591 0 0)
(285.118 0 0)
(285.636 0 0)
(286.144 0 0)
(286.644 0 0)
(287.134 0 0)
(287.615 0 0)
(288.087 0 0)
(288.549 0 0)
(289.003 0 0)
(289.447 0 0)
(289.882 0 0)
(290.307 0 0)
(290.724 0 0)
(291.131 0 0)
(291.529 0 0)
(291.917 0 0)
(292.297 0 0)
(292.667 0 0)
(293.028 0 0)
(293.379 0 0)
(293.721 0 0)
(294.054 0 0)
(294.377 0 0)
(294.691 0 0)
(294.996 0 0)
(295.291 0 0)
(295.577 0 0)
(295.853 0 0)
(296.12 0 0)
(296.377 0 0)
(296.625 0 0)
(296.863 0 0)
(297.092 0 0)
(297.311 0 0)
(297.52 0 0)
(297.719 0 0)
(297.909 0 0)
(298.089 0 0)
(298.259 0 0)
(298.419 0 0)
(298.569 0 0)
(298.711 0 0)
(298.833 0 0)
(298.982 0 0)
(262.028 0 0)
(262.845 0 0)
(263.652 0 0)
(264.449 0 0)
(265.236 0 0)
(266.015 0 0)
(266.784 0 0)
(267.543 0 0)
(268.294 0 0)
(269.035 0 0)
(269.767 0 0)
(270.49 0 0)
(271.204 0 0)
(271.909 0 0)
(272.605 0 0)
(273.291 0 0)
(273.969 0 0)
(274.638 0 0)
(275.298 0 0)
(275.949 0 0)
(276.591 0 0)
(277.225 0 0)
(277.849 0 0)
(278.465 0 0)
(279.071 0 0)
(279.669 0 0)
(280.259 0 0)
(280.839 0 0)
(281.411 0 0)
(281.974 0 0)
(282.528 0 0)
(283.074 0 0)
(283.611 0 0)
(284.139 0 0)
(284.658 0 0)
(285.169 0 0)
(285.671 0 0)
(286.164 0 0)
(286.649 0 0)
(287.125 0 0)
(287.592 0 0)
(288.051 0 0)
(288.5 0 0)
(288.942 0 0)
(289.374 0 0)
(289.798 0 0)
(290.213 0 0)
(290.619 0 0)
(291.017 0 0)
(291.406 0 0)
(291.786 0 0)
(292.157 0 0)
(292.52 0 0)
(292.874 0 0)
(293.219 0 0)
(293.555 0 0)
(293.883 0 0)
(294.202 0 0)
(294.512 0 0)
(294.813 0 0)
(295.105 0 0)
(295.388 0 0)
(295.662 0 0)
(295.928 0 0)
(296.184 0 0)
(296.432 0 0)
(296.67 0 0)
(296.899 0 0)
(297.12 0 0)
(297.331 0 0)
(297.533 0 0)
(297.726 0 0)
(297.91 0 0)
(298.085 0 0)
(298.25 0 0)
(298.406 0 0)
(298.555 0 0)
(298.683 0 0)
(298.843 0 0)
(262.977 0 0)
(263.756 0 0)
(264.527 0 0)
(265.288 0 0)
(266.041 0 0)
(266.786 0 0)
(267.521 0 0)
(268.249 0 0)
(268.967 0 0)
(269.678 0 0)
(270.379 0 0)
(271.073 0 0)
(271.757 0 0)
(272.434 0 0)
(273.102 0 0)
(273.761 0 0)
(274.413 0 0)
(275.056 0 0)
(275.69 0 0)
(276.317 0 0)
(276.935 0 0)
(277.545 0 0)
(278.146 0 0)
(278.739 0 0)
(279.324 0 0)
(279.901 0 0)
(280.47 0 0)
(281.03 0 0)
(281.582 0 0)
(282.126 0 0)
(282.662 0 0)
(283.19 0 0)
(283.709 0 0)
(284.22 0 0)
(284.723 0 0)
(285.218 0 0)
(285.705 0 0)
(286.183 0 0)
(286.654 0 0)
(287.116 0 0)
(287.57 0 0)
(288.015 0 0)
(288.453 0 0)
(288.882 0 0)
(289.303 0 0)
(289.716 0 0)
(290.121 0 0)
(290.517 0 0)
(290.906 0 0)
(291.286 0 0)
(291.657 0 0)
(292.021 0 0)
(292.376 0 0)
(292.723 0 0)
(293.062 0 0)
(293.392 0 0)
(293.714 0 0)
(294.028 0 0)
(294.334 0 0)
(294.631 0 0)
(294.92 0 0)
(295.2 0 0)
(295.472 0 0)
(295.736 0 0)
(295.991 0 0)
(296.238 0 0)
(296.476 0 0)
(296.706 0 0)
(296.927 0 0)
(297.14 0 0)
(297.344 0 0)
(297.54 0 0)
(297.727 0 0)
(297.905 0 0)
(298.075 0 0)
(298.235 0 0)
(298.391 0 0)
(298.524 0 0)
(298.693 0 0)
(263.883 0 0)
(264.628 0 0)
(265.364 0 0)
(266.092 0 0)
(266.812 0 0)
(267.524 0 0)
(268.228 0 0)
(268.925 0 0)
(269.613 0 0)
(270.294 0 0)
(270.966 0 0)
(271.631 0 0)
(272.288 0 0)
(272.938 0 0)
(273.579 0 0)
(274.213 0 0)
(274.839 0 0)
(275.457 0 0)
(276.068 0 0)
(276.671 0 0)
(277.266 0 0)
(277.853 0 0)
(278.432 0 0)
(279.004 0 0)
(279.568 0 0)
(280.125 0 0)
(280.674 0 0)
(281.215 0 0)
(281.748 0 0)
(282.274 0 0)
(282.792 0 0)
(283.302 0 0)
(283.804 0 0)
(284.299 0 0)
(284.787 0 0)
(285.266 0 0)
(285.738 0 0)
(286.202 0 0)
(286.658 0 0)
(287.107 0 0)
(287.548 0 0)
(287.981 0 0)
(288.406 0 0)
(288.824 0 0)
(289.234 0 0)
(289.636 0 0)
(290.031 0 0)
(290.418 0 0)
(290.797 0 0)
(291.168 0 0)
(291.532 0 0)
(291.887 0 0)
(292.235 0 0)
(292.575 0 0)
(292.908 0 0)
(293.232 0 0)
(293.549 0 0)
(293.858 0 0)
(294.158 0 0)
(294.452 0 0)
(294.737 0 0)
(295.014 0 0)
(295.284 0 0)
(295.545 0 0)
(295.799 0 0)
(296.044 0 0)
(296.282 0 0)
(296.512 0 0)
(296.733 0 0)
(296.947 0 0)
(297.153 0 0)
(297.35 0 0)
(297.54 0 0)
(297.721 0 0)
(297.895 0 0)
(298.059 0 0)
(298.22 0 0)
(298.358 0 0)
(298.534 0 0)
(264.75 0 0)
(265.461 0 0)
(266.164 0 0)
(266.861 0 0)
(267.55 0 0)
(268.231 0 0)
(268.905 0 0)
(269.572 0 0)
(270.232 0 0)
(270.884 0 0)
(271.53 0 0)
(272.168 0 0)
(272.798 0 0)
(273.422 0 0)
(274.038 0 0)
(274.647 0 0)
(275.249 0 0)
(275.843 0 0)
(276.431 0 0)
(277.011 0 0)
(277.584 0 0)
(278.15 0 0)
(278.708 0 0)
(279.26 0 0)
(279.804 0 0)
(280.341 0 0)
(280.87 0 0)
(281.393 0 0)
(281.908 0 0)
(282.416 0 0)
(282.917 0 0)
(283.41 0 0)
(283.897 0 0)
(284.376 0 0)
(284.848 0 0)
(285.312 0 0)
(285.77 0 0)
(286.22 0 0)
(286.663 0 0)
(287.098 0 0)
(287.527 0 0)
(287.948 0 0)
(288.361 0 0)
(288.768 0 0)
(289.167 0 0)
(289.559 0 0)
(289.943 0 0)
(290.321 0 0)
(290.691 0 0)
(291.053 0 0)
(291.409 0 0)
(291.756 0 0)
(292.097 0 0)
(292.43 0 0)
(292.756 0 0)
(293.075 0 0)
(293.386 0 0)
(293.689 0 0)
(293.986 0 0)
(294.274 0 0)
(294.556 0 0)
(294.83 0 0)
(295.096 0 0)
(295.356 0 0)
(295.607 0 0)
(295.851 0 0)
(296.088 0 0)
(296.317 0 0)
(296.539 0 0)
(296.753 0 0)
(296.96 0 0)
(297.159 0 0)
(297.35 0 0)
(297.534 0 0)
(297.711 0 0)
(297.878 0 0)
(298.043 0 0)
(298.184 0 0)
(298.368 0 0)
(265.579 0 0)
(266.259 0 0)
(266.931 0 0)
(267.597 0 0)
(268.256 0 0)
(268.909 0 0)
(269.554 0 0)
(270.193 0 0)
(270.826 0 0)
(271.451 0 0)
(272.07 0 0)
(272.683 0 0)
(273.288 0 0)
(273.887 0 0)
(274.479 0 0)
(275.064 0 0)
(275.643 0 0)
(276.215 0 0)
(276.78 0 0)
(277.339 0 0)
(277.891 0 0)
(278.436 0 0)
(278.974 0 0)
(279.506 0 0)
(280.031 0 0)
(280.549 0 0)
(281.06 0 0)
(281.565 0 0)
(282.062 0 0)
(282.554 0 0)
(283.038 0 0)
(283.515 0 0)
(283.986 0 0)
(284.45 0 0)
(284.907 0 0)
(285.357 0 0)
(285.801 0 0)
(286.237 0 0)
(286.667 0 0)
(287.09 0 0)
(287.506 0 0)
(287.915 0 0)
(288.318 0 0)
(288.713 0 0)
(289.102 0 0)
(289.483 0 0)
(289.858 0 0)
(290.226 0 0)
(290.587 0 0)
(290.941 0 0)
(291.288 0 0)
(291.628 0 0)
(291.962 0 0)
(292.288 0 0)
(292.607 0 0)
(292.92 0 0)
(293.225 0 0)
(293.524 0 0)
(293.815 0 0)
(294.1 0 0)
(294.377 0 0)
(294.648 0 0)
(294.911 0 0)
(295.168 0 0)
(295.417 0 0)
(295.659 0 0)
(295.895 0 0)
(296.123 0 0)
(296.344 0 0)
(296.558 0 0)
(296.765 0 0)
(296.965 0 0)
(297.158 0 0)
(297.343 0 0)
(297.522 0 0)
(297.693 0 0)
(297.861 0 0)
(298.006 0 0)
(298.195 0 0)
(266.372 0 0)
(267.022 0 0)
(267.665 0 0)
(268.302 0 0)
(268.933 0 0)
(269.558 0 0)
(270.177 0 0)
(270.789 0 0)
(271.395 0 0)
(271.995 0 0)
(272.589 0 0)
(273.177 0 0)
(273.759 0 0)
(274.334 0 0)
(274.903 0 0)
(275.466 0 0)
(276.022 0 0)
(276.573 0 0)
(277.117 0 0)
(277.655 0 0)
(278.186 0 0)
(278.711 0 0)
(279.23 0 0)
(279.743 0 0)
(280.249 0 0)
(280.75 0 0)
(281.243 0 0)
(281.731 0 0)
(282.212 0 0)
(282.686 0 0)
(283.155 0 0)
(283.617 0 0)
(284.072 0 0)
(284.521 0 0)
(284.964 0 0)
(285.401 0 0)
(285.831 0 0)
(286.254 0 0)
(286.671 0 0)
(287.082 0 0)
(287.486 0 0)
(287.884 0 0)
(288.275 0 0)
(288.66 0 0)
(289.038 0 0)
(289.41 0 0)
(289.775 0 0)
(290.134 0 0)
(290.486 0 0)
(290.832 0 0)
(291.171 0 0)
(291.503 0 0)
(291.829 0 0)
(292.149 0 0)
(292.462 0 0)
(292.768 0 0)
(293.068 0 0)
(293.361 0 0)
(293.648 0 0)
(293.928 0 0)
(294.201 0 0)
(294.468 0 0)
(294.728 0 0)
(294.981 0 0)
(295.228 0 0)
(295.469 0 0)
(295.702 0 0)
(295.929 0 0)
(296.149 0 0)
(296.363 0 0)
(296.57 0 0)
(296.77 0 0)
(296.964 0 0)
(297.151 0 0)
(297.331 0 0)
(297.504 0 0)
(297.674 0 0)
(297.822 0 0)
(298.016 0 0)
(267.131 0 0)
(267.753 0 0)
(268.368 0 0)
(268.978 0 0)
(269.582 0 0)
(270.181 0 0)
(270.774 0 0)
(271.361 0 0)
(271.942 0 0)
(272.518 0 0)
(273.088 0 0)
(273.652 0 0)
(274.211 0 0)
(274.763 0 0)
(275.31 0 0)
(275.852 0 0)
(276.387 0 0)
(276.917 0 0)
(277.441 0 0)
(277.959 0 0)
(278.471 0 0)
(278.977 0 0)
(279.477 0 0)
(279.972 0 0)
(280.461 0 0)
(280.943 0 0)
(281.42 0 0)
(281.891 0 0)
(282.356 0 0)
(282.815 0 0)
(283.268 0 0)
(283.715 0 0)
(284.156 0 0)
(284.591 0 0)
(285.02 0 0)
(285.443 0 0)
(285.86 0 0)
(286.27 0 0)
(286.675 0 0)
(287.074 0 0)