/*--------------------------------*- C++ -*----------------------------------*\
| =========                 |                                                 |
| \\      /  F ield         | OpenFOAM: The Open Source CFD Toolbox           |
|  \\    /   O peration     | Version:  2312                                  |
|   \\  /    A nd           | Website:  www.openfoam.com                      |
|    \\/     M anipulation  |                                                 |
\*---------------------------------------------------------------------------*/
FoamFile
{
    version     2.0;
    format      ascii;
    arch        "LSB;label=32;scalar=64";
    class       surfaceScalarField;
    location    "0.465";
    object      phi;
}
// * * * * * * * * * * * * * * * * * * * * * * * * * * * * * * * * * * * * * //

dimensions      [0 3 -1 0 0 0 0];

oriented        oriented;

internalField   nonuniform List<scalar> 
62015
(
62.4416
0.328341
-62.2036
62.6651
0.324406
62.8752
0.320152
63.073
0.315586
63.2595
0.310715
63.4358
0.305547
63.6026
0.300085
63.7609
0.29434
63.9114
0.288315
64.0551
0.282019
64.1925
0.275457
64.3245
0.268636
64.4516
0.261563
64.5745
0.254245
64.6938
0.246686
64.81
0.238895
64.9239
0.230878
65.0357
0.222641
65.1461
0.214192
65.2555
0.205536
65.3644
0.196681
65.4732
0.187633
65.5822
0.1784
65.692
0.168989
65.8028
0.159406
65.915
0.149658
66.0289
0.139753
66.1448
0.129697
66.263
0.119499
66.3838
0.109165
66.5075
0.0987021
66.6342
0.0881181
66.7641
0.0774213
66.8976
0.066618
67.0347
0.0557166
67.1756
0.0447239
67.3205
0.0336487
67.4695
0.0224974
67.6227
0.0112786
67.7801
0
67.942
-0.0113309
68.1082
-0.0227052
68.279
-0.0341168
68.4542
-0.0455556
68.6338
-0.0570153
68.818
-0.0684866
69.0066
-0.0799624
69.1995
-0.0914335
69.3968
-0.102893
69.5983
-0.114332
69.8039
-0.125742
70.0134
-0.137115
70.2267
-0.148442
70.4437
-0.159717
70.6641
-0.170929
70.8876
-0.18207
71.1141
-0.193133
71.3432
-0.204108
71.5747
-0.214987
71.8081
-0.225761
72.0432
-0.236422
72.2795
-0.246961
72.5166
-0.257369
72.754
-0.267637
72.9911
-0.277756
73.2274
-0.287718
73.4624
-0.297511
73.6952
-0.307129
73.9252
-0.31656
74.1516
-0.325796
74.3735
-0.334825
74.5899
-0.343638
74.7999
-0.352224
75.0015
-0.360575
75.1964
-0.368665
75.3749
-0.376525
75.5576
-0.384025
75.6797
-0.391478
-0.397938
75.9139
61.0446
0.652049
-60.8445
61.2326
0.643912
61.4091
0.635169
61.5752
0.625833
61.7317
0.615915
61.8794
0.60543
62.0193
0.594387
62.1519
0.582801
62.2782
0.570682
62.3987
0.558043
62.5141
0.544896
62.6251
0.531253
62.7322
0.517126
62.836
0.502528
62.9371
0.48747
63.036
0.471966
63.1331
0.456027
63.229
0.439667
63.3241
0.422898
63.4188
0.405732
63.5136
0.388183
63.6087
0.370264
63.7047
0.351988
63.8018
0.333368
63.9005
0.314417
64.0009
0.29515
64.1034
0.27558
64.2083
0.25572
64.3159
0.235585
64.4263
0.215188
64.5399
0.194544
64.6568
0.173667
64.7773
0.152571
64.9015
0.13127
65.0296
0.10978
65.1618
0.0881148
65.2981
0.0662893
65.4388
0.0443182
65.5838
0.0222169
65.7334
0
65.8875
-0.0223172
66.0463
-0.0447192
66.2097
-0.0671914
66.3777
-0.0897181
66.5505
-0.112283
66.728
-0.134872
66.9101
-0.157469
67.0968
-0.180057
67.288
-0.202622
67.4837
-0.225148
67.6838
-0.247618
67.8881
-0.270018
68.0965
-0.29233
68.3088
-0.314539
68.5249
-0.336629
68.7446
-0.358584
68.9675
-0.380387
69.1936
-0.402022
69.4224
-0.423473
69.6538
-0.444723
69.8873
-0.465756
70.1227
-0.486556
70.3595
-0.507105
70.5973
-0.527386
70.8357
-0.547384
71.0741
-0.567079
71.312
-0.586456
71.5489
-0.605497
71.7842
-0.624184
72.017
-0.642498
72.2468
-0.660422
72.4726
-0.677936
72.6938
-0.695019
72.9086
-0.71166
73.1182
-0.727814
73.3153
-0.743526
73.5162
-0.758585
73.6688
-0.773509
-0.786719
73.9134
59.6731
0.971044
-59.5077
59.8284
0.958472
59.974
0.945036
60.1107
0.930753
60.2395
0.91564
60.3609
0.899713
60.4757
0.882989
60.5846
0.865485
60.6883
0.847217
60.7873
0.828202
60.8822
0.808458
60.9736
0.788001
61.0621
0.766847
61.1481
0.745016
61.2322
0.722523
61.3147
0.699387
61.3963
0.675625
61.4772
0.651254
61.5579
0.626295
61.6388
0.600763
61.7202
0.574679
61.8026
0.548061
61.8862
0.520927
61.9714
0.493296
62.0585
0.465189
62.1478
0.436624
62.2395
0.407621
62.3339
0.3782
62.4313
0.348381
62.5319
0.318184
62.6359
0.287629
62.7435
0.256738
62.8549
0.22553
62.9702
0.194028
63.0896
0.162251
63.2133
0.130221
63.3414
0.0979592
63.4739
0.065487
63.6111
0.0328272
63.7529
0
63.8995
-0.032972
64.0508
-0.0660664
64.207
-0.0992615
64.368
-0.132535
64.5339
-0.165865
64.7047
-0.199228
64.8803
-0.232603
65.0606
-0.265965
65.2457
-0.299294
65.4355
-0.332565
65.6299
-0.365756
65.8287
-0.398845
66.0318
-0.431807
66.2392
-0.464621
66.4506
-0.497262
66.6658
-0.529708
66.8847
-0.561934
67.1071
-0.593919
67.3327
-0.625639
67.5612
-0.657069
67.7923
-0.688186
68.0257
-0.718967
68.2612
-0.749387
68.4983
-0.779424
68.7365
-0.809052
68.9756
-0.838247
69.215
-0.866985
69.4542
-0.895241
69.6927
-0.92299
69.9298
-0.950208
70.1651
-0.976867
70.3976
-1.00294
70.6269
-1.02841
70.8515
-1.05324
71.0724
-1.07738
71.2832
-1.1009
71.4982
-1.12351
71.6733
-1.14588
-1.16598
71.9265
58.3152
1.28506
-58.1809
58.441
1.26787
58.5587
1.24958
58.6689
1.23021
58.7725
1.20978
58.8701
1.18832
58.9622
1.16584
59.0495
1.14237
59.1326
1.11792
59.212
1.09252
59.2883
1.06618
59.3619
1.03893
59.4333
1.0108
59.503
0.981789
59.5715
0.951935
59.6391
0.921256
59.7063
0.889776
59.7734
0.857516
59.8408
0.824499
59.909
0.790749
59.9782
0.756289
60.0487
0.721144
60.1209
0.685337
60.195
0.648893
60.2714
0.611836
60.3503
0.574192
60.432
0.535984
60.5166
0.49724
60.6045
0.457984
60.6958
0.418243
60.7908
0.378042
60.8896
0.337409
60.9923
0.296369
61.0992
0.25495
61.2104
0.213179
61.3261
0.171083
61.4462
0.128689
61.5711
0.0860252
61.7006
0.0431197
61.835
0
61.9743
-0.0433055
62.1185
-0.0867682
62.2676
-0.13036
62.4218
-0.174052
62.5809
-0.217816
62.7451
-0.261622
62.9142
-0.305442
63.0882
-0.349247
63.2672
-0.393006
63.451
-0.436692
63.6395
-0.480275
63.8327
-0.523725
64.0305
-0.567012
64.2326
-0.610107
64.4391
-0.652981
64.6496
-0.695603
64.8641
-0.737945
65.0824
-0.779974
65.3041
-0.821663
65.5292
-0.862981
65.7573
-0.903897
65.9881
-0.944382
66.2214
-0.984406
66.4568
-1.02394
66.694
-1.06295
66.9325
-1.1014
67.1721
-1.13927
67.4122
-1.17653
67.6523
-1.21314
67.8921
-1.24907
68.1308
-1.28429
68.3679
-1.31877
68.603
-1.35247
68.8347
-1.38538
69.0639
-1.41741
69.2853
-1.44864
69.5107
-1.47875
69.7031
-1.50851
-1.53557
69.9627
56.9668
1.59383
-56.8602
57.0662
1.57187
57.1589
1.54859
57.2455
1.52404
57.3265
1.49821
57.4026
1.47115
57.4744
1.44287
57.5423
1.4134
57.6068
1.38276
57.6686
1.35098
57.728
1.31808
57.7854
1.28408
57.8414
1.24901
57.8964
1.2129
57.9506
1.17577
58.0047
1.13765
58.0588
1.09856
58.1134
1.05853
58.1687
1.0176
58.2252
0.975783
58.2832
0.933111
58.3428
0.889614
58.4045
0.84532
58.4685
0.800258
58.535
0.754458
58.6044
0.707949
58.6767
0.660763
58.7523
0.61293
58.8314
0.56448
58.9141
0.515446
59.0006
0.465857
59.0912
0.415747
59.1859
0.365148
59.2849
0.314091
59.3884
0.262611
59.4964
0.210738
59.6091
0.158507
59.7266
0.105951
59.849
0.0531043
59.9762
0
60.1085
-0.0533277
60.2458
-0.106845
60.3882
-0.160517
60.5357
-0.214309
60.6883
-0.268186
60.8461
-0.322114
61.0089
-0.376058
61.1767
-0.429982
61.3496
-0.483852
61.5275
-0.537631
61.7102
-0.591285
61.8978
-0.644778
62.0901
-0.698074
62.287
-0.751138
62.4883
-0.803933
62.694
-0.856426
62.9038
-0.908578
63.1177
-0.960356
63.3353
-1.01172
63.5565
-1.06264
63.7811
-1.11307
64.0088
-1.16299
64.2393
-1.21235
64.4724
-1.26112
64.7077
-1.30926
64.9449
-1.35673
65.1836
-1.40351
65.4236
-1.44954
65.6642
-1.49481
65.9052
-1.53926
66.1459
-1.58286
66.386
-1.62557
66.6249
-1.66736
66.8616
-1.70819
67.0969
-1.748
67.3261
-1.78684
67.5595
-1.82437
67.7653
-1.86142
-1.89546
68.0292
55.6278
1.89709
-55.5458
55.7038
1.87025
55.7742
1.84191
55.8396
1.81209
55.9005
1.78082
55.9574
1.74812
56.0109
1.71402
56.0614
1.67854
56.1093
1.64172
56.1552
1.60358
56.1994
1.56415
56.2423
1.52345
56.2844
1.48152
56.326
1.43839
56.3675
1.39408
56.4092
1.34862
56.4516
1.30205
56.4948
1.25439
56.5392
1.20568
56.5851
1.15595
56.6328
1.10524
56.6826
1.05356
56.7347
1.00097
56.7893
0.947483
56.8468
0.893145
56.9074
0.837987
56.9712
0.782045
57.0384
0.725353
57.1093
0.667948
57.184
0.609866
57.2628
0.551143
57.3457
0.491816
57.4329
0.431923
57.5246
0.371501
57.6208
0.310587
57.7217
0.249221
57.8274
0.18744
57.9379
0.125284
58.0535
0.0627906
58.174
0
58.2996
-0.0630485
58.4304
-0.126315
58.5663
-0.18976
58.7074
-0.253343
58.8538
-0.317025
59.0053
-0.380763
59.1619
-0.444518
59.3238
-0.50825
59.4907
-0.571917
59.6628
-0.635478
59.8398
-0.698893
60.0218
-0.76212
60.2086
-0.825118
60.4002
-0.887845
60.5964
-0.950262
60.7971
-1.01233
61.0021
-1.07399
61.2113
-1.13523
61.4246
-1.19598
61.6417
-1.25622
61.8624
-1.3159
62.0866
-1.37498
62.3139
-1.43341
62.5441
-1.49116
62.7769
-1.54818
63.0121
-1.60444
63.2493
-1.65989
63.4881
-1.71448
63.7283
-1.76818
63.9694
-1.82095
64.211
-1.87274
64.4526
-1.92351
64.6939
-1.97322
64.934
-2.02183
65.1734
-2.06927
65.4083
-2.11559
65.6474
-2.16044
65.8636
-2.20469
-2.24567
66.1301
54.2997
2.19467
-54.2397
54.3548
2.16288
54.4054
2.1294
54.4519
2.09427
54.4949
2.05751
54.5347
2.01915
54.5718
1.97923
54.6067
1.93776
54.6398
1.89479
54.6714
1.85033
54.702
1.80443
54.7319
1.7571
54.7615
1.70839
54.7911
1.65832
54.8211
1.60693
54.8517
1.55425
54.8833
1.50032
54.9163
1.44517
54.9507
1.38884
54.987
1.33135
55.0255
1.27275
55.0662
1.21308
55.1096
1.15237
55.1558
1.09066
55.205
1.02799
55.2575
0.964394
55.3135
0.899915
55.373
0.834592
55.4364
0.768467
55.5038
0.701578
55.5753
0.633968
55.6511
0.565678
55.7314
0.496751
55.8161
0.427227
55.9056
0.357151
55.9998
0.286566
56.0989
0.215514
56.203
0.144039
56.3121
0.072187
56.4262
0
56.5456
-0.0724765
56.6701
-0.145197
56.7998
-0.218118
56.9348
-0.291193
57.0751
-0.364377
57.2206
-0.437625
57.3713
-0.510889
57.5273
-0.584126
57.6885
-0.657287
57.8548
-0.730329
58.0263
-0.803203
58.2027
-0.875864
58.3841
-0.948265
58.5704
-1.02036
58.7614
-1.0921
58.9571
-1.16345
59.1572
-1.23434
59.3617
-1.30475
59.5705
-1.37462
59.7832
-1.4439
59.9998
-1.51255
60.2201
-1.58052
60.4438
-1.64777
60.6708
-1.71425
60.9006
-1.77991
61.1332
-1.84471
61.3682
-1.9086
61.6053
-1.97153
61.8442
-2.03346
62.0845
-2.09434
62.3259
-2.15413
62.568
-2.21277
62.8104
-2.27022
63.0524
-2.32645
63.2945
-2.38137
63.5333
-2.43504
63.7763
-2.48709
64.0003
-2.5384
-2.58626
64.2681
52.9845
2.48642
-52.9439
53.0211
2.44962
53.054
2.41097
53.0838
2.3705
53.1107
2.32825
53.1352
2.28424
53.1578
2.2385
53.1788
2.19108
53.1985
2.14199
53.2174
2.09127
53.2358
2.03895
53.254
1.98507
53.2723
1.92966
53.2912
1.87276
53.3108
1.81441
53.3314
1.75463
53.3534
1.69347
53.377
1.63096
53.4025
1.56715
53.4302
1.50207
53.4602
1.43576
53.4927
1.36827
53.5282
1.29963
53.5666
1.22989
53.6083
1.15908
53.6534
1.08726
53.7022
1.01446
53.7547
0.940728
53.8112
0.866112
53.8718
0.790653
53.9366
0.714398
54.0058
0.637393
54.0796
0.559683
54.158
0.481318
54.2411
0.402342
54.3291
0.322805
54.422
0.242753
54.5199
0.162236
54.623
0.0813017
54.7311
0
54.8445
-0.0816201
54.963
-0.163509
55.0869
-0.245617
55.216
-0.327894
55.3505
-0.41029
55.4902
-0.492753
55.6353
-0.575234
55.7856
-0.657682
55.9411
-0.740045
56.1019
-0.822273
56.2678
-0.904315
56.4388
-0.986119
56.6149
-1.06763
56.7959
-1.14881
56.9817
-1.22959
57.1723
-1.30993
57.3675
-1.38978
57.5672
-1.46908
57.7713
-1.54779
57.9796
-1.62585
58.1919
-1.7032
58.408
-1.77981
58.6279
-1.85562
58.8512
-1.93058
59.0777
-2.00464
59.3072
-2.07774
59.5395
-2.14984
59.7742
-2.22089
60.0112
-2.29083
60.25
-2.35962
60.4904
-2.4272
60.7319
-2.49353
60.9744
-2.55855
61.2172
-2.62222
61.4606
-2.68446
61.7018
-2.74532
61.9472
-2.80444
62.1769
-2.86268
-2.91735
62.4447
51.6841
2.77224
-51.6608
51.7042
2.7304
51.7215
2.68655
51.7362
2.64074
51.7489
2.593
51.7598
2.54336
51.7694
2.49185
51.7779
2.4385
51.7858
2.38334
51.7933
2.32643
51.8007
2.26777
51.8085
2.20743
51.8168
2.14542
51.8259
2.08179
51.8362
2.01658
51.8479
1.94983
51.8612
1.88157
51.8764
1.81185
51.8938
1.74072
51.9136
1.6682
51.9359
1.59436
51.9611
1.51922
51.9893
1.44283
52.0207
1.36525
52.0555
1.28651
52.0939
1.20667
52.1361
1.12576
52.1821
1.04384
52.2323
0.960959
52.2866
0.877162
52.3453
0.792499
52.4084
0.70702
52.4762
0.620777
52.5486
0.533819
52.6258
0.4462
52.708
0.35797
52.7951
0.269182
52.8872
0.179889
52.9845
0.0901438
53.087
0
53.1947
-0.0904887
53.3076
-0.181268
53.4258
-0.272284
53.5494
-0.363481
53.6782
-0.454806
53.8124
-0.546202
53.952
-0.637615
54.0968
-0.72899
54.2469
-0.82027
54.4022
-0.911401
54.5628
-1.00233
54.7285
-1.09299
54.8992
-1.18334
55.075
-1.27331
55.2557
-1.36286
55.4412
-1.45192
55.6315
-1.54045
55.8263
-1.62838
56.0256
-1.71565
56.2293
-1.80222
56.4371
-1.88803
56.649
-1.97302
56.8647
-2.05714
57.0841
-2.14034
57.3069
-2.22255
57.533
-2.30372
57.7621
-2.38381
57.994
-2.46275
58.2284
-2.54049
58.4651
-2.61697
58.7037
-2.69215
58.944
-2.76597
59.1857
-2.83837
59.4282
-2.90932
59.6718
-2.97871
59.9142
-3.04661
60.1608
-3.11265
60.3944
-3.17768
-3.23905
60.6612
50.4002
3.05207
-50.3922
50.4057
3.00517
50.409
2.95613
50.4105
2.90499
50.4105
2.85178
50.4093
2.79653
50.4072
2.73928
50.4047
2.68006
50.4019
2.61891
50.3993
2.55586
50.397
2.49096
50.3953
2.42423
50.3946
2.35573
50.3951
2.28549
50.397
2.21354
50.4006
2.13994
50.4061
2.06473
50.4138
1.98795
50.4239
1.90964
50.4366
1.82985
50.452
1.74863
50.4705
1.66603
50.4921
1.58208
50.5171
1.49685
50.5457
1.41037
50.5779
1.32271
50.614
1.2339
50.6541
1.14401
50.6984
1.05309
50.747
0.961175
50.7999
0.868334
50.8575
0.774618
50.9196
0.680081
50.9865
0.584777
51.0583
0.488763
51.1349
0.392093
51.2166
0.294825
51.3033
0.197015
51.3952
0.0987209
51.4923
0
51.5946
-0.0990898
51.7022
-0.19849
51.815
-0.298143
51.9332
-0.397989
52.0568
-0.497968
52.1856
-0.598023
52.3198
-0.698093
52.4594
-0.798119
52.6042
-0.898041
52.7542
-0.9978
52.9095
-1.09733
53.07
-1.19659
53.2356
-1.29549
53.4062
-1.394
53.5818
-1.49204
53.7623
-1.58955
53.9476
-1.68649
54.1375
-1.78278
54.332
-1.87837
54.531
-1.97319
54.7342
-2.0672
54.9416
-2.16033
55.153
-2.25251
55.3683
-2.3437
55.5871
-2.43383
55.8095
-2.52285
56.0351
-2.61069
56.2637
-2.6973
56.4951
-2.78263
56.7291
-2.8666
56.9654
-2.94918
57.2037
-3.0303
57.4438
-3.1099
57.6852
-3.18793
57.9282
-3.26431
58.1706
-3.33908
58.4172
-3.41189
58.6534
-3.48355
-3.55151
58.9183
49.1342
3.32584
-49.1398
49.1268
3.27389
49.1177
3.21968
49.1074
3.16323
49.0961
3.10458
49.0841
3.04378
49.0718
2.98084
49.0594
2.91582
49.0472
2.84874
49.0354
2.77965
49.0244
2.70858
49.0144
2.63558
49.0056
2.56068
48.9984
2.48394
48.9928
2.40538
48.9892
2.32507
48.9877
2.24304
48.9886
2.15934
48.9921
2.07401
48.9983
1.98711
49.0076
1.89869
49.0199
1.80879
49.0356
1.71746
49.0548
1.62477
49.0776
1.53075
49.1043
1.43547
49.1349
1.33897
49.1695
1.24132
49.2084
1.14256
49.2517
1.04276
49.2994
0.941968
49.3517
0.840244
49.4087
0.737647
49.4704
0.634236
49.537
0.530068
49.6086
0.425204
49.6851
0.319705
49.7668
0.21363
49.8536
0.107041
49.9455
0
50.0428
-0.107432
50.1452
-0.215193
50.253
-0.323219
50.3661
-0.431449
50.4845
-0.539819
50.6083
-0.648266
50.7373
-0.756726
50.8717
-0.865136
51.0114
-0.973433
51.1563
-1.08155
51.3065
-1.18943
51.4619
-1.297
51.6224
-1.4042
51.7879
-1.51097
51.9585
-1.61724
52.1339
-1.72296
52.3143
-1.82804
52.4993
-1.93244
52.689
-2.03609
52.8831
-2.13892
53.0817
-2.24088
53.2846
-2.34189
53.4915
-2.4419
53.7024
-2.54085
53.9171
-2.63867
54.1354
-2.7353
54.3572
-2.83068
54.5822
-2.92475
54.8103
-3.01744
55.0411
-3.10871
55.2746
-3.19848
55.5104
-3.2867
55.7483
-3.37331
55.9879
-3.45826
56.2294
-3.54145
56.471
-3.62292
56.7168
-3.70234
56.9541
-3.78047
-3.85489
57.2165
47.8873
3.59356
-47.905
47.8684
3.53657
47.8485
3.47721
47.8277
3.41549
47.8064
3.35145
47.7849
3.28514
47.7634
3.21658
47.7422
3.14582
47.7216
3.0729
47.7018
2.99785
47.683
2.92071
47.6656
2.84154
47.6496
2.76036
47.6354
2.67723
47.6231
2.5922
47.613
2.5053
47.6053
2.41659
47.6001
2.32612
47.5977
2.23393
47.5981
2.14008
47.6017
2.04462
47.6086
1.9476
47.6189
1.84908
47.6328
1.7491
47.6504
1.64774
47.672
1.54503
47.6975
1.44104
47.7272
1.33583
47.7612
1.22946
47.7995
1.12198
47.8424
1.01346
47.8898
0.903954
47.942
0.793526
47.999
0.682238
48.0608
0.570152
48.1275
0.457334
48.1993
0.343844
48.2762
0.229749
48.3582
0.115113
48.4453
0
48.5377
-0.115523
48.6353
-0.231391
48.7382
-0.347536
48.8465
-0.463895
48.96
-0.580398
49.0788
-0.696978
49.2029
-0.813571
49.3324
-0.930107
49.4671
-1.04652
49.607
-1.16274
49.7522
-1.2787
49.9026
-1.39434
50.0581
-1.50958
50.2186
-1.62436
50.3842
-1.7386
50.5547
-1.85226
50.7301
-1.96525
50.9103
-2.0775
51.0951
-2.18896
51.2845
-2.29956
51.4783
-2.40922
51.6765
-2.51789
51.8789
-2.62549
52.0853
-2.73197
52.2957
-2.83725
52.5098
-2.94127
52.7275
-3.04397
52.9486
-3.14528
53.1729
-3.24514
53.4003
-3.34348
53.6305
-3.44025
53.8633
-3.53538
54.0985
-3.62881
54.3357
-3.72049
54.5751
-3.81031
54.8151
-3.89832
55.0592
-3.98419
55.2968
-4.06863
-4.14936
55.556
46.6606
3.8552
-46.6889
46.6316
3.79322
46.6019
3.72874
46.5719
3.66179
46.5418
3.59243
46.5118
3.52067
46.4822
3.44656
46.4533
3.37015
46.4252
3.29146
46.3983
3.21054
46.3726
3.12744
46.3485
3.0422
46.3262
2.95486
46.3058
2.86547
46.2876
2.77408
46.2717
2.68074
46.2583
2.58549
46.2477
2.48839
46.2399
2.3895
46.2352
2.28886
46.2337
2.18653
46.2356
2.08256
46.2411
1.97701
46.2502
1.86995
46.2631
1.76142
46.2799
1.65148
46.3009
1.5402
46.326
1.42764
46.3555
1.31385
46.3893
1.19891
46.4277
1.08287
46.4707
0.965801
46.5184
0.847764
46.5709
0.728826
46.6282
0.609052
46.6905
0.488509
46.7578
0.367265
46.8301
0.245386
46.9076
0.122942
46.9902
0
47.078
-0.12337
47.171
-0.2471
47.2693
-0.371118
47.3729
-0.495356
47.4817
-0.619743
47.5958
-0.744209
47.7151
-0.868682
47.8398
-0.993092
47.9697
-1.11737
48.1048
-1.24144
48.2452
-1.36524
48.3907
-1.48868
48.5413
-1.61171
48.6969
-1.73425
48.8576
-1.85623
49.0233
-1.97758
49.1938
-2.09823
49.369
-2.21811
49.549
-2.33714
49.7336
-2.45526
49.9227
-2.5724
50.1161
-2.68848
50.3139
-2.80345
50.5157
-2.91722
50.7216
-3.02974
50.9313
-3.14094
51.1448
-3.25074
51.3618
-3.35908
51.5821
-3.4659
51.8057
-3.57113
52.0323
-3.67469
52.2616
-3.77654
52.4937
-3.8766
52.728
-3.97482
52.9647
-4.07111
53.2026
-4.16548
53.4444
-4.25763
53.6812
-4.34822
-4.43512
53.9368
45.4549
4.1108
-45.4925
45.4169
4.04385
45.3787
3.97431
45.3406
3.9022
45.3026
3.82756
45.2652
3.75043
45.2285
3.67085
45.1927
3.58886
45.158
3.5045
45.1247
3.41781
45.093
3.32885
45.063
3.23765
45.035
3.14426
45.0091
3.04874
44.9856
2.95112
44.9645
2.85147
44.9462
2.74983
44.9306
2.64626
44.9181
2.54081
44.9088
2.43354
44.9027
2.3245
44.9002
2.21376
44.9012
2.10136
44.9059
1.98738
44.9146
1.87187
44.9272
1.7549
44.9439
1.63652
44.9649
1.5168
44.9902
1.39581
45.0199
1.2736
45.0541
1.15026
45.093
1.02584
45.1365
0.90041
45.1849
0.77404
45.2381
0.646801
45.2962
0.51876
45.3592
0.389989
45.4273
0.260557
45.5005
0.130537
45.5788
0
45.6623
-0.130981
45.751
-0.262335
45.8448
-0.393987
45.9439
-0.525864
46.0482
-0.657894
46.1578
-0.790002
46.2726
-0.922114
46.3926
-1.05416
46.5179
-1.18605
46.6483
-1.31773
46.7839
-1.44912
46.9247
-1.58014
47.0705
-1.71072
47.2214
-1.84078
47.3773
-1.97025
47.5381
-2.09906
47.7037
-2.22712
47.8742
-2.35438
48.0494
-2.48075
48.2291
-2.60617
48.4134
-2.73055
48.6022
-2.85383
48.7952
-2.97594
48.9924
-3.09679
49.1937
-3.21634
49.3989
-3.33449
49.608
-3.45118
49.8207
-3.56635
50.0368
-3.67992
50.2563
-3.79183
50.479
-3.902
50.7047
-4.01038
50.9331
-4.11688
51.1641
-4.22146
51.3977
-4.32403
51.6329
-4.42459
51.8719
-4.52286
52.1072
-4.61944
-4.71235
52.3588
44.2707
4.36037
-44.3166
44.225
4.28852
44.1793
4.21396
44.1339
4.13674
44.0892
4.0569
44.0452
3.97448
44.0021
3.88951
43.9603
3.80203
43.9199
3.7121
43.881
3.61975
43.8439
3.52503
43.8087
3.42799
43.7756
3.32867
43.7449
3.22714
43.7166
3.12343
43.691
3.0176
43.6682
2.90971
43.6483
2.79982
43.6315
2.68796
43.618
2.57422
43.6079
2.45864
43.6013
2.34129
43.5984
2.22222
43.5992
2.1015
43.604
1.97919
43.6127
1.85536
43.6256
1.73007
43.6428
1.60339
43.6642
1.47539
43.6901
1.34613
43.7206
1.21568
43.7556
1.08412
43.7953
0.951507
43.8398
0.817921
43.8891
0.683432
43.9433
0.548112
44.0024
0.412035
44.0665
0.275274
44.1357
0.137904
44.2099
0
44.2893
-0.138363
44.3738
-0.27711
44.4634
-0.416163
44.5582
-0.555448
44.6582
-0.694886
44.7635
-0.834402
44.8739
-0.973918
44.9894
-1.11336
45.1102
-1.25264
45.2361
-1.39169
45.3671
-1.53043
45.5033
-1.66879
45.6444
-1.80668
45.7906
-1.94403
45.9418
-2.08076
46.0979
-2.21679
46.2588
-2.35205
46.4244
-2.48646
46.5948
-2.61995
46.7698
-2.75243
46.9494
-2.88384
47.1333
-3.01409
47.3216
-3.14312
47.5142
-3.27084
47.7108
-3.39719
47.9114
-3.5221
48.1159
-3.64548
48.3242
-3.76727
48.536
-3.88739
48.7512
-4.00578
48.9698
-4.12237
49.1914
-4.23708
49.4161
-4.34985
49.6434
-4.46062
49.8735
-4.56928
50.1055
-4.67587
50.3412
-4.78008
50.5744
-4.88248
-4.98125
50.8217
43.1087
4.60396
-43.1617
43.0561
4.52726
43.0039
4.44776
42.9523
4.36551
42.9015
4.28054
42.8517
4.1929
42.8032
4.10263
42.756
4.00976
42.7105
3.91435
42.6667
3.81644
42.6249
3.71608
42.5851
3.61331
42.5477
3.50819
42.5126
3.40077
42.4802
3.2911
42.4505
3.17924
42.4237
3.06524
42.4
2.94916
42.3794
2.83106
42.3622
2.711
42.3484
2.58903
42.3382
2.46524
42.3317
2.33966
42.329
2.21238
42.3302
2.08345
42.3355
1.95295
42.3449
1.82094
42.3586
1.68749
42.3766
1.55267
42.399
1.41654
42.4259
1.27919
42.4574
1.14069
42.4935
1.0011
42.5344
0.860507
42.5801
0.718979
42.6306
0.576592
42.686
0.433425
42.7464
0.289552
42.8118
0.145051
42.8822
-2.91891e-07
42.9576
-0.145523
43.0381
-0.291439
43.1238
-0.437669
43.2145
-0.584135
43.3104
-0.730755
43.4115
-0.877452
43.5176
-1.02414
43.6289
-1.17075
43.7453
-1.31719
43.8668
-1.46339
43.9934
-1.60926
44.125
-1.75472
44.2617
-1.8997
44.4033
-2.04411
44.5498
-2.18787
44.7012
-2.3309
44.8575
-2.47313
45.0184
-2.61448
45.1841
-2.75485
45.3544
-2.89419
45.5291
-3.0324
45.7084
-3.16942
45.8919
-3.30515
46.0797
-3.43953
46.2717
-3.57249
46.4677
-3.70393
46.6676
-3.8338
46.8712
-3.96201
47.0786
-4.0885
47.2894
-4.21318
47.5036
-4.33599
47.7211
-4.45685
47.9416
-4.5757
48.165
-4.69247
48.3913
-4.80707
48.6197
-4.9195
48.8518
-5.0295
49.0824
-5.13756
-5.24203
49.3251
41.9693
4.84162
-42.0286
41.9107
4.76013
41.8527
4.67576
41.7956
4.58855
41.7396
4.49854
41.6849
4.40577
41.6315
4.31029
41.5797
4.21213
41.5297
4.11134
41.4817
4.00798
41.4357
3.90208
41.3919
3.79371
41.3506
3.6829
41.3118
3.56973
41.2757
3.45423
41.2424
3.33647
41.2121
3.2165
41.185
3.09438
41.1611
2.97019
41.1405
2.84396
41.1235
2.71578
41.11
2.5857
41.1003
2.45379
41.0944
2.32011
41.0925
2.18474
41.0946
2.04774
41.1008
1.90919
41.1113
1.76915
41.1261
1.6277
41.1453
1.48491
41.169
1.34085
41.1972
1.1956
41.2301
1.04924
41.2676
0.901835
41.3099
0.753472
41.357
0.604227
41.4089
0.454177
41.4658
0.303403
41.5276
0.151984
41.5943
0
41.6661
-0.152467
41.7428
-0.305336
41.8246
-0.458525
41.9115
-0.611953
42.0035
-0.765536
42.1005
-0.919192
42.2026
-1.07284
42.3097
-1.22639
42.422
-1.37977
42.5392
-1.53289
42.6615
-1.68567
42.7887
-1.83802
42.921
-1.98986
43.0581
-2.14111
43.2001
-2.29169
43.347
-2.44151
43.4986
-2.59049
43.6549
-2.73855
43.8159
-2.88561
43.9815
-3.03158
44.1515
-3.17639
44.326
-3.31995
44.5049
-3.46219
44.688
-3.60303
44.8752
-3.74238
45.0665
-3.88017
45.2617
-4.01633
45.4608
-4.15077
45.6635
-4.28342
45.8698
-4.4142
46.0796
-4.54305
46.2927
-4.66989
46.5089
-4.79464
46.7282
-4.91724
46.9504
-5.0376
47.1749
-5.15571
47.4032
-5.27132
47.6306
-5.38488
-5.4949
47.8686
40.8527
5.07342
-40.9174
40.7889
4.98722
40.726
4.89805
40.6642
4.80596
40.6036
4.71099
40.5445
4.61319
40.4869
4.51258
40.4312
4.40923
40.3773
4.30317
40.3255
4.19446
40.2759
4.08315
40.2286
3.96929
40.1839
3.85292
40.1418
3.73411
40.1025
3.61292
40.0661
3.48939
40.0328
3.3636
40.0026
3.23559
39.9757
3.10544
39.9522
2.97321
39.9322
2.83896
39.9159
2.70276
39.9033
2.56467
39.8946
2.42478
39.8898
2.28313
39.889
2.13981
39.8924
1.9949
39.9
1.84845
39.9119
1.70055
39.9281
1.55128
39.9488
1.4007
39.974
1.2489
40.0038
1.09595
40.0383
0.941942
40.0774
0.786944
40.1213
0.63104
40.17
0.474311
40.2235
0.31684
40.2819
0.158708
40.3452
0
40.4134
-0.159202
40.4866
-0.318814
40.5648
-0.478751
40.648
-0.638929
40.7361
-0.799261
40.8293
-0.959664
40.9275
-1.12005
41.0307
-1.28034
41.1388
-1.44044
41.252
-1.60027
41.3701
-1.75974
41.4931
-1.91876
41.621
-2.07726
41.7538
-2.23514
41.8914
-2.39232
42.0337
-2.54871
42.1808
-2.70423
42.3326
-2.8588
42.489
-3.01233
42.65
-3.16474
42.8154
-3.31594
42.9852
-3.46585
43.1593
-3.61439
43.3377
-3.76148
43.5202
-3.90703
43.7068
-4.05098
43.8973
-4.19323
44.0917
-4.33371
44.2898
-4.47234
44.4915
-4.60904
44.6967
-4.74375
44.9053
-4.87637
45.1171
-5.00685
45.332
-5.13511
45.55
-5.26105
45.7704
-5.38468
45.9944
-5.50574
46.2184
-5.62464
-5.74004
46.4515
39.7592
5.29943
-39.8286
39.6909
5.20859
39.6237
5.1147
39.5578
5.01782
39.4933
4.91798
39.4305
4.81523
39.3693
4.7096
39.3101
4.60116
39.2528
4.48994
39.1978
4.37599
39.1451
4.25938
39.0948
4.14014
39.0471
4.01834
39.0022
3.89403
38.9601
3.76726
38.9209
3.63811
38.8849
3.50663
38.852
3.37288
38.8225
3.23693
38.7965
3.09883
38.7739
2.95867
38.755
2.81651
38.7399
2.67241
38.7286
2.52645
38.7212
2.3787
38.7179
2.22924
38.7186
2.07813
38.7236
1.92545
38.7328
1.77129
38.7463
1.61571
38.7643
1.4588
38.7867
1.30063
38.8137
1.14129
38.8452
0.980863
38.8814
0.819423
38.9223
0.657056
38.968
0.493845
39.0184
0.329876
39.0736
0.165232
39.1336
0
39.1985
-0.165735
39.2683
-0.331885
39.343
-0.498365
39.4226
-0.665087
39.5072
-0.831964
39.5967
-0.998907
39.6911
-1.16583
39.7904
-1.33264
39.8947
-1.49926
40.0039
-1.66558
40.1179
-1.83154
40.2368
-1.99703
40.3605
-2.16197
40.4891
-2.32628
40.6224
-2.48985
40.7604
-2.65261
40.903
-2.81448
41.0503
-2.97535
41.2022
-3.13515
41.3586
-3.29379
41.5194
-3.45118
41.6846
-3.60724
41.8541
-3.76189
42.0277
-3.91504
42.2056
-4.06661
42.3874
-4.21651
42.5732
-4.36467
42.7629
-4.511
42.9563
-4.65543
43.1533
-4.79788
43.3539
-4.93826
43.5579
-5.0765
43.7652
-5.21253
43.9756
-5.34627
44.1891
-5.47764
44.4053
-5.60661
44.625
-5.73297
44.8452
-5.85704
-5.97768
45.0732
38.6889
5.51973
-38.7622
38.6168
5.42433
38.5459
5.3258
38.4765
5.22421
38.4087
5.11959
38.3426
5.01199
38.2783
4.90144
38.2161
4.78801
38.156
4.67173
38.0982
4.55267
38.0428
4.43086
37.9899
4.30637
37.9397
4.17926
37.8923
4.04957
37.8478
3.91737
37.8063
3.78273
37.7679
3.64569
37.7327
3.50634
37.7009
3.36473
37.6725
3.22092
37.6477
3.075
37.6266
2.92703
37.6091
2.77708
37.5955
2.62522
37.5859
2.47153
37.5802
2.31608
37.5786
2.15895
37.5811
2.00022
37.5879
1.83996
37.599
1.67826
37.6144
1.51519
37.6343
1.35084
37.6587
1.1853
37.6875
1.01863
37.721
0.850939
37.7591
0.682298
37.8018
0.512797
37.8493
0.342522
37.9015
0.17156
37.9584
0
38.0202
-0.17207
38.0868
-0.344563
38.1582
-0.517387
38.2344
-0.690454
38.3155
-0.863674
38.4014
-1.03696
38.4922
-1.21021
38.5879
-1.38335
38.6884
-1.55628
38.7937
-1.72891
38.9038
-1.90114
39.0187
-2.0729
39.1384
-2.24409
39.2628
-2.41462
39.3919
-2.58439
39.5256
-2.75332
39.664
-2.92132
39.8069
-3.08831
39.9543
-3.25418
40.1062
-3.41886
40.2625
-3.58225
40.4231
-3.74427
40.588
-3.90484
40.757
-4.06386
40.9301
-4.22125
41.1073
-4.37693
41.2884
-4.53082
41.4734
-4.68282
41.6621
-4.83287
41.8544
-4.98088
42.0503
-5.12676
42.2496
-5.27045
42.4522
-5.41186
42.6581
-5.55093
42.8671
-5.68755
43.0788
-5.82171
43.294
-5.9532
43.5102
-6.0823
-6.20801
43.7331
37.6418
5.7344
-37.7185
37.5664
5.63452
37.4925
5.53144
37.4201
5.42523
37.3494
5.31593
37.2806
5.20357
37.2137
5.0882
37.149
4.96989
37.0865
4.84866
37.0263
4.72458
36.9686
4.5977
36.9136
4.46808
36.8612
4.33577
36.8116
4.20084
36.765
4.06334
36.7214
3.92333
36.681
3.78088
36.6439
3.63606
36.61
3.48893
36.5797
3.33957
36.5529
3.18804
36.5297
3.03441
36.5103
2.87876
36.4946
2.72116
36.4829
2.56168
36.4751
2.40042
36.4714
2.23743
36.4718
2.07281
36.4763
1.90663
36.4852
1.73898
36.4983
1.56993
36.5158
1.39958
36.5377
1.228
36.5641
1.05529
36.595
0.88152
36.6304
0.706789
36.6705
0.531183
36.7152
0.35479
36.7646
0.177699
36.8186
-2.9187e-07
36.8774
-0.178216
36.9409
-0.356858
37.0091
-0.535834
37.0821
-0.715053
37.1599
-0.894423
37.2425
-1.07385
37.3298
-1.25325
37.4219
-1.43251
37.5187
-1.61156
37.6203
-1.79029
37.7267
-1.96862
37.8377
-2.14645
37.9534
-2.32369
38.0738
-2.50024
38.1988
-2.67602
38.3284
-2.85093
38.4625
-3.02489
38.6011
-3.19779
38.7442
-3.36954
38.8917
-3.54007
39.0435
-3.70928
39.1996
-3.87707
39.3599
-4.04337
39.5243
-4.20808
39.6929
-4.37112
39.8654
-4.53239
40.0418
-4.69183
40.222
-4.84933
40.406
-5.00482
40.5936
-5.15822
40.7848
-5.30944
40.9794
-5.45841
41.1774
-5.60504
41.3786
-5.74926
41.5829
-5.89098
41.7901
-6.03017
42.0006
-6.16664
42.2127
-6.30061
-6.43124
42.4305
36.6179
5.94353
-36.6975
36.5398
5.83925
36.4633
5.73172
36.3884
5.62098
36.3154
5.50708
36.2443
5.39007
36.1752
5.26998
36.1084
5.14689
36.0438
5.02082
35.9817
4.89184
35.9221
4.76001
35.8651
4.62537
35.8109
4.48799
35.7595
4.34793
35.7112
4.20525
35.6658
4.06002
35.6237
3.91229
35.5848
3.76215
35.5493
3.60964
35.5172
3.45486
35.4886
3.29786
35.4637
3.13872
35.4424
2.97752
35.425
2.81434
35.4114
2.64924
35.4018
2.48231
35.3961
2.31364
35.3945
2.14329
35.3971
1.97136
35.4038
1.79792
35.4148
1.62307
35.4302
1.44688
35.4498
1.26944
35.4739
1.09085
35.5024
0.911193
35.5354
0.730552
35.573
0.549021
35.6151
0.366691
35.6617
0.183653
35.713
0
35.769
-0.184176
35.8295
-0.368782
35.8948
-0.553724
35.9647
-0.738908
36.0393
-0.92424
36.1186
-1.10963
36.2026
-1.29497
36.2913
-1.48018
36.3846
-1.66515
36.4826
-1.84981
36.5853
-2.03403
36.6926
-2.21775
36.8045
-2.40085
36.9209
-2.58325
37.042
-2.76484
37.1675
-2.94554
37.2975
-3.12526
37.4319
-3.30389
37.5707
-3.48135
37.7139
-3.65755
37.8613
-3.83238
38.013
-4.00577
38.1688
-4.17762
38.3287
-4.34784
38.4927
-4.51635
38.6605
-4.68305
38.8323
-4.84786
39.0079
-5.01069
39.1872
-5.17146
39.3701
-5.33008
39.5565
-5.48647
39.7464
-5.64055
39.9397
-5.79224
40.1361
-5.94146
40.3358
-6.08812
40.5383
-6.23218
40.7442
-6.37347
40.9519
-6.51217
-6.64757
41.1645
35.6172
6.14722