/*--------------------------------*- C++ -*----------------------------------*\
| =========                 |                                                 |
| \\      /  F ield         | OpenFOAM: The Open Source CFD Toolbox           |
|  \\    /   O peration     | Version:  2312                                  |
|   \\  /    A nd           | Website:  www.openfoam.com                      |
|    \\/     M anipulation  |                                                 |
\*---------------------------------------------------------------------------*/
FoamFile
{
    version     2.0;
    format      ascii;
    arch        "LSB;label=32;scalar=64";
    class       volVectorField;
    location    "0.509";
    object      U;
}
// * * * * * * * * * * * * * * * * * * * * * * * * * * * * * * * * * * * * * //

dimensions      [0 1 -1 0 0 0 0];

internalField   nonuniform List<vector> 
31205
(
(100.085 0 0)
(100.286 0 0)
(100.803 0 0)
(101.607 0 0)
(102.665 0 0)
(103.942 0 0)
(105.404 0 0)
(107.018 0 0)
(108.756 0 0)
(110.594 0 0)
(112.511 0 0)
(114.49 0 0)
(116.515 0 0)
(118.576 0 0)
(120.662 0 0)
(122.765 0 0)
(124.879 0 0)
(126.999 0 0)
(129.119 0 0)
(131.237 0 0)
(133.349 0 0)
(135.454 0 0)
(137.549 0 0)
(139.633 0 0)
(141.704 0 0)
(143.762 0 0)
(145.806 0 0)
(147.835 0 0)
(149.849 0 0)
(151.847 0 0)
(153.829 0 0)
(155.795 0 0)
(157.744 0 0)
(159.678 0 0)
(161.595 0 0)
(163.496 0 0)
(165.38 0 0)
(167.248 0 0)
(169.1 0 0)
(170.937 0 0)
(172.757 0 0)
(174.561 0 0)
(176.35 0 0)
(178.123 0 0)
(179.88 0 0)
(181.623 0 0)
(183.35 0 0)
(185.062 0 0)
(186.76 0 0)
(188.442 0 0)
(190.11 0 0)
(191.764 0 0)
(193.404 0 0)
(195.029 0 0)
(196.64 0 0)
(198.238 0 0)
(199.821 0 0)
(201.391 0 0)
(202.948 0 0)
(204.491 0 0)
(206.021 0 0)
(207.538 0 0)
(209.042 0 0)
(210.533 0 0)
(212.011 0 0)
(213.476 0 0)
(214.929 0 0)
(216.37 0 0)
(217.798 0 0)
(219.213 0 0)
(220.617 0 0)
(222.008 0 0)
(223.388 0 0)
(224.753 0 0)
(226.114 0 0)
(227.442 0 0)
(228.821 0 0)
(229.996 0 0)
(231.75 0 0)
(100.244 0 0)
(100.714 0 0)
(101.461 0 0)
(102.453 0 0)
(103.66 0 0)
(105.048 0 0)
(106.588 0 0)
(108.253 0 0)
(110.018 0 0)
(111.865 0 0)
(113.774 0 0)
(115.734 0 0)
(117.73 0 0)
(119.754 0 0)
(121.798 0 0)
(123.855 0 0)
(125.919 0 0)
(127.986 0 0)
(130.053 0 0)
(132.116 0 0)
(134.172 0 0)
(136.221 0 0)
(138.26 0 0)
(140.288 0 0)
(142.303 0 0)
(144.306 0 0)
(146.295 0 0)
(148.27 0 0)
(150.231 0 0)
(152.176 0 0)
(154.106 0 0)
(156.021 0 0)
(157.921 0 0)
(159.805 0 0)
(161.673 0 0)
(163.526 0 0)
(165.364 0 0)
(167.186 0 0)
(168.992 0 0)
(170.784 0 0)
(172.56 0 0)
(174.321 0 0)
(176.067 0 0)
(177.798 0 0)
(179.515 0 0)
(181.217 0 0)
(182.904 0 0)
(184.577 0 0)
(186.236 0 0)
(187.881 0 0)
(189.512 0 0)
(191.129 0 0)
(192.732 0 0)
(194.322 0 0)
(195.898 0 0)
(197.461 0 0)
(199.011 0 0)
(200.548 0 0)
(202.072 0 0)
(203.583 0 0)
(205.081 0 0)
(206.567 0 0)
(208.04 0 0)
(209.5 0 0)
(210.948 0 0)
(212.384 0 0)
(213.808 0 0)
(215.22 0 0)
(216.62 0 0)
(218.008 0 0)
(219.385 0 0)
(220.749 0 0)
(222.102 0 0)
(223.442 0 0)
(224.777 0 0)
(226.081 0 0)
(227.433 0 0)
(228.59 0 0)
(230.301 0 0)
(100.69 0 0)
(101.397 0 0)
(102.341 0 0)
(103.49 0 0)
(104.816 0 0)
(106.29 0 0)
(107.888 0 0)
(109.585 0 0)
(111.364 0 0)
(113.207 0 0)
(115.101 0 0)
(117.034 0 0)
(118.997 0 0)
(120.981 0 0)
(122.98 0 0)
(124.988 0 0)
(127.001 0 0)
(129.015 0 0)
(131.027 0 0)
(133.034 0 0)
(135.035 0 0)
(137.028 0 0)
(139.011 0 0)
(140.983 0 0)
(142.944 0 0)
(144.892 0 0)
(146.827 0 0)
(148.748 0 0)
(150.656 0 0)
(152.549 0 0)
(154.428 0 0)
(156.293 0 0)
(158.143 0 0)
(159.978 0 0)
(161.798 0 0)
(163.604 0 0)
(165.395 0 0)
(167.171 0 0)
(168.933 0 0)
(170.68 0 0)
(172.413 0 0)
(174.131 0 0)
(175.836 0 0)
(177.526 0 0)
(179.201 0 0)
(180.863 0 0)
(182.512 0 0)
(184.146 0 0)
(185.767 0 0)
(187.375 0 0)
(188.969 0 0)
(190.549 0 0)
(192.117 0 0)
(193.672 0 0)
(195.214 0 0)
(196.743 0 0)
(198.259 0 0)
(199.763 0 0)
(201.254 0 0)
(202.733 0 0)
(204.2 0 0)
(205.655 0 0)
(207.097 0 0)
(208.528 0 0)
(209.947 0 0)
(211.353 0 0)
(212.749 0 0)
(214.132 0 0)
(215.504 0 0)
(216.865 0 0)
(218.214 0 0)
(219.552 0 0)
(220.88 0 0)
(222.194 0 0)
(223.503 0 0)
(224.782 0 0)
(226.109 0 0)
(227.247 0 0)
(228.917 0 0)
(101.379 0 0)
(102.286 0 0)
(103.389 0 0)
(104.662 0 0)
(106.078 0 0)
(107.614 0 0)
(109.25 0 0)
(110.965 0 0)
(112.746 0 0)
(114.578 0 0)
(116.45 0 0)
(118.352 0 0)
(120.278 0 0)
(122.22 0 0)
(124.172 0 0)
(126.131 0 0)
(128.093 0 0)
(130.054 0 0)
(132.013 0 0)
(133.966 0 0)
(135.912 0 0)
(137.85 0 0)
(139.779 0 0)
(141.697 0 0)
(143.603 0 0)
(145.498 0 0)
(147.38 0 0)
(149.25 0 0)
(151.106 0 0)
(152.949 0 0)
(154.778 0 0)
(156.593 0 0)
(158.395 0 0)
(160.182 0 0)
(161.956 0 0)
(163.716 0 0)
(165.461 0 0)
(167.193 0 0)
(168.911 0 0)
(170.615 0 0)
(172.305 0 0)
(173.982 0 0)
(175.645 0 0)
(177.294 0 0)
(178.93 0 0)
(180.553 0 0)
(182.163 0 0)
(183.76 0 0)
(185.343 0 0)
(186.914 0 0)
(188.472 0 0)
(190.017 0 0)
(191.55 0 0)
(193.07 0 0)
(194.578 0 0)
(196.074 0 0)
(197.557 0 0)
(199.028 0 0)
(200.488 0 0)
(201.935 0 0)
(203.371 0 0)
(204.795 0 0)
(206.207 0 0)
(207.608 0 0)
(208.998 0 0)
(210.376 0 0)
(211.743 0 0)
(213.098 0 0)
(214.443 0 0)
(215.777 0 0)
(217.099 0 0)
(218.411 0 0)
(219.712 0 0)
(221 0 0)
(222.284 0 0)
(223.539 0 0)
(224.84 0 0)
(225.958 0 0)
(227.591 0 0)
(102.267 0 0)
(103.332 0 0)
(104.559 0 0)
(105.924 0 0)
(107.405 0 0)
(108.983 0 0)
(110.64 0 0)
(112.361 0 0)
(114.133 0 0)
(115.946 0 0)
(117.791 0 0)
(119.66 0 0)
(121.546 0 0)
(123.445 0 0)
(125.351 0 0)
(127.261 0 0)
(129.173 0 0)
(131.082 0 0)
(132.988 0 0)
(134.888 0 0)
(136.781 0 0)
(138.666 0 0)
(140.542 0 0)
(142.407 0 0)
(144.262 0 0)
(146.105 0 0)
(147.936 0 0)
(149.755 0 0)
(151.561 0 0)
(153.355 0 0)
(155.136 0 0)
(156.903 0 0)
(158.658 0 0)
(160.399 0 0)
(162.127 0 0)
(163.842 0 0)
(165.543 0 0)
(167.232 0 0)
(168.907 0 0)
(170.569 0 0)
(172.218 0 0)
(173.853 0 0)
(175.476 0 0)
(177.087 0 0)
(178.684 0 0)
(180.269 0 0)
(181.841 0 0)
(183.4 0 0)
(184.947 0 0)
(186.482 0 0)
(188.005 0 0)
(189.515 0 0)
(191.014 0 0)
(192.5 0 0)
(193.975 0 0)
(195.437 0 0)
(196.889 0 0)
(198.328 0 0)
(199.756 0 0)
(201.173 0 0)
(202.578 0 0)
(203.972 0 0)
(205.354 0 0)
(206.726 0 0)
(208.087 0 0)
(209.436 0 0)
(210.775 0 0)
(212.103 0 0)
(213.421 0 0)
(214.727 0 0)
(216.023 0 0)
(217.309 0 0)
(218.584 0 0)
(219.847 0 0)
(221.106 0 0)
(222.337 0 0)
(223.611 0 0)
(224.71 0 0)
(226.307 0 0)
(103.308 0 0)
(104.495 0 0)
(105.814 0 0)
(107.245 0 0)
(108.769 0 0)
(110.371 0 0)
(112.036 0 0)
(113.752 0 0)
(115.509 0 0)
(117.298 0 0)
(119.112 0 0)
(120.944 0 0)
(122.789 0 0)
(124.644 0 0)
(126.504 0 0)
(128.366 0 0)
(130.227 0 0)
(132.086 0 0)
(133.941 0 0)
(135.789 0 0)
(137.631 0 0)
(139.464 0 0)
(141.289 0 0)
(143.103 0 0)
(144.907 0 0)
(146.7 0 0)
(148.482 0 0)
(150.252 0 0)
(152.01 0 0)
(153.756 0 0)
(155.49 0 0)
(157.212 0 0)
(158.921 0 0)
(160.617 0 0)
(162.301 0 0)
(163.972 0 0)
(165.631 0 0)
(167.277 0 0)
(168.911 0 0)
(170.532 0 0)
(172.14 0 0)
(173.737 0 0)
(175.321 0 0)
(176.893 0 0)
(178.452 0 0)
(180 0 0)
(181.535 0 0)
(183.058 0 0)
(184.57 0 0)
(186.07 0 0)
(187.558 0 0)
(189.034 0 0)
(190.499 0 0)
(191.952 0 0)
(193.394 0 0)
(194.825 0 0)
(196.245 0 0)
(197.653 0 0)
(199.05 0 0)
(200.436 0 0)
(201.811 0 0)
(203.176 0 0)
(204.529 0 0)
(205.872 0 0)
(207.204 0 0)
(208.526 0 0)
(209.837 0 0)
(211.138 0 0)
(212.428 0 0)
(213.708 0 0)
(214.978 0 0)
(216.238 0 0)
(217.488 0 0)
(218.726 0 0)
(219.96 0 0)
(221.166 0 0)
(222.416 0 0)
(223.494 0 0)
(225.057 0 0)
(104.465 0 0)
(105.742 0 0)
(107.127 0 0)
(108.602 0 0)
(110.152 0 0)
(111.763 0 0)
(113.426 0 0)
(115.128 0 0)
(116.864 0 0)
(118.624 0 0)
(120.404 0 0)
(122.198 0 0)
(124.002 0 0)
(125.812 0 0)
(127.625 0 0)
(129.439 0 0)
(131.252 0 0)
(133.062 0 0)
(134.866 0 0)
(136.665 0 0)
(138.456 0 0)
(140.24 0 0)
(142.015 0 0)
(143.78 0 0)
(145.535 0 0)
(147.28 0 0)
(149.014 0 0)
(150.737 0 0)
(152.448 0 0)
(154.148 0 0)
(155.837 0 0)
(157.514 0 0)
(159.178 0 0)
(160.832 0 0)
(162.473 0 0)
(164.102 0 0)
(165.719 0 0)
(167.324 0 0)
(168.918 0 0)
(170.499 0 0)
(172.069 0 0)
(173.627 0 0)
(175.173 0 0)
(176.707 0 0)
(178.23 0 0)
(179.741 0 0)
(181.241 0 0)
(182.729 0 0)
(184.206 0 0)
(185.672 0 0)
(187.126 0 0)
(188.569 0 0)
(190.001 0 0)
(191.422 0 0)
(192.833 0 0)
(194.232 0 0)
(195.62 0 0)
(196.998 0 0)
(198.365 0 0)
(199.721 0 0)
(201.067 0 0)
(202.402 0 0)
(203.727 0 0)
(205.042 0 0)
(206.346 0 0)
(207.641 0 0)
(208.925 0 0)
(210.199 0 0)
(211.462 0 0)
(212.716 0 0)
(213.96 0 0)
(215.194 0 0)
(216.419 0 0)
(217.633 0 0)
(218.842 0 0)
(220.024 0 0)
(221.249 0 0)
(222.306 0 0)
(223.837 0 0)
(105.706 0 0)
(107.048 0 0)
(108.477 0 0)
(109.978 0 0)
(111.539 0 0)
(113.15 0 0)
(114.801 0 0)
(116.484 0 0)
(118.193 0 0)
(119.921 0 0)
(121.665 0 0)
(123.419 0 0)
(125.181 0 0)
(126.947 0 0)
(128.714 0 0)
(130.481 0 0)
(132.246 0 0)
(134.007 0 0)
(135.764 0 0)
(137.514 0 0)
(139.257 0 0)
(140.992 0 0)
(142.718 0 0)
(144.436 0 0)
(146.144 0 0)
(147.842 0 0)
(149.53 0 0)
(151.207 0 0)
(152.873 0 0)
(154.529 0 0)
(156.174 0 0)
(157.807 0 0)
(159.43 0 0)
(161.041 0 0)
(162.64 0 0)
(164.229 0 0)
(165.806 0 0)
(167.371 0 0)
(168.926 0 0)
(170.469 0 0)
(172 0 0)
(173.521 0 0)
(175.03 0 0)
(176.528 0 0)
(178.015 0 0)
(179.491 0 0)
(180.956 0 0)
(182.41 0 0)
(183.853 0 0)
(185.286 0 0)
(186.707 0 0)
(188.118 0 0)
(189.518 0 0)
(190.908 0 0)
(192.287 0 0)
(193.655 0 0)
(195.013 0 0)
(196.361 0 0)
(197.699 0 0)
(199.026 0 0)
(200.343 0 0)
(201.65 0 0)
(202.947 0 0)
(204.234 0 0)
(205.511 0 0)
(206.778 0 0)
(208.035 0 0)
(209.283 0 0)
(210.521 0 0)
(211.749 0 0)
(212.968 0 0)
(214.177 0 0)
(215.377 0 0)
(216.565 0 0)
(217.75 0 0)
(218.909 0 0)
(220.109 0 0)
(221.146 0 0)
(222.644 0 0)
(107.005 0 0)
(108.391 0 0)
(109.846 0 0)
(111.359 0 0)
(112.921 0 0)
(114.522 0 0)
(116.155 0 0)
(117.814 0 0)
(119.493 0 0)
(121.187 0 0)
(122.893 0 0)
(124.607 0 0)
(126.326 0 0)
(128.048 0 0)
(129.77 0 0)
(131.491 0 0)
(133.209 0 0)
(134.924 0 0)
(136.633 0 0)
(138.335 0 0)
(140.031 0 0)
(141.72 0 0)
(143.4 0 0)
(145.071 0 0)
(146.733 0 0)
(148.386 0 0)
(150.029 0 0)
(151.663 0 0)
(153.286 0 0)
(154.898 0 0)
(156.5 0 0)
(158.092 0 0)
(159.673 0 0)
(161.243 0 0)
(162.803 0 0)
(164.352 0 0)
(165.89 0 0)
(167.417 0 0)
(168.934 0 0)
(170.439 0 0)
(171.934 0 0)
(173.418 0 0)
(174.892 0 0)
(176.355 0 0)
(177.807 0 0)
(179.249 0 0)
(180.68 0 0)
(182.101 0 0)
(183.511 0 0)
(184.911 0 0)
(186.3 0 0)
(187.68 0 0)
(189.048 0 0)
(190.407 0 0)
(191.756 0 0)
(193.094 0 0)
(194.423 0 0)
(195.742 0 0)
(197.05 0 0)
(198.349 0 0)
(199.638 0 0)
(200.917 0 0)
(202.187 0 0)
(203.446 0 0)
(204.697 0 0)
(205.937 0 0)
(207.168 0 0)
(208.39 0 0)
(209.602 0 0)
(210.805 0 0)
(211.999 0 0)
(213.183 0 0)
(214.359 0 0)
(215.524 0 0)
(216.684 0 0)
(217.82 0 0)
(218.995 0 0)
(220.013 0 0)
(221.478 0 0)
(108.343 0 0)
(109.755 0 0)
(111.222 0 0)
(112.737 0 0)
(114.29 0 0)
(115.875 0 0)
(117.485 0 0)
(119.116 0 0)
(120.762 0 0)
(122.421 0 0)
(124.088 0 0)
(125.761 0 0)
(127.438 0 0)
(129.116 0 0)
(130.794 0 0)
(132.47 0 0)
(134.142 0 0)
(135.811 0 0)
(137.474 0 0)
(139.131 0 0)
(140.781 0 0)
(142.424 0 0)
(144.059 0 0)
(145.686 0 0)
(147.304 0 0)
(148.914 0 0)
(150.513 0 0)
(152.104 0 0)
(153.685 0 0)
(155.256 0 0)
(156.817 0 0)
(158.368 0 0)
(159.909 0 0)
(161.44 0 0)
(162.961 0 0)
(164.471 0 0)
(165.972 0 0)
(167.462 0 0)
(168.941 0 0)
(170.411 0 0)
(171.87 0 0)
(173.319 0 0)
(174.758 0 0)
(176.187 0 0)
(177.605 0 0)
(179.014 0 0)
(180.412 0 0)
(181.8 0 0)
(183.178 0 0)
(184.547 0 0)
(185.905 0 0)
(187.253 0 0)
(188.592 0 0)
(189.921 0 0)
(191.24 0 0)
(192.549 0 0)
(193.849 0 0)
(195.139 0 0)
(196.419 0 0)
(197.69 0 0)
(198.951 0 0)
(200.203 0 0)
(201.446 0 0)
(202.679 0 0)
(203.903 0 0)
(205.118 0 0)
(206.323 0 0)
(207.52 0 0)
(208.707 0 0)
(209.885 0 0)
(211.054 0 0)
(212.214 0 0)
(213.366 0 0)
(214.507 0 0)
(215.644 0 0)
(216.757 0 0)
(217.908 0 0)
(218.906 0 0)
(220.339 0 0)
(109.701 0 0)
(111.126 0 0)
(112.595 0 0)
(114.102 0 0)
(115.641 0 0)
(117.204 0 0)
(118.788 0 0)
(120.388 0 0)
(122 0 0)
(123.622 0 0)
(125.25 0 0)
(126.882 0 0)
(128.517 0 0)
(130.152 0 0)
(131.786 0 0)
(133.418 0 0)
(135.046 0 0)
(136.67 0 0)
(138.289 0 0)
(139.901 0 0)
(141.508 0 0)
(143.107 0 0)
(144.698 0 0)
(146.282 0 0)
(147.857 0 0)
(149.424 0 0)
(150.982 0 0)
(152.532 0 0)
(154.072 0 0)
(155.603 0 0)
(157.124 0 0)
(158.636 0 0)
(160.138 0 0)
(161.631 0 0)
(163.114 0 0)
(164.588 0 0)
(166.051 0 0)
(167.505 0 0)
(168.949 0 0)
(170.384 0 0)
(171.808 0 0)
(173.223 0 0)
(174.628 0 0)
(176.023 0 0)
(177.409 0 0)
(178.785 0 0)
(180.151 0 0)
(181.508 0 0)
(182.855 0 0)
(184.193 0 0)
(185.52 0 0)
(186.839 0 0)
(188.148 0 0)
(189.447 0 0)
(190.738 0 0)
(192.018 0 0)
(193.29 0 0)
(194.552 0 0)
(195.805 0 0)
(197.048 0 0)
(198.283 0 0)
(199.508 0 0)
(200.725 0 0)
(201.932 0 0)
(203.13 0 0)
(204.319 0 0)
(205.5 0 0)
(206.671 0 0)
(207.834 0 0)
(208.988 0 0)
(210.133 0 0)
(211.269 0 0)
(212.397 0 0)
(213.514 0 0)
(214.628 0 0)
(215.719 0 0)
(216.846 0 0)
(217.825 0 0)
(219.227 0 0)
(111.067 0 0)
(112.494 0 0)
(113.957 0 0)
(115.45 0 0)
(116.968 0 0)
(118.507 0 0)
(120.061 0 0)
(121.629 0 0)
(123.206 0 0)
(124.79 0 0)
(126.379 0 0)
(127.971 0 0)
(129.564 0 0)
(131.157 0 0)
(132.748 0 0)
(134.336 0 0)
(135.922 0 0)
(137.502 0 0)
(139.078 0 0)
(140.647 0 0)
(142.211 0 0)
(143.767 0 0)
(145.317 0 0)
(146.859 0 0)
(148.393 0 0)
(149.919 0 0)
(151.437 0 0)
(152.946 0 0)
(154.447 0 0)
(155.938 0 0)
(157.421 0 0)
(158.895 0 0)
(160.36 0 0)
(161.816 0 0)
(163.263 0 0)
(164.7 0 0)
(166.128 0 0)
(167.547 0 0)
(168.957 0 0)
(170.357 0 0)
(171.748 0 0)
(173.13 0 0)
(174.502 0 0)
(175.865 0 0)
(177.219 0 0)
(178.563 0 0)
(179.898 0 0)
(181.224 0 0)
(182.541 0 0)
(183.849 0 0)
(185.147 0 0)
(186.436 0 0)
(187.716 0 0)
(188.987 0 0)
(190.249 0 0)
(191.502 0 0)
(192.746 0 0)
(193.981 0 0)
(195.207 0 0)
(196.424 0 0)
(197.632 0 0)
(198.832 0 0)
(200.022 0 0)
(201.204 0 0)
(202.377 0 0)
(203.541 0 0)
(204.697 0 0)
(205.844 0 0)
(206.983 0 0)
(208.113 0 0)
(209.234 0 0)
(210.347 0 0)
(211.451 0 0)
(212.546 0 0)
(213.637 0 0)
(214.706 0 0)
(215.81 0 0)
(216.77 0 0)
(218.14 0 0)
(112.431 0 0)
(113.852 0 0)
(115.301 0 0)
(116.776 0 0)
(118.27 0 0)
(119.78 0 0)
(121.304 0 0)
(122.837 0 0)
(124.378 0 0)
(125.925 0 0)
(127.475 0 0)
(129.026 0 0)
(130.579 0 0)
(132.13 0 0)
(133.68 0 0)
(135.226 0 0)
(136.769 0 0)
(138.308 0 0)
(139.841 0 0)
(141.369 0 0)
(142.891 0 0)
(144.407 0 0)
(145.916 0 0)
(147.417 0 0)
(148.911 0 0)
(150.398 0 0)
(151.877 0 0)
(153.347 0 0)
(154.81 0 0)
(156.264 0 0)
(157.71 0 0)
(159.147 0 0)
(160.576 0 0)
(161.996 0 0)
(163.407 0 0)
(164.81 0 0)
(166.203 0 0)
(167.588 0 0)
(168.964 0 0)
(170.331 0 0)
(171.69 0 0)
(173.039 0 0)
(174.38 0 0)
(175.711 0 0)
(177.034 0 0)
(178.348 0 0)
(179.653 0 0)
(180.949 0 0)
(182.236 0 0)
(183.515 0 0)
(184.784 0 0)
(186.045 0 0)
(187.297 0 0)
(188.54 0 0)
(189.774 0 0)
(191 0 0)
(192.217 0 0)
(193.426 0 0)
(194.625 0 0)
(195.817 0 0)
(196.999 0 0)
(198.173 0 0)
(199.338 0 0)
(200.495 0 0)
(201.644 0 0)
(202.784 0 0)
(203.915 0 0)
(205.038 0 0)
(206.153 0 0)
(207.26 0 0)
(208.358 0 0)
(209.448 0 0)
(210.53 0 0)
(211.602 0 0)
(212.671 0 0)
(213.717 0 0)
(214.799 0 0)
(215.74 0 0)
(217.08 0 0)
(113.784 0 0)
(115.192 0 0)
(116.624 0 0)
(118.076 0 0)
(119.543 0 0)
(121.024 0 0)
(122.515 0 0)
(124.013 0 0)
(125.518 0 0)
(127.027 0 0)
(128.538 0 0)
(130.05 0 0)
(131.563 0 0)
(133.073 0 0)
(134.582 0 0)
(136.088 0 0)
(137.59 0 0)
(139.088 0 0)
(140.581 0 0)
(142.069 0 0)
(143.551 0 0)
(145.026 0 0)
(146.496 0 0)
(147.958 0 0)
(149.414 0 0)
(150.862 0 0)
(152.303 0 0)
(153.736 0 0)
(155.162 0 0)
(156.58 0 0)
(157.989 0 0)
(159.391 0 0)
(160.785 0 0)
(162.17 0 0)
(163.547 0 0)
(164.916 0 0)
(166.276 0 0)
(167.628 0 0)
(168.972 0 0)
(170.307 0 0)
(171.633 0 0)
(172.952 0 0)
(174.261 0 0)
(175.562 0 0)
(176.855 0 0)
(178.139 0 0)
(179.414 0 0)
(180.682 0 0)
(181.94 0 0)
(183.19 0 0)
(184.432 0 0)
(185.665 0 0)
(186.889 0 0)
(188.105 0 0)
(189.313 0 0)
(190.512 0 0)
(191.703 0 0)
(192.886 0 0)
(194.06 0 0)
(195.225 0 0)
(196.383 0 0)
(197.532 0 0)
(198.673 0 0)
(199.805 0 0)
(200.93 0 0)
(202.046 0 0)
(203.154 0 0)
(204.253 0 0)
(205.345 0 0)
(206.428 0 0)
(207.504 0 0)
(208.571 0 0)
(209.631 0 0)
(210.681 0 0)
(211.728 0 0)
(212.753 0 0)
(213.812 0 0)
(214.735 0 0)
(216.044 0 0)
(115.121 0 0)
(116.511 0 0)
(117.921 0 0)
(119.347 0 0)
(120.786 0 0)
(122.236 0 0)
(123.693 0 0)
(125.157 0 0)
(126.625 0 0)
(128.097 0 0)
(129.57 0 0)
(131.043 0 0)
(132.516 0 0)
(133.988 0 0)
(135.457 0 0)
(136.923 0 0)
(138.385 0 0)
(139.844 0 0)
(141.297 0 0)
(142.746 0 0)
(144.189 0 0)
(145.626 0 0)
(147.057 0 0)
(148.482 0 0)
(149.9 0 0)
(151.312 0 0)
(152.716 0 0)
(154.113 0 0)
(155.503 0 0)
(156.886 0 0)
(158.261 0 0)
(159.628 0 0)
(160.987 0 0)
(162.339 0 0)
(163.683 0 0)
(165.019 0 0)
(166.347 0 0)
(167.667 0 0)
(168.979 0 0)
(170.283 0 0)
(171.579 0 0)
(172.867 0 0)
(174.146 0 0)
(175.418 0 0)
(176.681 0 0)
(177.936 0 0)
(179.183 0 0)
(180.422 0 0)
(181.653 0 0)
(182.875 0 0)
(184.089 0 0)
(185.295 0 0)
(186.493 0 0)
(187.683 0 0)
(188.864 0 0)
(190.038 0 0)
(191.203 0 0)
(192.36 0 0)
(193.509 0 0)
(194.65 0 0)
(195.783 0 0)
(196.908 0 0)
(198.025 0 0)
(199.134 0 0)
(200.234 0 0)
(201.327 0 0)
(202.412 0 0)
(203.489 0 0)
(204.558 0 0)
(205.619 0 0)
(206.672 0 0)
(207.717 0 0)
(208.755 0 0)
(209.783 0 0)
(210.808 0 0)
(211.812 0 0)
(212.849 0 0)
(213.754 0 0)
(215.034 0 0)
(116.436 0 0)
(117.806 0 0)
(119.191 0 0)
(120.589 0 0)
(121.998 0 0)
(123.415 0 0)
(124.839 0 0)
(126.268 0 0)
(127.7 0 0)
(129.134 0 0)
(130.57 0 0)
(132.005 0 0)
(133.44 0 0)
(134.873 0 0)
(136.304 0 0)
(137.731 0 0)
(139.155 0 0)
(140.575 0 0)
(141.991 0 0)
(143.402 0 0)
(144.807 0 0)
(146.207 0 0)
(147.602 0 0)
(148.99 0 0)
(150.372 0 0)
(151.747 0 0)
(153.116 0 0)
(154.479 0 0)
(155.834 0 0)
(157.182 0 0)
(158.524 0 0)
(159.857 0 0)
(161.184 0 0)
(162.503 0 0)
(163.815 0 0)
(165.119 0 0)
(166.416 0 0)
(167.705 0 0)
(168.987 0 0)
(170.26 0 0)
(171.526 0 0)
(172.785 0 0)
(174.035 0 0)
(175.278 0 0)
(176.513 0 0)
(177.74 0 0)
(178.959 0 0)
(180.17 0 0)
(181.373 0 0)
(182.569 0 0)
(183.757 0 0)
(184.936 0 0)
(186.108 0 0)
(187.272 0 0)
(188.428 0 0)
(189.577 0 0)
(190.717 0 0)
(191.849 0 0)
(192.974 0 0)
(194.091 0 0)
(195.2 0 0)
(196.301 0 0)
(197.394 0 0)
(198.48 0 0)
(199.557 0 0)
(200.627 0 0)
(201.689 0 0)
(202.744 0 0)
(203.791 0 0)
(204.829 0 0)
(205.861 0 0)
(206.884 0 0)
(207.9 0 0)
(208.908 0 0)
(209.911 0 0)
(210.895 0 0)
(211.91 0 0)
(212.797 0 0)
(214.048 0 0)
(117.726 0 0)
(119.072 0 0)
(120.431 0 0)
(121.8 0 0)
(123.178 0 0)
(124.563 0 0)
(125.953 0 0)
(127.346 0 0)
(128.743 0 0)
(130.141 0 0)
(131.54 0 0)
(132.938 0 0)
(134.335 0 0)
(135.731 0 0)
(137.124 0 0)
(138.514 0 0)
(139.901 0 0)
(141.284 0 0)
(142.662 0 0)
(144.037 0 0)
(145.406 0 0)
(146.77 0 0)
(148.129 0 0)
(149.481 0 0)
(150.829 0 0)
(152.17 0 0)
(153.504 0 0)
(154.833 0 0)
(156.155 0 0)
(157.47 0 0)
(158.778 0 0)
(160.08 0 0)
(161.375 0 0)
(162.663 0 0)
(163.943 0 0)
(165.217 0 0)
(166.483 0 0)
(167.742 0 0)
(168.994 0 0)
(170.238 0 0)
(171.475 0 0)
(172.705 0 0)
(173.927 0 0)
(175.142 0 0)
(176.349 0 0)
(177.549 0 0)
(178.741 0 0)
(179.925 0 0)
(181.102 0 0)
(182.272 0 0)
(183.434 0 0)
(184.588 0 0)
(185.734 0 0)
(186.873 0 0)
(188.004 0 0)
(189.128 0 0)
(190.244 0 0)
(191.353 0 0)
(192.453 0 0)
(193.547 0 0)
(194.632 0 0)
(195.71 0 0)
(196.781 0 0)
(197.843 0 0)
(198.898 0 0)
(199.946 0 0)
(200.986 0 0)
(202.018 0 0)
(203.043 0 0)
(204.061 0 0)
(205.071 0 0)
(206.073 0 0)
(207.068 0 0)
(208.054 0 0)
(209.037 0 0)
(210.001 0 0)
(210.994 0 0)
(211.864 0 0)
(213.086 0 0)
(118.99 0 0)
(120.31 0 0)
(121.64 0 0)
(122.98 0 0)
(124.326 0 0)
(125.678 0 0)
(127.034 0 0)
(128.393 0 0)
(129.754 0 0)
(131.117 0 0)
(132.479 0 0)
(133.841 0 0)
(135.202 0 0)
(136.561 0 0)
(137.918 0 0)
(139.272 0 0)
(140.623 0 0)
(141.97 0 0)
(143.313 0 0)
(144.651 0 0)
(145.986 0 0)
(147.315 0 0)
(148.639 0 0)
(149.958 0 0)
(151.271 0 0)
(152.579 0 0)
(153.88 0 0)
(155.176 0 0)
(156.466 0 0)
(157.749 0 0)
(159.026 0 0)
(160.296 0 0)
(161.56 0 0)
(162.817 0 0)
(164.068 0 0)
(165.312 0 0)
(166.548 0 0)
(167.778 0 0)
(169.001 0 0)
(170.217 0 0)
(171.426 0 0)
(172.628 0 0)
(173.823 0 0)
(175.01 0 0)
(176.191 0 0)
(177.364 0 0)
(178.529 0 0)
(179.688 0 0)
(180.839 0 0)
(181.983 0 0)
(183.12 0 0)
(184.249 0 0)
(185.371 0 0)
(186.485 0 0)
(187.593 0 0)
(188.692 0 0)
(189.785 0 0)
(190.87 0 0)
(191.947 0 0)
(193.017 0 0)
(194.08 0 0)
(195.135 0 0)
(196.183 0 0)
(197.224 0 0)
(198.257 0 0)
(199.283 0 0)
(200.301 0 0)
(201.312 0 0)
(202.316 0 0)
(203.312 0 0)
(204.301 0 0)
(205.282 0 0)
(206.257 0 0)
(207.223 0 0)
(208.185 0 0)
(209.129 0 0)
(210.101 0 0)
(210.954 0 0)
(212.148 0 0)
(120.224 0 0)
(121.517 0 0)
(122.818 0 0)
(124.127 0 0)
(125.441 0 0)
(126.761 0 0)
(128.083 0 0)
(129.408 0 0)
(130.735 0 0)
(132.062 0 0)
(133.39 0 0)
(134.716 0 0)
(136.042 0 0)
(137.366 0 0)
(138.687 0 0)
(140.006 0 0)
(141.322 0 0)
(142.634 0 0)
(143.942 0 0)
(145.247 0 0)
(146.547 0 0)
(147.843 0 0)
(149.133 0 0)
(150.419 0 0)
(151.7 0 0)
(152.975 0 0)
(154.245 0 0)
(155.509 0 0)
(156.767 0 0)
(158.019 0 0)
(159.266 0 0)
(160.506 0 0)
(161.74 0 0)
(162.967 0 0)
(164.189 0 0)
(165.403 0 0)
(166.612 0 0)
(167.813 0 0)
(169.009 0 0)
(170.197 0 0)
(171.379 0 0)
(172.553 0 0)
(173.721 0 0)
(174.883 0 0)
(176.037 0 0)
(177.184 0 0)
(178.324 0 0)
(179.458 0 0)
(180.584 0 0)
(181.703 0 0)
(182.815 0 0)
(183.92 0 0)
(185.018 0 0)
(186.109 0 0)
(187.192 0 0)
(188.269 0 0)
(189.338 0 0)
(190.4 0 0)
(191.455 0 0)
(192.503 0 0)
(193.543 0 0)
(194.576 0 0)
(195.602 0 0)
(196.621 0 0)
(197.633 0 0)
(198.637 0 0)
(199.635 0 0)
(200.625 0 0)
(201.607 0 0)
(202.583 0 0)
(203.551 0 0)
(204.512 0 0)
(205.467 0 0)
(206.412 0 0)
(207.355 0 0)
(208.279 0 0)
(209.231 0 0)
(210.067 0 0)
(211.233 0 0)
(121.427 0 0)
(122.692 0 0)
(123.964 0 0)
(125.242 0 0)
(126.525 0 0)
(127.812 0 0)
(129.101 0 0)
(130.393 0 0)
(131.685 0 0)
(132.979 0 0)
(134.272 0 0)
(135.564 0 0)
(136.855 0 0)
(138.145 0 0)
(139.432 0 0)
(140.717 0 0)
(141.998 0 0)
(143.277 0 0)
(144.552 0 0)
(145.823 0 0)
(147.091 0 0)
(148.354 0 0)
(149.612 0 0)
(150.866 0 0)
(152.115 0 0)
(153.359 0 0)
(154.598 0 0)
(155.831 0 0)
(157.059 0 0)
(158.281 0 0)
(159.498 0 0)
(160.709 0 0)
(161.914 0 0)
(163.113 0 0)
(164.306 0 0)
(165.493 0 0)
(166.673 0 0)
(167.848 0 0)
(169.016 0 0)
(170.177 0 0)
(171.332 0 0)
(172.481 0 0)
(173.623 0 0)
(174.759 0 0)
(175.888 0 0)
(177.01 0 0)
(178.125 0 0)
(179.234 0 0)
(180.336 0 0)
(181.431 0 0)
(182.519 0 0)
(183.601 0 0)
(184.675 0 0)
(185.743 0 0)
(186.803 0 0)
(187.857 0 0)
(188.904 0 0)
(189.944 0 0)
(190.976 0 0)
(192.002 0 0)
(193.021 0 0)
(194.033 0 0)
(195.037 0 0)
(196.035 0 0)
(197.026 0 0)
(198.009 0 0)
(198.986 0 0)
(199.955 0 0)
(200.917 0 0)
(201.873 0 0)
(202.821 0 0)
(203.762 0 0)
(204.697 0 0)
(205.623 0 0)
(206.546 0 0)
(207.451 0 0)
(208.382 0 0)
(209.202 0 0)
(210.341 0 0)
(122.6 0 0)
(123.836 0 0)
(125.078 0 0)
(126.325 0 0)
(127.577 0 0)
(128.831 0 0)
(130.088 0 0)
(131.347 0 0)
(132.606 0 0)
(133.866 0 0)
(135.126 0 0)
(136.385 0 0)
(137.643 0 0)
(138.899 0 0)
(140.153 0 0)
(141.405 0 0)
(142.654 0 0)
(143.9 0 0)
(145.143 0 0)
(146.382 0 0)
(147.617 0 0)
(148.849 0 0)
(150.076 0 0)
(151.299 0 0)
(152.517 0 0)
(153.731 0 0)
(154.94 0 0)
(156.144 0 0)
(157.342 0 0)
(158.536 0 0)
(159.724 0 0)
(160.906 0 0)
(162.083 0 0)
(163.254 0 0)
(164.42 0 0)
(165.58 0 0)
(166.733 0 0)
(167.881 0 0)
(169.023 0 0)
(170.158 0 0)
(171.288 0 0)
(172.411 0 0)
(173.528 0 0)
(174.639 0 0)
(175.743 0 0)
(176.841 0 0)
(177.932 0 0)
(179.017 0 0)
(180.095 0 0)
(181.167 0 0)
(182.232 0 0)
(183.29 0 0)
(184.342 0 0)
(185.387 0 0)
(186.426 0 0)
(187.457 0 0)
(188.482 0 0)
(189.5 0 0)
(190.511 0 0)
(191.516 0 0)
(192.513 0 0)
(193.504 0 0)
(194.488 0 0)
(195.465 0 0)
(196.435 0 0)
(197.398 0 0)
(198.354 0 0)
(199.303 0 0)
(200.246 0 0)
(201.181 0 0)
(202.11 0 0)
(203.032 0 0)
(203.947 0 0)
(204.854 0 0)
(205.757 0 0)
(206.643 0 0)
(207.556 0 0)
(208.359 0 0)
(209.471 0 0)
(123.741 0 0)
(124.948 0 0)
(126.16 0 0)
(127.377 0 0)
(128.597 0 0)
(129.82 0 0)
(131.045 0 0)
(132.272 0 0)
(133.499 0 0)
(134.726 0 0)
(135.953 0 0)
(137.18 0 0)
(138.405 0 0)
(139.629 0 0)
(140.851 0 0)
(142.071 0 0)
(143.288 0 0)
(144.503 0 0)
(145.714 0 0)
(146.923 0 0)
(148.127 0 0)
(149.328 0 0)
(150.525 0 0)
(151.718 0 0)
(152.907 0 0)
(154.092 0 0)
(155.271 0 0)
(156.446 0 0)
(157.617 0 0)
(158.782 0 0)
(159.942 0 0)
(161.097 0 0)
(162.247 0 0)
(163.391 0 0)
(164.53 0 0)
(165.664 0 0)
(166.792 0 0)
(167.914 0 0)
(169.03 0 0)
(170.14 0 0)
(171.245 0 0)
(172.343 0 0)
(173.436 0 0)
(174.522 0 0)
(175.603 0 0)
(176.677 0 0)
(177.745 0 0)
(178.806 0 0)
(179.862 0 0)
(180.91 0 0)
(181.953 0 0)
(182.989 0 0)
(184.019 0 0)
(185.042 0 0)
(186.058 0 0)
(187.068 0 0)
(188.072 0 0)
(189.069 0 0)
(190.059 0 0)
(191.042 0 0)
(192.019 0 0)
(192.989 0 0)
(193.953 0 0)
(194.91 0 0)
(195.86 0 0)
(196.803 0 0)
(197.739 0 0)
(198.669 0 0)
(199.592 0 0)
(200.508 0 0)
(201.418 0 0)
(202.32 0 0)
(203.216 0 0)
(204.105 0 0)
(204.989 0 0)
(205.857 0 0)
(206.75 0 0)
(207.537 0 0)
(208.624 0 0)
(124.85 0 0)
(126.028 0 0)
(127.211 0 0)
(128.397 0 0)
(129.587 0 0)
(130.779 0 0)
(131.973 0 0)
(133.168 0 0)
(134.363 0 0)
(135.559 0 0)
(136.755 0 0)
(137.95 0 0)
(139.144 0 0)
(140.336 0 0)
(141.527 0 0)
(142.716 0 0)
(143.903 0 0)
(145.087 0 0)
(146.268 0 0)
(147.446 0 0)
(148.621 0 0)
(149.793 0 0)
(150.961 0 0)
(152.125 0 0)
(153.285 0 0)
(154.441 0 0)
(155.593 0 0)
(156.74 0 0)
(157.883 0 0)
(159.021 0 0)
(160.154 0 0)
(161.283 0 0)
(162.406 0 0)
(163.525 0 0)
(164.638 0 0)
(165.746 0 0)
(166.848 0 0)
(167.945 0 0)
(169.037 0 0)
(170.123 0 0)
(171.203 0 0)
(172.278 0 0)
(173.347 0 0)
(174.41 0 0)
(175.467 0 0)
(176.518 0 0)
(177.563 0 0)
(178.602 0 0)
(179.635 0 0)
(180.661 0 0)
(181.682 0 0)
(182.696 0 0)
(183.704 0 0)
(184.706 0 0)
(185.702 0 0)
(186.691 0 0)
(187.673 0 0)
(188.649 0 0)
(189.619 0 0)
(190.582 0 0)
(191.539 0 0)
(192.489 0 0)
(193.433 0 0)
(194.37 0 0)
(195.3 0 0)
(196.224 0 0)
(197.141 0 0)
(198.052 0 0)
(198.956 0 0)
(199.853 0 0)
(200.744 0 0)
(201.628 0 0)
(202.505 0 0)
(203.375 0 0)
(204.241 0 0)
(205.091 0 0)
(205.965 0 0)
(206.736 0 0)
(207.798 0 0)
(125.928 0 0)
(127.077 0 0)
(128.23 0 0)
(129.387 0 0)
(130.547 0 0)
(131.708 0 0)
(132.871 0 0)
(134.036 0 0)
(135.201 0 0)
(136.366 0 0)
(137.531 0 0)
(138.695 0 0)
(139.859 0 0)
(141.021 0 0)
(142.182 0 0)
(143.341 0 0)
(144.498 0 0)
(145.652 0 0)
(146.804 0 0)
(147.954 0 0)
(149.1 0 0)
(150.243 0 0)
(151.382 0 0)
(152.519 0 0)
(153.651 0 0)
(154.78 0 0)
(155.904 0 0)
(157.025 0 0)
(158.141 0 0)
(159.253 0 0)
(160.36 0 0)
(161.463 0 0)
(162.561 0 0)
(163.654 0 0)
(164.742 0 0)
(165.825 0 0)
(166.903 0 0)
(167.976 0 0)
(169.044 0 0)
(170.106 0 0)
(171.163 0 0)
(172.214 0 0)
(173.26 0 0)
(174.3 0 0)
(175.335 0 0)
(176.363 0 0)
(177.386 0 0)
(178.403 0 0)
(179.415 0 0)
(180.42 0 0)
(181.419 0 0)
(182.412 0 0)
(183.399 0 0)
(184.38 0 0)
(185.355 0 0)
(186.324 0 0)
(187.286 0 0)
(188.242 0 0)
(189.192 0 0)
(190.135 0 0)
(191.072 0 0)
(192.003 0 0)
(192.927 0 0)
(193.845 0 0)
(194.756 0 0)
(195.661 0 0)
(196.559 0 0)
(197.451 0 0)
(198.337 0 0)
(199.215 0 0)
(200.088 0 0)
(200.953 0 0)
(201.813 0 0)
(202.664 0 0)
(203.513 0 0)
(204.345 0 0)
(205.2 0 0)
(205.957 0 0)
(206.993 0 0)
(126.974 0 0)
(128.095 0 0)
(129.219 0 0)
(130.347 0 0)
(131.477 0 0)
(132.609 0 0)
(133.742 0 0)
(134.877 0 0)
(136.012 0 0)
(137.147 0 0)
(138.283 0 0)
(139.417 0 0)
(140.551 0 0)
(141.684 0 0)
(142.816 0 0)
(143.946 0 0)
(145.074 0 0)
(146.2 0 0)
(147.324 0 0)
(148.445 0 0)
(149.563 0 0)
(150.679 0 0)
(151.791 0 0)
(152.9 0 0)
(154.006 0 0)
(155.108 0 0)
(156.206 0 0)
(157.301 0 0)
(158.391 0 0)
(159.477 0 0)
(160.559 0 0)
(161.637 0 0)
(162.71 0 0)
(163.779 0 0)
(164.843 0 0)
(165.902 0 0)
(166.957 0 0)
(168.006 0 0)
(169.05 0 0)
(170.09 0 0)
(171.124 0 0)
(172.153 0 0)
(173.176 0 0)
(174.194 0 0)
(175.207 0 0)
(176.214 0 0)
(177.215 0 0)
(178.211 0 0)
(179.201 0 0)
(180.185 0 0)
(181.164 0 0)
(182.136 0 0)
(183.103 0 0)
(184.064 0 0)
(185.018 0 0)
(185.967 0 0)
(186.91 0 0)
(187.846 0 0)
(188.776 0 0)
(189.7 0 0)
(190.618 0 0)
(191.53 0 0)
(192.435 0 0)
(193.334 0 0)
(194.227 0 0)
(195.113 0 0)
(195.993 0 0)
(196.867 0 0)
(197.734 0 0)
(198.595 0 0)
(199.449 0 0)
(200.297 0 0)
(201.139 0 0)
(201.973 0 0)
(202.803 0 0)
(203.618 0 0)
(204.455 0 0)
(205.197 0 0)
(206.209 0 0)
(127.989 0 0)
(129.082 0 0)
(130.178 0 0)
(131.277 0 0)
(132.378 0 0)
(133.481 0 0)
(134.586 0 0)
(135.691 0 0)
(136.797 0 0)
(137.904 0 0)
(139.01 0 0)
(140.116 0 0)
(141.222 0 0)
(142.326 0 0)
(143.43 0 0)
(144.532 0 0)
(145.632 0 0)
(146.73 0 0)
(147.827 0 0)
(148.921 0 0)
(150.012 0 0)
(151.101 0 0)
(152.187 0 0)
(153.27 0 0)
(154.349 0 0)
(155.426 0 0)
(156.499 0 0)
(157.568 0 0)
(158.634 0 0)
(159.695 0 0)
(160.753 0 0)
(161.806 0 0)
(162.856 0 0)
(163.901 0 0)
(164.941 0 0)
(165.977 0 0)
(167.009 0 0)
(168.035 0 0)
(169.057 0 0)
(170.074 0 0)
(171.086 0 0)
(172.093 0 0)
(173.095 0 0)
(174.091 0 0)
(175.083 0 0)
(176.068 0 0)
(177.049 0 0)
(178.024 0 0)
(178.994 0 0)
(179.957 0 0)
(180.916 0 0)
(181.868 0 0)
(182.815 0 0)
(183.756 0 0)
(184.691 0 0)
(185.621 0 0)
(186.544 0 0)
(187.461 0 0)
(188.373 0 0)
(189.278 0 0)
(190.177 0 0)
(191.07 0 0)
(191.957 0 0)
(192.838 0 0)
(193.712 0 0)
(194.581 0 0)
(195.443 0 0)
(196.298 0 0)
(197.148 0 0)
(197.991 0 0)
(198.828 0 0)
(199.658 0 0)
(200.482 0 0)
(201.299 0 0)
(202.113 0 0)
(202.911 0 0)
(203.73 0 0)
(204.457 0 0)
(205.445 0 0)
(128.974 0 0)
(130.04 0 0)
(131.108 0 0)
(132.179 0 0)
(133.252 0 0)
(134.326 0 0)
(135.403 0 0)
(136.48 0 0)
(137.558 0 0)
(138.636 0 0)
(139.715 0 0)
(140.793 0 0)
(141.871 0 0)
(142.948 0 0)
(144.024 0 0)
(145.099 0 0)
(146.172 0 0)
(147.244 0 0)
(148.314 0 0)
(149.381 0 0)
(150.447 0 0)
(151.51 0 0)
(152.57 0 0)
(153.628 0 0)
(154.682 0 0)
(155.734 0 0)
(156.782 0 0)
(157.827 0 0)
(158.869 0 0)
(159.906 0 0)
(160.94 0 0)
(161.971 0 0)
(162.997 0 0)
(164.019 0 0)
(165.037 0 0)
(166.05 0 0)
(167.059 0 0)
(168.064 0 0)
(169.064 0 0)
(170.059 0 0)
(171.05 0 0)
(172.035 0 0)
(173.016 0 0)