/*--------------------------------*- C++ -*----------------------------------*\
| =========                 |                                                 |
| \\      /  F ield         | OpenFOAM: The Open Source CFD Toolbox           |
|  \\    /   O peration     | Version:  2312                                  |
|   \\  /    A nd           | Website:  www.openfoam.com                      |
|    \\/     M anipulation  |                                                 |
\*---------------------------------------------------------------------------*/
FoamFile
{
    version     2.0;
    format      ascii;
    arch        "LSB;label=32;scalar=64";
    class       volVectorField;
    location    "0.337";
    object      U;
}
// * * * * * * * * * * * * * * * * * * * * * * * * * * * * * * * * * * * * * //

dimensions      [0 1 -1 0 0 0 0];

internalField   nonuniform List<vector> 
31205
(
(208.754 0 0)
(211.409 0 0)
(213.994 0 0)
(216.512 0 0)
(218.966 0 0)
(221.359 0 0)
(223.693 0 0)
(225.971 0 0)
(228.195 0 0)
(230.368 0 0)
(232.49 0 0)
(234.564 0 0)
(236.591 0 0)
(238.573 0 0)
(240.512 0 0)
(242.407 0 0)
(244.262 0 0)
(246.076 0 0)
(247.852 0 0)
(249.589 0 0)
(251.289 0 0)
(252.953 0 0)
(254.581 0 0)
(256.174 0 0)
(257.734 0 0)
(259.26 0 0)
(260.753 0 0)
(262.214 0 0)
(263.644 0 0)
(265.042 0 0)
(266.41 0 0)
(267.747 0 0)
(269.055 0 0)
(270.334 0 0)
(271.583 0 0)
(272.804 0 0)
(273.997 0 0)
(275.161 0 0)
(276.298 0 0)
(277.407 0 0)
(278.488 0 0)
(279.543 0 0)
(280.57 0 0)
(281.571 0 0)
(282.545 0 0)
(283.492 0 0)
(284.413 0 0)
(285.307 0 0)
(286.175 0 0)
(287.017 0 0)
(287.832 0 0)
(288.621 0 0)
(289.383 0 0)
(290.119 0 0)
(290.829 0 0)
(291.511 0 0)
(292.168 0 0)
(292.797 0 0)
(293.399 0 0)
(293.974 0 0)
(294.522 0 0)
(295.042 0 0)
(295.534 0 0)
(295.997 0 0)
(296.432 0 0)
(296.839 0 0)
(297.216 0 0)
(297.563 0 0)
(297.88 0 0)
(298.166 0 0)
(298.421 0 0)
(298.643 0 0)
(298.834 0 0)
(298.991 0 0)
(299.113 0 0)
(299.203 0 0)
(299.248 0 0)
(299.28 0 0)
(299.217 0 0)
(211.571 0 0)
(214.075 0 0)
(216.516 0 0)
(218.897 0 0)
(221.221 0 0)
(223.489 0 0)
(225.705 0 0)
(227.869 0 0)
(229.985 0 0)
(232.053 0 0)
(234.075 0 0)
(236.054 0 0)
(237.989 0 0)
(239.883 0 0)
(241.736 0 0)
(243.551 0 0)
(245.327 0 0)
(247.066 0 0)
(248.768 0 0)
(250.436 0 0)
(252.068 0 0)
(253.667 0 0)
(255.233 0 0)
(256.767 0 0)
(258.268 0 0)
(259.739 0 0)
(261.179 0 0)
(262.588 0 0)
(263.968 0 0)
(265.319 0 0)
(266.642 0 0)
(267.935 0 0)
(269.201 0 0)
(270.44 0 0)
(271.65 0 0)
(272.834 0 0)
(273.992 0 0)
(275.123 0 0)
(276.227 0 0)
(277.306 0 0)
(278.359 0 0)
(279.386 0 0)
(280.388 0 0)
(281.364 0 0)
(282.315 0 0)
(283.242 0 0)
(284.143 0 0)
(285.019 0 0)
(285.87 0 0)
(286.697 0 0)
(287.499 0 0)
(288.276 0 0)
(289.028 0 0)
(289.755 0 0)
(290.457 0 0)
(291.134 0 0)
(291.786 0 0)
(292.413 0 0)
(293.015 0 0)
(293.591 0 0)
(294.141 0 0)
(294.665 0 0)
(295.164 0 0)
(295.636 0 0)
(296.081 0 0)
(296.5 0 0)
(296.891 0 0)
(297.254 0 0)
(297.59 0 0)
(297.897 0 0)
(298.175 0 0)
(298.424 0 0)
(298.642 0 0)
(298.831 0 0)
(298.987 0 0)
(299.114 0 0)
(299.201 0 0)
(299.271 0 0)
(299.274 0 0)
(214.352 0 0)
(216.713 0 0)
(219.018 0 0)
(221.268 0 0)
(223.467 0 0)
(225.617 0 0)
(227.718 0 0)
(229.774 0 0)
(231.784 0 0)
(233.752 0 0)
(235.678 0 0)
(237.564 0 0)
(239.41 0 0)
(241.218 0 0)
(242.989 0 0)
(244.724 0 0)
(246.424 0 0)
(248.089 0 0)
(249.721 0 0)
(251.32 0 0)
(252.886 0 0)
(254.422 0 0)
(255.926 0 0)
(257.401 0 0)
(258.846 0 0)
(260.261 0 0)
(261.648 0 0)
(263.007 0 0)
(264.338 0 0)
(265.642 0 0)
(266.919 0 0)
(268.169 0 0)
(269.393 0 0)
(270.591 0 0)
(271.763 0 0)
(272.91 0 0)
(274.032 0 0)
(275.129 0 0)
(276.202 0 0)
(277.25 0 0)
(278.273 0 0)
(279.273 0 0)
(280.248 0 0)
(281.2 0 0)
(282.128 0 0)
(283.032 0 0)
(283.913 0 0)
(284.77 0 0)
(285.603 0 0)
(286.414 0 0)
(287.201 0 0)
(287.964 0 0)
(288.705 0 0)
(289.421 0 0)
(290.115 0 0)
(290.785 0 0)
(291.431 0 0)
(292.053 0 0)
(292.652 0 0)
(293.227 0 0)
(293.778 0 0)
(294.304 0 0)
(294.806 0 0)
(295.284 0 0)
(295.737 0 0)
(296.164 0 0)
(296.566 0 0)
(296.943 0 0)
(297.293 0 0)
(297.617 0 0)
(297.915 0 0)
(298.185 0 0)
(298.427 0 0)
(298.642 0 0)
(298.827 0 0)
(298.985 0 0)
(299.108 0 0)
(299.209 0 0)
(299.269 0 0)
(217.026 0 0)
(219.253 0 0)
(221.43 0 0)
(223.559 0 0)
(225.642 0 0)
(227.68 0 0)
(229.674 0 0)
(231.626 0 0)
(233.538 0 0)
(235.411 0 0)
(237.246 0 0)
(239.043 0 0)
(240.805 0 0)
(242.531 0 0)
(244.223 0 0)
(245.882 0 0)
(247.509 0 0)
(249.104 0 0)
(250.667 0 0)
(252.2 0 0)
(253.704 0 0)
(255.178 0 0)
(256.624 0 0)
(258.041 0 0)
(259.431 0 0)
(260.793 0 0)
(262.129 0 0)
(263.439 0 0)
(264.722 0 0)
(265.98 0 0)
(267.213 0 0)
(268.42 0 0)
(269.603 0 0)
(270.762 0 0)
(271.897 0 0)
(273.008 0 0)
(274.095 0 0)
(275.158 0 0)
(276.199 0 0)
(277.216 0 0)
(278.211 0 0)
(279.183 0 0)
(280.132 0 0)
(281.059 0 0)
(281.964 0 0)
(282.846 0 0)
(283.706 0 0)
(284.543 0 0)
(285.359 0 0)
(286.153 0 0)
(286.925 0 0)
(287.674 0 0)
(288.402 0 0)
(289.107 0 0)
(289.791 0 0)
(290.452 0 0)
(291.092 0 0)
(291.709 0 0)
(292.303 0 0)
(292.875 0 0)
(293.425 0 0)
(293.952 0 0)
(294.456 0 0)
(294.937 0 0)
(295.395 0 0)
(295.829 0 0)
(296.24 0 0)
(296.627 0 0)
(296.989 0 0)
(297.328 0 0)
(297.641 0 0)
(297.929 0 0)
(298.192 0 0)
(298.428 0 0)
(298.638 0 0)
(298.822 0 0)
(298.977 0 0)
(299.105 0 0)
(299.213 0 0)
(219.567 0 0)
(221.671 0 0)
(223.731 0 0)
(225.746 0 0)
(227.72 0 0)
(229.653 0 0)
(231.548 0 0)
(233.404 0 0)
(235.223 0 0)
(237.006 0 0)
(238.754 0 0)
(240.469 0 0)
(242.15 0 0)
(243.799 0 0)
(245.417 0 0)
(247.004 0 0)
(248.561 0 0)
(250.088 0 0)
(251.587 0 0)
(253.058 0 0)
(254.5 0 0)
(255.916 0 0)
(257.305 0 0)
(258.668 0 0)
(260.005 0 0)
(261.317 0 0)
(262.603 0 0)
(263.865 0 0)
(265.103 0 0)
(266.316 0 0)
(267.507 0 0)
(268.673 0 0)
(269.817 0 0)
(270.937 0 0)
(272.035 0 0)
(273.111 0 0)
(274.164 0 0)
(275.196 0 0)
(276.205 0 0)
(277.193 0 0)
(278.159 0 0)
(279.104 0 0)
(280.027 0 0)
(280.93 0 0)
(281.811 0 0)
(282.671 0 0)
(283.511 0 0)
(284.329 0 0)
(285.127 0 0)
(285.904 0 0)
(286.66 0 0)
(287.395 0 0)
(288.11 0 0)
(288.804 0 0)
(289.477 0 0)
(290.13 0 0)
(290.761 0 0)
(291.372 0 0)
(291.961 0 0)
(292.53 0 0)
(293.077 0 0)
(293.603 0 0)
(294.108 0 0)
(294.591 0 0)
(295.052 0 0)
(295.492 0 0)
(295.909 0 0)
(296.304 0 0)
(296.677 0 0)
(297.027 0 0)
(297.354 0 0)
(297.657 0 0)
(297.937 0 0)
(298.192 0 0)
(298.424 0 0)
(298.63 0 0)
(298.812 0 0)
(298.964 0 0)
(299.114 0 0)
(221.974 0 0)
(223.964 0 0)
(225.914 0 0)
(227.825 0 0)
(229.698 0 0)
(231.533 0 0)
(233.334 0 0)
(235.099 0 0)
(236.831 0 0)
(238.53 0 0)
(240.198 0 0)
(241.834 0 0)
(243.44 0 0)
(245.016 0 0)
(246.563 0 0)
(248.082 0 0)
(249.572 0 0)
(251.036 0 0)
(252.473 0 0)
(253.884 0 0)
(255.269 0 0)
(256.629 0 0)
(257.964 0 0)
(259.275 0 0)
(260.561 0 0)
(261.824 0 0)
(263.063 0 0)
(264.28 0 0)
(265.473 0 0)
(266.644 0 0)
(267.793 0 0)
(268.921 0 0)
(270.026 0 0)
(271.11 0 0)
(272.172 0 0)
(273.214 0 0)
(274.234 0 0)
(275.234 0 0)
(276.214 0 0)
(277.173 0 0)
(278.111 0 0)
(279.03 0 0)
(279.928 0 0)
(280.806 0 0)
(281.665 0 0)
(282.504 0 0)
(283.323 0 0)
(284.122 0 0)
(284.902 0 0)
(285.662 0 0)
(286.403 0 0)
(287.124 0 0)
(287.825 0 0)
(288.507 0 0)
(289.17 0 0)
(289.813 0 0)
(290.436 0 0)
(291.04 0 0)
(291.623 0 0)
(292.187 0 0)
(292.732 0 0)
(293.256 0 0)
(293.76 0 0)
(294.244 0 0)
(294.708 0 0)
(295.151 0 0)
(295.573 0 0)
(295.975 0 0)
(296.356 0 0)
(296.715 0 0)
(297.054 0 0)
(297.37 0 0)
(297.664 0 0)
(297.937 0 0)
(298.186 0 0)
(298.413 0 0)
(298.618 0 0)
(298.79 0 0)
(298.977 0 0)
(224.253 0 0)
(226.138 0 0)
(227.986 0 0)
(229.799 0 0)
(231.577 0 0)
(233.322 0 0)
(235.034 0 0)
(236.715 0 0)
(238.365 0 0)
(239.985 0 0)
(241.576 0 0)
(243.139 0 0)
(244.673 0 0)
(246.18 0 0)
(247.66 0 0)
(249.114 0 0)
(250.542 0 0)
(251.946 0 0)
(253.324 0 0)
(254.678 0 0)
(256.008 0 0)
(257.315 0 0)
(258.598 0 0)
(259.859 0 0)
(261.097 0 0)
(262.313 0 0)
(263.507 0 0)
(264.68 0 0)
(265.831 0 0)
(266.962 0 0)
(268.071 0 0)
(269.16 0 0)
(270.229 0 0)
(271.277 0 0)
(272.306 0 0)
(273.314 0 0)
(274.303 0 0)
(275.272 0 0)
(276.223 0 0)
(277.153 0 0)
(278.065 0 0)
(278.958 0 0)
(279.832 0 0)
(280.687 0 0)
(281.523 0 0)
(282.341 0 0)
(283.14 0 0)
(283.92 0 0)
(284.682 0 0)
(285.426 0 0)
(286.151 0 0)
(286.858 0 0)
(287.546 0 0)
(288.216 0 0)
(288.867 0 0)
(289.5 0 0)
(290.115 0 0)
(290.711 0 0)
(291.289 0 0)
(291.848 0 0)
(292.388 0 0)
(292.91 0 0)
(293.412 0 0)
(293.896 0 0)
(294.361 0 0)
(294.807 0 0)
(295.233 0 0)
(295.64 0 0)
(296.027 0 0)
(296.395 0 0)
(296.742 0 0)
(297.07 0 0)
(297.376 0 0)
(297.663 0 0)
(297.928 0 0)
(298.172 0 0)
(298.398 0 0)
(298.588 0 0)
(298.807 0 0)
(226.413 0 0)
(228.2 0 0)
(229.953 0 0)
(231.674 0 0)
(233.364 0 0)
(235.024 0 0)
(236.654 0 0)
(238.255 0 0)
(239.828 0 0)
(241.374 0 0)
(242.893 0 0)
(244.385 0 0)
(245.852 0 0)
(247.294 0 0)
(248.711 0 0)
(250.103 0 0)
(251.472 0 0)
(252.818 0 0)
(254.14 0 0)
(255.44 0 0)
(256.718 0 0)
(257.974 0 0)
(259.208 0 0)
(260.421 0 0)
(261.613 0 0)
(262.784 0 0)
(263.935 0 0)
(265.066 0 0)
(266.177 0 0)
(267.268 0 0)
(268.34 0 0)
(269.392 0 0)
(270.425 0 0)
(271.439 0 0)
(272.434 0 0)
(273.411 0 0)
(274.369 0 0)
(275.309 0 0)
(276.231 0 0)
(277.135 0 0)
(278.02 0 0)
(278.888 0 0)
(279.738 0 0)
(280.57 0 0)
(281.385 0 0)
(282.182 0 0)
(282.961 0 0)
(283.723 0 0)
(284.467 0 0)
(285.195 0 0)
(285.904 0 0)
(286.597 0 0)
(287.272 0 0)
(287.929 0 0)
(288.57 0 0)
(289.193 0 0)
(289.798 0 0)
(290.387 0 0)
(290.957 0 0)
(291.511 0 0)
(292.046 0 0)
(292.565 0 0)
(293.065 0 0)
(293.548 0 0)
(294.013 0 0)
(294.46 0 0)
(294.889 0 0)
(295.299 0 0)
(295.692 0 0)
(296.066 0 0)
(296.421 0 0)
(296.757 0 0)
(297.075 0 0)
(297.373 0 0)
(297.653 0 0)
(297.911 0 0)
(298.154 0 0)
(298.36 0 0)
(298.607 0 0)
(228.462 0 0)
(230.157 0 0)
(231.822 0 0)
(233.457 0 0)
(235.065 0 0)
(236.644 0 0)
(238.197 0 0)
(239.724 0 0)
(241.224 0 0)
(242.7 0 0)
(244.151 0 0)
(245.577 0 0)
(246.98 0 0)
(248.36 0 0)
(249.717 0 0)
(251.051 0 0)
(252.364 0 0)
(253.654 0 0)
(254.924 0 0)
(256.172 0 0)
(257.4 0 0)
(258.607 0 0)
(259.794 0 0)
(260.962 0 0)
(262.11 0 0)
(263.238 0 0)
(264.348 0 0)
(265.438 0 0)
(266.51 0 0)
(267.563 0 0)
(268.598 0 0)
(269.615 0 0)
(270.614 0 0)
(271.596 0 0)
(272.559 0 0)
(273.505 0 0)
(274.434 0 0)
(275.345 0 0)
(276.239 0 0)
(277.116 0 0)
(277.977 0 0)
(278.82 0 0)
(279.647 0 0)
(280.456 0 0)
(281.25 0 0)
(282.026 0 0)
(282.786 0 0)
(283.53 0 0)
(284.257 0 0)
(284.968 0 0)
(285.663 0 0)
(286.341 0 0)
(287.002 0 0)
(287.648 0 0)
(288.277 0 0)
(288.89 0 0)
(289.486 0 0)
(290.066 0 0)
(290.629 0 0)
(291.177 0 0)
(291.707 0 0)
(292.221 0 0)
(292.719 0 0)
(293.2 0 0)
(293.664 0 0)
(294.111 0 0)
(294.541 0 0)
(294.955 0 0)
(295.351 0 0)
(295.73 0 0)
(296.091 0 0)
(296.436 0 0)
(296.762 0 0)
(297.07 0 0)
(297.361 0 0)
(297.633 0 0)
(297.891 0 0)
(298.111 0 0)
(298.382 0 0)
(230.407 0 0)
(232.017 0 0)
(233.599 0 0)
(235.154 0 0)
(236.684 0 0)
(238.189 0 0)
(239.669 0 0)
(241.125 0 0)
(242.558 0 0)
(243.967 0 0)
(245.353 0 0)
(246.718 0 0)
(248.06 0 0)
(249.381 0 0)
(250.681 0 0)
(251.96 0 0)
(253.219 0 0)
(254.457 0 0)
(255.676 0 0)
(256.875 0 0)
(258.055 0 0)
(259.216 0 0)
(260.359 0 0)
(261.482 0 0)
(262.588 0 0)
(263.676 0 0)
(264.745 0 0)
(265.797 0 0)
(266.831 0 0)
(267.849 0 0)
(268.849 0 0)
(269.831 0 0)
(270.798 0 0)
(271.747 0 0)
(272.68 0 0)
(273.596 0 0)
(274.496 0 0)
(275.38 0 0)
(276.247 0 0)
(277.099 0 0)
(277.934 0 0)
(278.754 0 0)
(279.558 0 0)
(280.346 0 0)
(281.118 0 0)
(281.875 0 0)
(282.616 0 0)
(283.342 0 0)
(284.052 0 0)
(284.747 0 0)
(285.426 0 0)
(286.09 0 0)
(286.738 0 0)
(287.371 0 0)
(287.989 0 0)
(288.591 0 0)
(289.178 0 0)
(289.749 0 0)
(290.305 0 0)
(290.846 0 0)
(291.371 0 0)
(291.88 0 0)
(292.374 0 0)
(292.852 0 0)
(293.315 0 0)
(293.761 0 0)
(294.192 0 0)
(294.607 0 0)
(295.006 0 0)
(295.389 0 0)
(295.755 0 0)
(296.105 0 0)
(296.439 0 0)
(296.756 0 0)
(297.057 0 0)
(297.339 0 0)
(297.61 0 0)
(297.842 0 0)
(298.134 0 0)
(232.256 0 0)
(233.785 0 0)
(235.29 0 0)
(236.771 0 0)
(238.228 0 0)
(239.662 0 0)
(241.074 0 0)
(242.463 0 0)
(243.831 0 0)
(245.178 0 0)
(246.504 0 0)
(247.809 0 0)
(249.094 0 0)
(250.359 0 0)
(251.605 0 0)
(252.831 0 0)
(254.039 0 0)
(255.228 0 0)
(256.399 0 0)
(257.551 0 0)
(258.685 0 0)
(259.802 0 0)
(260.902 0 0)
(261.984 0 0)
(263.049 0 0)
(264.097 0 0)
(265.128 0 0)
(266.143 0 0)
(267.142 0 0)
(268.124 0 0)
(269.09 0 0)
(270.04 0 0)
(270.975 0 0)
(271.893 0 0)
(272.796 0 0)
(273.684 0 0)
(274.556 0 0)
(275.413 0 0)
(276.255 0 0)
(277.081 0 0)
(277.893 0 0)
(278.689 0 0)
(279.471 0 0)
(280.238 0 0)
(280.99 0 0)
(281.727 0 0)
(282.45 0 0)
(283.158 0 0)
(283.851 0 0)
(284.53 0 0)
(285.194 0 0)
(285.844 0 0)
(286.479 0 0)
(287.1 0 0)
(287.706 0 0)
(288.297 0 0)
(288.875 0 0)
(289.437 0 0)
(289.985 0 0)
(290.519 0 0)
(291.037 0 0)
(291.542 0 0)
(292.031 0 0)
(292.506 0 0)
(292.966 0 0)
(293.412 0 0)
(293.842 0 0)
(294.257 0 0)
(294.658 0 0)
(295.043 0 0)
(295.414 0 0)
(295.769 0 0)
(296.108 0 0)
(296.432 0 0)
(296.741 0 0)
(297.032 0 0)
(297.315 0 0)
(297.556 0 0)
(297.866 0 0)
(234.014 0 0)
(235.469 0 0)
(236.901 0 0)
(238.311 0 0)
(239.7 0 0)
(241.068 0 0)
(242.415 0 0)
(243.742 0 0)
(245.049 0 0)
(246.336 0 0)
(247.604 0 0)
(248.854 0 0)
(250.084 0 0)
(251.297 0 0)
(252.491 0 0)
(253.668 0 0)
(254.827 0 0)
(255.968 0 0)
(257.093 0 0)
(258.201 0 0)
(259.292 0 0)
(260.366 0 0)
(261.424 0 0)
(262.467 0 0)
(263.493 0 0)
(264.503 0 0)
(265.498 0 0)
(266.477 0 0)
(267.441 0 0)
(268.39 0 0)
(269.324 0 0)
(270.242 0 0)
(271.146 0 0)
(272.035 0 0)
(272.909 0 0)
(273.769 0 0)
(274.615 0 0)
(275.445 0 0)
(276.262 0 0)
(277.064 0 0)
(277.853 0 0)
(278.627 0 0)
(279.387 0 0)
(280.133 0 0)
(280.865 0 0)
(281.584 0 0)
(282.288 0 0)
(282.979 0 0)
(283.655 0 0)
(284.318 0 0)
(284.968 0 0)
(285.603 0 0)
(286.225 0 0)
(286.833 0 0)
(287.428 0 0)
(288.009 0 0)
(288.576 0 0)
(289.13 0 0)
(289.669 0 0)
(290.195 0 0)
(290.708 0 0)
(291.206 0 0)
(291.691 0 0)
(292.162 0 0)
(292.619 0 0)
(293.062 0 0)
(293.492 0 0)
(293.907 0 0)
(294.308 0 0)
(294.695 0 0)
(295.068 0 0)
(295.426 0 0)
(295.771 0 0)
(296.1 0 0)
(296.416 0 0)
(296.714 0 0)
(297.006 0 0)
(297.256 0 0)
(297.581 0 0)
(235.689 0 0)
(237.073 0 0)
(238.437 0 0)
(239.781 0 0)
(241.105 0 0)
(242.41 0 0)
(243.696 0 0)
(244.964 0 0)
(246.213 0 0)
(247.445 0 0)
(248.658 0 0)
(249.855 0 0)
(251.034 0 0)
(252.196 0 0)
(253.341 0 0)
(254.47 0 0)
(255.583 0 0)
(256.679 0 0)
(257.76 0 0)
(258.825 0 0)
(259.875 0 0)
(260.909 0 0)
(261.928 0 0)
(262.932 0 0)
(263.921 0 0)
(264.895 0 0)
(265.854 0 0)
(266.8 0 0)
(267.73 0 0)
(268.647 0 0)
(269.549 0 0)
(270.437 0 0)
(271.312 0 0)
(272.172 0 0)
(273.019 0 0)
(273.852 0 0)
(274.671 0 0)
(275.477 0 0)
(276.269 0 0)
(277.048 0 0)
(277.814 0 0)
(278.566 0 0)
(279.305 0 0)
(280.031 0 0)
(280.744 0 0)
(281.443 0 0)
(282.13 0 0)
(282.803 0 0)
(283.464 0 0)
(284.112 0 0)
(284.746 0 0)
(285.368 0 0)
(285.977 0 0)
(286.572 0 0)
(287.155 0 0)
(287.725 0 0)
(288.282 0 0)
(288.827 0 0)
(289.358 0 0)
(289.876 0 0)
(290.382 0 0)
(290.874 0 0)
(291.354 0 0)
(291.82 0 0)
(292.274 0 0)
(292.714 0 0)
(293.142 0 0)
(293.556 0 0)
(293.957 0 0)
(294.345 0 0)
(294.719 0 0)
(295.08 0 0)
(295.428 0 0)
(295.762 0 0)
(296.083 0 0)
(296.387 0 0)
(296.687 0 0)
(296.944 0 0)
(297.282 0 0)
(237.283 0 0)
(238.602 0 0)
(239.902 0 0)
(241.183 0 0)
(242.447 0 0)
(243.693 0 0)
(244.921 0 0)
(246.133 0 0)
(247.328 0 0)
(248.506 0 0)
(249.668 0 0)
(250.814 0 0)
(251.944 0 0)
(253.058 0 0)
(254.157 0 0)
(255.241 0 0)
(256.309 0 0)
(257.363 0 0)
(258.402 0 0)
(259.426 0 0)
(260.436 0 0)
(261.431 0 0)
(262.412 0 0)
(263.38 0 0)
(264.333 0 0)
(265.273 0 0)
(266.198 0 0)
(267.111 0 0)
(268.01 0 0)
(268.895 0 0)
(269.767 0 0)
(270.626 0 0)
(271.472 0 0)
(272.305 0 0)
(273.125 0 0)
(273.932 0 0)
(274.726 0 0)
(275.507 0 0)
(276.276 0 0)
(277.032 0 0)
(277.776 0 0)
(278.507 0 0)
(279.225 0 0)
(279.932 0 0)
(280.625 0 0)
(281.307 0 0)
(281.976 0 0)
(282.633 0 0)
(283.277 0 0)
(283.909 0 0)
(284.529 0 0)
(285.137 0 0)
(285.733 0 0)
(286.316 0 0)
(286.888 0 0)
(287.447 0 0)
(287.994 0 0)
(288.529 0 0)
(289.051 0 0)
(289.562 0 0)
(290.06 0 0)
(290.546 0 0)
(291.02 0 0)
(291.482 0 0)
(291.931 0 0)
(292.368 0 0)
(292.793 0 0)
(293.205 0 0)
(293.605 0 0)
(293.993 0 0)
(294.368 0 0)
(294.731 0 0)
(295.081 0 0)
(295.418 0 0)
(295.743 0 0)
(296.053 0 0)
(296.359 0 0)
(296.622 0 0)
(296.97 0 0)
(238.804 0 0)
(240.06 0 0)
(241.299 0 0)
(242.522 0 0)
(243.728 0 0)
(244.918 0 0)
(246.093 0 0)
(247.251 0 0)
(248.395 0 0)
(249.522 0 0)
(250.635 0 0)
(251.733 0 0)
(252.817 0 0)
(253.886 0 0)
(254.94 0 0)
(255.981 0 0)
(257.007 0 0)
(258.02 0 0)
(259.019 0 0)
(260.004 0 0)
(260.976 0 0)
(261.934 0 0)
(262.879 0 0)
(263.812 0 0)
(264.731 0 0)
(265.637 0 0)
(266.53 0 0)
(267.411 0 0)
(268.279 0 0)
(269.135 0 0)
(269.978 0 0)
(270.809 0 0)
(271.627 0 0)
(272.433 0 0)
(273.227 0 0)
(274.009 0 0)
(274.779 0 0)
(275.537 0 0)
(276.283 0 0)
(277.017 0 0)
(277.739 0 0)
(278.449 0 0)
(279.148 0 0)
(279.835 0 0)
(280.51 0 0)
(281.174 0 0)
(281.826 0 0)
(282.466 0 0)
(283.095 0 0)
(283.712 0 0)
(284.318 0 0)
(284.912 0 0)
(285.495 0 0)
(286.066 0 0)
(286.625 0 0)
(287.174 0 0)
(287.71 0 0)
(288.236 0 0)
(288.75 0 0)
(289.252 0 0)
(289.743 0 0)
(290.222 0 0)
(290.69 0 0)
(291.146 0 0)
(291.591 0 0)
(292.024 0 0)
(292.446 0 0)
(292.856 0 0)
(293.254 0 0)
(293.641 0 0)
(294.016 0 0)
(294.379 0 0)
(294.73 0 0)
(295.07 0 0)
(295.398 0 0)
(295.712 0 0)
(296.023 0 0)
(296.29 0 0)
(296.648 0 0)
(240.254 0 0)
(241.452 0 0)
(242.634 0 0)
(243.801 0 0)
(244.953 0 0)
(246.091 0 0)
(247.214 0 0)
(248.322 0 0)
(249.416 0 0)
(250.496 0 0)
(251.563 0 0)
(252.615 0 0)
(253.654 0 0)
(254.68 0 0)
(255.692 0 0)
(256.692 0 0)
(257.678 0 0)
(258.651 0 0)
(259.612 0 0)
(260.56 0 0)
(261.496 0 0)
(262.419 0 0)
(263.329 0 0)
(264.228 0 0)
(265.114 0 0)
(265.988 0 0)
(266.851 0 0)
(267.701 0 0)
(268.54 0 0)
(269.366 0 0)
(270.182 0 0)
(270.985 0 0)
(271.777 0 0)
(272.557 0 0)
(273.326 0 0)
(274.084 0 0)
(274.83 0 0)
(275.565 0 0)
(276.289 0 0)
(277.002 0 0)
(277.703 0 0)
(278.393 0 0)
(279.073 0 0)
(279.741 0 0)
(280.398 0 0)
(281.044 0 0)
(281.679 0 0)
(282.304 0 0)
(282.917 0 0)
(283.519 0 0)
(284.111 0 0)
(284.692 0 0)
(285.261 0 0)
(285.82 0 0)
(286.368 0 0)
(286.906 0 0)
(287.432 0 0)
(287.948 0 0)
(288.453 0 0)
(288.947 0 0)
(289.43 0 0)
(289.902 0 0)
(290.364 0 0)
(290.814 0 0)
(291.254 0 0)
(291.683 0 0)
(292.101 0 0)
(292.508 0 0)
(292.904 0 0)
(293.289 0 0)
(293.663 0 0)
(294.026 0 0)
(294.378 0 0)
(294.719 0 0)
(295.05 0 0)
(295.366 0 0)
(295.681 0 0)
(295.952 0 0)
(296.317 0 0)
(241.638 0 0)
(242.781 0 0)
(243.909 0 0)
(245.024 0 0)
(246.125 0 0)
(247.212 0 0)
(248.286 0 0)
(249.347 0 0)
(250.395 0 0)
(251.43 0 0)
(252.452 0 0)
(253.461 0 0)
(254.458 0 0)
(255.443 0 0)
(256.415 0 0)
(257.375 0 0)
(258.323 0 0)
(259.259 0 0)
(260.183 0 0)
(261.095 0 0)
(261.996 0 0)
(262.885 0 0)
(263.763 0 0)
(264.629 0 0)
(265.484 0 0)
(266.327 0 0)
(267.16 0 0)
(267.981 0 0)
(268.791 0 0)
(269.59 0 0)
(270.378 0 0)
(271.156 0 0)
(271.922 0 0)
(272.678 0 0)
(273.423 0 0)
(274.157 0 0)
(274.88 0 0)
(275.593 0 0)
(276.295 0 0)
(276.987 0 0)
(277.668 0 0)
(278.339 0 0)
(279 0 0)
(279.649 0 0)
(280.289 0 0)
(280.918 0 0)
(281.537 0 0)
(282.145 0 0)
(282.743 0 0)
(283.331 0 0)
(283.909 0 0)
(284.476 0 0)
(285.033 0 0)
(285.58 0 0)
(286.117 0 0)
(286.643 0 0)
(287.159 0 0)
(287.665 0 0)
(288.161 0 0)
(288.646 0 0)
(289.122 0 0)
(289.587 0 0)
(290.041 0 0)
(290.486 0 0)
(290.92 0 0)
(291.345 0 0)
(291.758 0 0)
(292.162 0 0)
(292.555 0 0)
(292.938 0 0)
(293.311 0 0)
(293.673 0 0)
(294.025 0 0)
(294.366 0 0)
(294.698 0 0)
(295.016 0 0)
(295.334 0 0)
(295.608 0 0)
(295.978 0 0)
(242.96 0 0)
(244.051 0 0)
(245.129 0 0)
(246.194 0 0)
(247.246 0 0)
(248.286 0 0)
(249.314 0 0)
(250.33 0 0)
(251.333 0 0)
(252.325 0 0)
(253.305 0 0)
(254.273 0 0)
(255.23 0 0)
(256.175 0 0)
(257.109 0 0)
(258.032 0 0)
(258.943 0 0)
(259.843 0 0)
(260.732 0 0)
(261.611 0 0)
(262.478 0 0)
(263.335 0 0)
(264.181 0 0)
(265.016 0 0)
(265.841 0 0)
(266.655 0 0)
(267.458 0 0)
(268.251 0 0)
(269.034 0 0)
(269.807 0 0)
(270.569 0 0)
(271.321 0 0)
(272.063 0 0)
(272.794 0 0)
(273.516 0 0)
(274.227 0 0)
(274.929 0 0)
(275.62 0 0)
(276.302 0 0)
(276.973 0 0)
(277.635 0 0)
(278.286 0 0)
(278.928 0 0)
(279.56 0 0)
(280.183 0 0)
(280.795 0 0)
(281.398 0 0)
(281.991 0 0)
(282.574 0 0)
(283.148 0 0)
(283.711 0 0)
(284.266 0 0)
(284.81 0 0)
(285.345 0 0)
(285.87 0 0)
(286.385 0 0)
(286.891 0 0)
(287.387 0 0)
(287.874 0 0)
(288.351 0 0)
(288.818 0 0)
(289.276 0 0)
(289.724 0 0)
(290.162 0 0)
(290.591 0 0)
(291.01 0 0)
(291.419 0 0)
(291.819 0 0)
(292.209 0 0)
(292.589 0 0)
(292.96 0 0)
(293.32 0 0)
(293.671 0 0)
(294.012 0 0)
(294.345 0 0)
(294.664 0 0)
(294.984 0 0)
(295.259 0 0)
(295.634 0 0)
(244.223 0 0)
(245.265 0 0)
(246.294 0 0)
(247.312 0 0)
(248.319 0 0)
(249.314 0 0)
(250.298 0 0)
(251.271 0 0)
(252.233 0 0)
(253.183 0 0)
(254.123 0 0)
(255.052 0 0)
(255.971 0 0)
(256.879 0 0)
(257.776 0 0)
(258.663 0 0)
(259.539 0 0)
(260.405 0 0)
(261.261 0 0)
(262.107 0 0)
(262.943 0 0)
(263.768 0 0)
(264.584 0 0)
(265.389 0 0)
(266.185 0 0)
(266.97 0 0)
(267.746 0 0)
(268.513 0 0)
(269.269 0 0)
(270.016 0 0)
(270.753 0 0)
(271.481 0 0)
(272.199 0 0)
(272.907 0 0)
(273.606 0 0)
(274.295 0 0)
(274.975 0 0)
(275.646 0 0)
(276.307 0 0)
(276.959 0 0)
(277.602 0 0)
(278.235 0 0)
(278.859 0 0)
(279.474 0 0)
(280.079 0 0)
(280.676 0 0)
(281.263 0 0)
(281.84 0 0)
(282.409 0 0)
(282.968 0 0)
(283.519 0 0)
(284.06 0 0)
(284.592 0 0)
(285.115 0 0)
(285.629 0 0)
(286.133 0 0)
(286.629 0 0)
(287.115 0 0)
(287.592 0 0)
(288.061 0 0)
(288.52 0 0)
(288.97 0 0)
(289.411 0 0)
(289.842 0 0)
(290.265 0 0)
(290.679 0 0)
(291.083 0 0)
(291.479 0 0)
(291.865 0 0)
(292.242 0 0)
(292.61 0 0)
(292.968 0 0)
(293.318 0 0)
(293.658 0 0)
(293.99 0 0)
(294.309 0 0)
(294.63 0 0)
(294.907 0 0)
(295.285 0 0)
(245.43 0 0)
(246.426 0 0)
(247.41 0 0)
(248.383 0 0)
(249.347 0 0)
(250.299 0 0)
(251.242 0 0)
(252.174 0 0)
(253.095 0 0)
(254.007 0 0)
(254.909 0 0)
(255.801 0 0)
(256.683 0 0)
(257.555 0 0)
(258.417 0 0)
(259.27 0 0)
(260.113 0 0)
(260.947 0 0)
(261.77 0 0)
(262.585 0 0)
(263.39 0 0)
(264.186 0 0)
(264.972 0 0)
(265.749 0 0)
(266.517 0 0)
(267.275 0 0)
(268.025 0 0)
(268.765 0 0)
(269.496 0 0)
(270.218 0 0)
(270.931 0 0)
(271.635 0 0)
(272.33 0 0)
(273.016 0 0)
(273.693 0 0)
(274.362 0 0)
(275.021 0 0)
(275.671 0 0)
(276.313 0 0)
(276.946 0 0)
(277.57 0 0)
(278.185 0 0)
(278.792 0 0)
(279.39 0 0)
(279.979 0 0)
(280.559 0 0)
(281.131 0 0)
(281.694 0 0)
(282.248 0 0)
(282.794 0 0)
(283.331 0 0)
(283.859 0 0)
(284.379 0 0)
(284.89 0 0)
(285.392 0 0)
(285.886 0 0)
(286.371 0 0)
(286.848 0 0)
(287.316 0 0)
(287.776 0 0)
(288.226 0 0)
(288.669 0 0)
(289.102 0 0)
(289.527 0 0)
(289.944 0 0)
(290.352 0 0)
(290.751 0 0)
(291.142 0 0)
(291.524 0 0)
(291.897 0 0)
(292.262 0 0)
(292.618 0 0)
(292.966 0 0)
(293.304 0 0)
(293.635 0 0)
(293.954 0 0)
(294.275 0 0)
(294.553 0 0)
(294.932 0 0)
(246.585 0 0)
(247.537 0 0)
(248.478 0 0)
(249.409 0 0)
(250.331 0 0)
(251.243 0 0)
(252.146 0 0)
(253.039 0 0)
(253.923 0 0)
(254.798 0 0)
(255.663 0 0)
(256.52 0 0)
(257.367 0 0)
(258.205 0 0)
(259.034 0 0)
(259.854 0 0)
(260.665 0 0)
(261.467 0 0)
(262.261 0 0)
(263.045 0 0)
(263.821 0 0)
(264.588 0 0)
(265.346 0 0)
(266.096 0 0)
(266.837 0 0)
(267.569 0 0)
(268.293 0 0)
(269.009 0 0)
(269.715 0 0)
(270.414 0 0)
(271.103 0 0)
(271.785 0 0)
(272.457 0 0)
(273.122 0 0)
(273.778 0 0)
(274.426 0 0)
(275.065 0 0)
(275.696 0 0)
(276.319 0 0)
(276.933 0 0)
(277.539 0 0)
(278.137 0 0)
(278.727 0 0)
(279.308 0 0)
(279.881 0 0)
(280.446 0 0)
(281.002 0 0)
(281.551 0 0)
(282.091 0 0)
(282.623 0 0)
(283.147 0 0)
(283.663 0 0)
(284.171 0 0)
(284.67 0 0)
(285.161 0 0)
(285.644 0 0)
(286.119 0 0)
(286.586 0 0)
(287.045 0 0)
(287.496 0 0)
(287.938 0 0)
(288.373 0 0)
(288.799 0 0)
(289.217 0 0)
(289.627 0 0)
(290.029 0 0)
(290.423 0 0)
(290.808 0 0)
(291.186 0 0)
(291.555 0 0)
(291.917 0 0)
(292.27 0 0)
(292.615 0 0)
(292.951 0 0)
(293.281 0 0)
(293.599 0 0)
(293.92 0 0)
(294.197 0 0)
(294.577 0 0)
(247.69 0 0)
(248.6 0 0)
(249.5 0 0)
(250.392 0 0)
(251.274 0 0)
(252.148 0 0)
(253.013 0 0)
(253.87 0 0)
(254.718 0 0)
(255.557 0 0)
(256.388 0 0)
(257.211 0 0)
(258.024 0 0)
(258.83 0 0)
(259.627 0 0)
(260.416 0 0)
(261.197 0 0)
(261.969 0 0)
(262.733 0 0)
(263.489 0 0)
(264.237 0 0)
(264.976 0 0)
(265.708 0 0)
(266.431 0 0)
(267.146 0 0)
(267.854 0 0)
(268.553 0 0)
(269.244 0 0)
(269.927 0 0)
(270.602 0 0)
(271.27 0 0)
(271.929 0 0)
(272.581 0 0)
(273.224 0 0)
(273.86 0 0)
(274.488 0 0)
(275.108 0 0)
(275.72 0 0)
(276.324 0 0)
(276.92 0 0)
(277.509 0 0)
(278.09 0 0)
(278.663 0 0)
(279.228 0 0)
(279.786 0 0)
(280.336 0 0)
(280.878 0 0)
(281.412 0 0)
(281.938 0 0)
(282.457 0 0)
(282.968 0 0)
(283.472 0 0)
(283.967 0 0)
(284.455 0 0)
(284.935 0 0)
(285.408 0 0)
(285.873 0 0)
(286.33 0 0)
(286.779 0 0)
(287.221 0 0)
(287.655 0 0)
(288.082 0 0)
(288.5 0 0)
(288.911 0 0)
(289.315 0 0)
(289.711 0 0)
(290.099 0 0)
(290.479 0 0)
(290.852 0 0)
(291.217 0 0)
(291.574 0 0)
(291.924 0 0)
(292.266 0 0)
(292.6 0 0)
(292.928 0 0)
(293.244 0 0)
(293.564 0 0)
(293.841 0 0)
(294.221 0 0)
(248.748 0 0)
(249.618 0 0)
(250.48 0 0)
(251.333 0 0)
(252.179 0 0)
(253.016 0 0)
(253.846 0 0)
(254.667 0 0)
(255.481 0 0)
(256.286 0 0)
(257.084 0 0)
(257.874 0 0)
(258.657 0 0)
(259.431 0 0)
(260.198 0 0)
(260.957 0 0)
(261.708 0 0)
(262.452 0 0)
(263.188 0 0)
(263.916 0 0)
(264.637 0 0)
(265.35 0 0)
(266.056 0 0)
(266.754 0 0)
(267.445 0 0)
(268.128 0 0)
(268.803 0 0)
(269.472 0 0)
(270.132 0 0)
(270.785 0 0)
(271.431 0 0)
(272.069 0 0)
(272.7 0 0)
(273.323 0 0)
(273.939 0 0)
(274.548 0 0)
(275.149 0 0)
(275.743 0 0)
(276.329 0 0)
(276.908 0 0)
(277.48 0 0)
(278.044 0 0)
(278.601 0 0)
(279.151 0 0)
(279.693 0 0)
(280.228 0 0)
(280.756 0 0)
(281.276 0 0)
(281.789 0 0)
(282.295 0 0)
(282.794 0 0)
(283.285 0 0)
(283.769 0 0)
(284.245 0 0)
(284.714 0 0)
(285.176 0 0)
(285.631 0 0)
(286.079 0 0)
(286.519 0 0)
(286.952 0 0)
(287.377 0 0)
(287.796 0 0)
(288.207 0 0)
(288.611 0 0)
(289.008 0 0)
(289.397 0 0)
(289.779 0 0)
(290.154 0 0)
(290.522 0 0)
(290.882 0 0)
(291.235 0 0)
(291.581 0 0)
(291.92 0 0)
(292.251 0 0)
(292.576 0 0)
(292.891 0 0)
(293.209 0 0)
(293.485 0 0)
(293.863 0 0)
(249.761 0 0)
(250.594 0 0)
(251.419 0 0)
(252.236 0 0)
(253.046 0 0)
(253.849 0 0)
(254.644 0 0)
(255.433 0 0)
(256.213 0 0)
(256.987 0 0)
(257.753 0 0)
(258.513 0 0)
(259.265 0 0)
(260.009 0 0)
(260.747 0 0)
(261.478 0 0)
(262.201 0 0)
(262.917 0 0)
(263.626 0 0)
(264.328 0 0)
(265.023 0 0)
(265.711 0 0)
(266.392 0 0)
(267.066 0 0)
(267.733 0 0)
(268.393 0 0)
(269.046 0 0)
(269.691 0 0)
(270.33 0 0)
(270.962 0 0)
(271.587 0 0)
(272.205 0 0)
(272.815 0 0)
(273.419 0 0)
(274.016 0 0)
(274.606 0 0)
(275.189 0 0)
(275.765 0 0)
(276.334 0 0)
(276.896 0 0)
(277.452 0 0)
(278 0 0)
(278.541 0 0)
(279.076 0 0)
(279.603 0 0)
(280.124 0 0)
(280.638 0 0)
(281.144 0 0)
(281.644 0 0)
(282.137 0 0)
(282.623 0 0)
(283.102 0 0)
(283.575 0 0)
(284.04 0 0)
(284.499 0 0)
(284.95 0 0)
(285.395 0 0)
(285.833 0 0)
(286.264 0 0)
(286.688 0 0)
(287.105 0 0)
(287.515 0 0)
(287.919 0 0)
(288.315 0 0)
(288.705 0 0)
(289.088 0 0)
(289.464 0 0)
(289.833 0 0)
(290.196 0 0)
(290.551 0 0)
(290.9 0 0)
(291.242 0 0)
(291.577 0 0)
(291.905 0 0)
(292.227 0 0)
(292.539 0 0)
(292.855 0 0)
(293.129 0 0)
(293.506 0 0)
(250.732 0 0)
(251.529 0 0)
(252.319 0 0)
(253.102 0 0)
(253.879 0 0)
(254.648 0 0)
(255.411 0 0)
(256.168 0 0)
(256.917 0 0)
(257.66 0 0)
(258.397 0 0)
(259.126 0 0)
(259.849 0 0)
(260.566 0 0)
(261.276 0 0)
(261.979 0 0)
(262.675 0 0)
(263.365 0 0)
(264.049 0 0)
(264.726 0 0)
(265.396 0 0)
(266.06 0 0)
(266.717 0 0)
(267.367 0 0)
(268.011 0 0)
(268.649 0 0)
(269.28 0 0)
(269.904 0 0)
(270.522 0 0)
(271.133 0 0)
(271.738 0 0)
(272.336 0 0)
(272.927 0 0)
(273.512 0 0)
(274.091 0 0)
(274.663 0 0)
(275.228 0 0)
(275.787 0 0)
(276.339 0 0)
(276.885 0 0)
(277.424 0 0)
(277.957 0 0)
(278.483 0 0)
(279.003 0 0)
(279.516 0 0)
(280.022 0 0)
(280.522 0 0)
(281.016 0 0)
(281.503 0 0)
(281.983 0 0)
(282.457 0 0)
(282.925 0 0)
(283.385 0 0)
(283.84 0 0)
(284.288 0 0)
(284.729 0 0)
(285.164 0 0)
(285.592 0 0)
(286.014 0 0)
(286.429 0 0)
(286.838 0 0)
(287.24 0 0)
(287.636 0 0)
(288.025 0 0)
(288.408 0 0)
(288.784 0 0)
(289.154 0 0)
(289.517 0 0)
(289.874 0 0)
(290.225 0 0)
(290.569 0 0)
(290.906 0 0)
(291.237 0 0)
(291.561 0 0)
(291.88 0 0)
(292.189 0 0)
(292.502 0 0)
(292.775 0 0)
(293.15 0 0)
(251.663 0 0)
(252.426 0 0)
(253.183 0 0)
(253.933 0 0)
(254.677 0 0)
(255.416 0 0)
(256.148 0 0)
(256.874 0 0)
(257.594 0 0)
(258.307 0 0)
(259.015 0 0)
(259.717 0 0)
(260.412 0 0)
(261.101 0 0)
(261.784 0 0)
(262.462 0 0)
(263.133 0 0)
(263.797 0 0)
(264.456 0 0)
(265.109 0 0)
(265.755 0 0)
(266.396 0 0)
(267.03 0 0)
(267.658 0 0)
(268.28 0 0)
(268.896 0 0)
(269.506 0 0)
(270.109 0 0)
(270.707 0 0)
(271.298 0 0)
(271.883 0 0)
(272.463 0 0)
(273.035 0 0)
(273.602 0 0)
(274.163 0 0)
(274.717 0 0)
(275.266 0 0)
(275.808 0 0)
(276.344 0 0)
(276.874 0 0)
(277.397 0 0)
(277.915 0 0)
(278.426 0 0)
(278.932 0 0)
(279.431 0 0)
(279.923 0 0)
(280.41 0 0)
(280.891 0 0)
(281.365 0 0)
(281.833 0 0)
(282.295 0 0)
(282.751 0 0)
(283.201 0 0)
(283.644 0 0)
(284.082 0 0)
(284.513 0 0)
(284.938 0 0)
(285.357 0 0)
(285.769 0 0)
(286.176 0 0)
(286.576 0 0)
(286.97 0 0)
(287.358 0 0)
(287.74 0 0)
(288.116 0 0)
(288.485 0 0)
(288.849 0 0)
(289.206 0 0)
(289.557 0 0)
(289.902 0 0)
(290.241 0 0)
(290.574 0 0)
(290.901 0 0)
(291.221 0 0)
(291.536 0 0)
(291.842 0 0)
(292.153 0 0)
(292.423 0 0)
(292.794 0 0)
(252.555 0 0)
(253.286 0 0)
(254.011 0 0)
(254.73 0 0)
(255.444 0 0)
(256.153 0 0)
(256.855 0 0)
(257.552 0 0)
(258.244 0 0)
(258.93 0 0)
(259.61 0 0)
(260.285 0 0)
(260.954 0 0)
(261.617 0 0)
(262.275 0 0)
(262.927 0 0)
(263.573 0 0)
(264.214 0 0)
(264.849 0 0)
(265.478 0 0)
(266.102 0 0)
(266.72 0 0)
(267.332 0 0)
(267.939 0 0)
(268.54 0 0)
(269.135 0 0)
(269.724 0 0)
(270.308 0 0)
(270.886 0 0)
(271.458 0 0)
(272.025 0 0)
(272.585 0 0)
(273.14 0 0)
(273.689 0 0)
(274.233 0 0)
(274.77 0 0)
(275.302 0 0)
(275.828 0 0)
(276.349 0 0)
(276.863 0 0)