/*--------------------------------*- C++ -*----------------------------------*\
| =========                 |                                                 |
| \\      /  F ield         | OpenFOAM: The Open Source CFD Toolbox           |
|  \\    /   O peration     | Version:  2312                                  |
|   \\  /    A nd           | Website:  www.openfoam.com                      |
|    \\/     M anipulation  |                                                 |
\*---------------------------------------------------------------------------*/
FoamFile
{
    version     2.0;
    format      ascii;
    arch        "LSB;label=32;scalar=64";
    class       volVectorField;
    location    "0.632";
    object      U;
}
// * * * * * * * * * * * * * * * * * * * * * * * * * * * * * * * * * * * * * //

dimensions      [0 1 -1 0 0 0 0];

internalField   nonuniform List<vector> 
31205
(
(114.732 0 0)
(117.328 0 0)
(119.974 0 0)
(122.648 0 0)
(125.338 0 0)
(128.03 0 0)
(130.715 0 0)
(133.387 0 0)
(136.041 0 0)
(138.671 0 0)
(141.277 0 0)
(143.855 0 0)
(146.403 0 0)
(148.922 0 0)
(151.41 0 0)
(153.867 0 0)
(156.293 0 0)
(158.688 0 0)
(161.052 0 0)
(163.385 0 0)
(165.688 0 0)
(167.961 0 0)
(170.205 0 0)
(172.42 0 0)
(174.606 0 0)
(176.765 0 0)
(178.896 0 0)
(181 0 0)
(183.077 0 0)
(185.129 0 0)
(187.155 0 0)
(189.156 0 0)
(191.132 0 0)
(193.085 0 0)
(195.013 0 0)
(196.919 0 0)
(198.801 0 0)
(200.662 0 0)
(202.5 0 0)
(204.316 0 0)
(206.111 0 0)
(207.885 0 0)
(209.639 0 0)
(211.371 0 0)
(213.084 0 0)
(214.777 0 0)
(216.451 0 0)
(218.105 0 0)
(219.741 0 0)
(221.357 0 0)
(222.955 0 0)
(224.535 0 0)
(226.097 0 0)
(227.641 0 0)
(229.167 0 0)
(230.676 0 0)
(232.168 0 0)
(233.642 0 0)
(235.1 0 0)
(236.54 0 0)
(237.965 0 0)
(239.372 0 0)
(240.764 0 0)
(242.139 0 0)
(243.498 0 0)
(244.841 0 0)
(246.169 0 0)
(247.48 0 0)
(248.776 0 0)
(250.057 0 0)
(251.322 0 0)
(252.571 0 0)
(253.806 0 0)
(255.023 0 0)
(256.231 0 0)
(257.407 0 0)
(258.621 0 0)
(259.655 0 0)
(261.182 0 0)
(117.497 0 0)
(120.063 0 0)
(122.657 0 0)
(125.265 0 0)
(127.876 0 0)
(130.481 0 0)
(133.075 0 0)
(135.651 0 0)
(138.207 0 0)
(140.739 0 0)
(143.246 0 0)
(145.726 0 0)
(148.178 0 0)
(150.602 0 0)
(152.996 0 0)
(155.361 0 0)
(157.697 0 0)
(160.004 0 0)
(162.282 0 0)
(164.531 0 0)
(166.752 0 0)
(168.945 0 0)
(171.11 0 0)
(173.249 0 0)
(175.361 0 0)
(177.446 0 0)
(179.506 0 0)
(181.541 0 0)
(183.551 0 0)
(185.537 0 0)
(187.499 0 0)
(189.437 0 0)
(191.352 0 0)
(193.245 0 0)
(195.115 0 0)
(196.964 0 0)
(198.791 0 0)
(200.597 0 0)
(202.382 0 0)
(204.146 0 0)
(205.891 0 0)
(207.615 0 0)
(209.32 0 0)
(211.006 0 0)
(212.672 0 0)
(214.32 0 0)
(215.95 0 0)
(217.561 0 0)
(219.155 0 0)
(220.73 0 0)
(222.288 0 0)
(223.829 0 0)
(225.353 0 0)
(226.859 0 0)
(228.349 0 0)
(229.823 0 0)
(231.28 0 0)
(232.721 0 0)
(234.145 0 0)
(235.554 0 0)
(236.947 0 0)
(238.324 0 0)
(239.686 0 0)
(241.033 0 0)
(242.364 0 0)
(243.68 0 0)
(244.981 0 0)
(246.267 0 0)
(247.539 0 0)
(248.795 0 0)
(250.037 0 0)
(251.264 0 0)
(252.477 0 0)
(253.674 0 0)
(254.862 0 0)
(256.019 0 0)
(257.213 0 0)
(258.234 0 0)
(259.731 0 0)
(120.364 0 0)
(122.878 0 0)
(125.405 0 0)
(127.935 0 0)
(130.459 0 0)
(132.973 0 0)
(135.472 0 0)
(137.951 0 0)
(140.409 0 0)
(142.844 0 0)
(145.253 0 0)
(147.637 0 0)
(149.993 0 0)
(152.323 0 0)
(154.625 0 0)
(156.9 0 0)
(159.147 0 0)
(161.368 0 0)
(163.561 0 0)
(165.728 0 0)
(167.868 0 0)
(169.982 0 0)
(172.071 0 0)
(174.134 0 0)
(176.173 0 0)
(178.187 0 0)
(180.178 0 0)
(182.144 0 0)
(184.088 0 0)
(186.009 0 0)
(187.907 0 0)
(189.784 0 0)
(191.639 0 0)
(193.472 0 0)
(195.285 0 0)
(197.077 0 0)
(198.849 0 0)
(200.601 0 0)
(202.333 0 0)
(204.046 0 0)
(205.741 0 0)
(207.416 0 0)
(209.073 0 0)
(210.712 0 0)
(212.333 0 0)
(213.936 0 0)
(215.521 0 0)
(217.09 0 0)
(218.641 0 0)
(220.176 0 0)
(221.694 0 0)
(223.196 0 0)
(224.681 0 0)
(226.151 0 0)
(227.604 0 0)
(229.042 0 0)
(230.464 0 0)
(231.871 0 0)
(233.263 0 0)
(234.64 0 0)
(236.001 0 0)
(237.348 0 0)
(238.68 0 0)
(239.997 0 0)
(241.3 0 0)
(242.589 0 0)
(243.863 0 0)
(245.123 0 0)
(246.369 0 0)
(247.601 0 0)
(248.82 0 0)
(250.024 0 0)
(251.215 0 0)
(252.39 0 0)
(253.557 0 0)
(254.694 0 0)
(255.868 0 0)
(256.875 0 0)
(258.341 0 0)
(123.225 0 0)
(125.673 0 0)
(128.124 0 0)
(130.57 0 0)
(133.006 0 0)
(135.428 0 0)
(137.832 0 0)
(140.216 0 0)
(142.578 0 0)
(144.917 0 0)
(147.232 0 0)
(149.522 0 0)
(151.787 0 0)
(154.026 0 0)
(156.24 0 0)
(158.427 0 0)
(160.59 0 0)
(162.727 0 0)
(164.839 0 0)
(166.926 0 0)
(168.988 0 0)
(171.026 0 0)
(173.041 0 0)
(175.032 0 0)
(177 0 0)
(178.945 0 0)
(180.868 0 0)
(182.768 0 0)
(184.647 0 0)
(186.505 0 0)
(188.342 0 0)
(190.158 0 0)
(191.954 0 0)
(193.73 0 0)
(195.487 0 0)
(197.224 0 0)
(198.942 0 0)
(200.641 0 0)
(202.322 0 0)
(203.985 0 0)
(205.63 0 0)
(207.258 0 0)
(208.867 0 0)
(210.46 0 0)
(212.036 0 0)
(213.595 0 0)
(215.138 0 0)
(216.664 0 0)
(218.174 0 0)
(219.669 0 0)
(221.147 0 0)
(222.61 0 0)
(224.058 0 0)
(225.491 0 0)
(226.908 0 0)
(228.311 0 0)
(229.699 0 0)
(231.072 0 0)
(232.431 0 0)
(233.775 0 0)
(235.105 0 0)
(236.421 0 0)
(237.724 0 0)
(239.012 0 0)
(240.287 0 0)
(241.548 0 0)
(242.795 0 0)
(244.029 0 0)
(245.249 0 0)
(246.457 0 0)
(247.651 0 0)
(248.831 0 0)
(250 0 0)
(251.153 0 0)
(252.299 0 0)
(253.416 0 0)
(254.569 0 0)
(255.559 0 0)
(256.998 0 0)
(126.028 0 0)
(128.403 0 0)
(130.772 0 0)
(133.132 0 0)
(135.478 0 0)
(137.808 0 0)
(140.12 0 0)
(142.411 0 0)
(144.681 0 0)
(146.928 0 0)
(149.152 0 0)
(151.352 0 0)
(153.529 0 0)
(155.681 0 0)
(157.81 0 0)
(159.915 0 0)
(161.995 0 0)
(164.053 0 0)
(166.086 0 0)
(168.097 0 0)
(170.085 0 0)
(172.05 0 0)
(173.993 0 0)
(175.914 0 0)
(177.814 0 0)
(179.692 0 0)
(181.55 0 0)
(183.387 0 0)
(185.204 0 0)
(187.001 0 0)
(188.778 0 0)
(190.536 0 0)
(192.275 0 0)
(193.995 0 0)
(195.697 0 0)
(197.381 0 0)
(199.047 0 0)
(200.695 0 0)
(202.326 0 0)
(203.94 0 0)
(205.537 0 0)
(207.117 0 0)
(208.681 0 0)
(210.229 0 0)
(211.761 0 0)
(213.277 0 0)
(214.777 0 0)
(216.262 0 0)
(217.732 0 0)
(219.187 0 0)
(220.627 0 0)
(222.052 0 0)
(223.463 0 0)
(224.859 0 0)
(226.241 0 0)
(227.609 0 0)
(228.963 0 0)
(230.303 0 0)
(231.629 0 0)
(232.942 0 0)
(234.241 0 0)
(235.527 0 0)
(236.8 0 0)
(238.059 0 0)
(239.305 0 0)
(240.539 0 0)
(241.759 0 0)
(242.967 0 0)
(244.162 0 0)
(245.344 0 0)
(246.514 0 0)
(247.671 0 0)
(248.817 0 0)
(249.948 0 0)
(251.072 0 0)
(252.169 0 0)
(253.301 0 0)
(254.274 0 0)
(255.686 0 0)
(128.752 0 0)
(131.047 0 0)
(133.332 0 0)
(135.605 0 0)
(137.863 0 0)
(140.103 0 0)
(142.324 0 0)
(144.526 0 0)
(146.706 0 0)
(148.865 0 0)
(151.002 0 0)
(153.117 0 0)
(155.209 0 0)
(157.279 0 0)
(159.326 0 0)
(161.351 0 0)
(163.354 0 0)
(165.334 0 0)
(167.293 0 0)
(169.231 0 0)
(171.147 0 0)
(173.042 0 0)
(174.917 0 0)
(176.771 0 0)
(178.605 0 0)
(180.419 0 0)
(182.214 0 0)
(183.99 0 0)
(185.746 0 0)
(187.485 0 0)
(189.204 0 0)
(190.906 0 0)
(192.59 0 0)
(194.256 0 0)
(195.905 0 0)
(197.538 0 0)
(199.153 0 0)
(200.752 0 0)
(202.334 0 0)
(203.9 0 0)
(205.451 0 0)
(206.986 0 0)
(208.505 0 0)
(210.009 0 0)
(211.498 0 0)
(212.972 0 0)
(214.431 0 0)
(215.876 0 0)
(217.306 0 0)
(218.722 0 0)
(220.124 0 0)
(221.513 0 0)
(222.887 0 0)
(224.248 0 0)
(225.595 0 0)
(226.928 0 0)
(228.249 0 0)
(229.556 0 0)
(230.851 0 0)
(232.132 0 0)
(233.401 0 0)
(234.656 0 0)
(235.9 0 0)
(237.131 0 0)
(238.349 0 0)
(239.555 0 0)
(240.749 0 0)
(241.931 0 0)
(243.1 0 0)
(244.258 0 0)
(245.403 0 0)
(246.537 0 0)
(247.66 0 0)
(248.769 0 0)
(249.871 0 0)
(250.947 0 0)
(252.057 0 0)
(253.013 0 0)
(254.399 0 0)
(131.386 0 0)
(133.599 0 0)
(135.8 0 0)
(137.986 0 0)
(140.157 0 0)
(142.31 0 0)
(144.444 0 0)
(146.559 0 0)
(148.654 0 0)
(150.728 0 0)
(152.782 0 0)
(154.814 0 0)
(156.826 0 0)
(158.816 0 0)
(160.786 0 0)
(162.734 0 0)
(164.662 0 0)
(166.57 0 0)
(168.457 0 0)
(170.325 0 0)
(172.172 0 0)
(174 0 0)
(175.809 0 0)
(177.599 0 0)
(179.37 0 0)
(181.123 0 0)
(182.857 0 0)
(184.574 0 0)
(186.272 0 0)
(187.954 0 0)
(189.618 0 0)
(191.265 0 0)
(192.896 0 0)
(194.51 0 0)
(196.108 0 0)
(197.69 0 0)
(199.257 0 0)
(200.807 0 0)
(202.343 0 0)
(203.863 0 0)
(205.368 0 0)
(206.859 0 0)
(208.335 0 0)
(209.796 0 0)
(211.243 0 0)
(212.676 0 0)
(214.096 0 0)
(215.501 0 0)
(216.893 0 0)
(218.271 0 0)
(219.636 0 0)
(220.988 0 0)
(222.327 0 0)
(223.652 0 0)
(224.965 0 0)
(226.266 0 0)
(227.553 0 0)
(228.829 0 0)
(230.091 0 0)
(231.342 0 0)
(232.58 0 0)
(233.807 0 0)
(235.021 0 0)
(236.224 0 0)
(237.415 0 0)
(238.594 0 0)
(239.761 0 0)
(240.917 0 0)
(242.061 0 0)
(243.194 0 0)
(244.316 0 0)
(245.426 0 0)
(246.525 0 0)
(247.612 0 0)
(248.693 0 0)
(249.747 0 0)
(250.837 0 0)
(251.775 0 0)
(253.134 0 0)
(133.927 0 0)
(136.058 0 0)
(138.175 0 0)
(140.277 0 0)
(142.363 0 0)
(144.431 0 0)
(146.482 0 0)
(148.513 0 0)
(150.526 0 0)
(152.519 0 0)
(154.492 0 0)
(156.446 0 0)
(158.38 0 0)
(160.295 0 0)
(162.19 0 0)
(164.066 0 0)
(165.923 0 0)
(167.76 0 0)
(169.579 0 0)
(171.379 0 0)
(173.161 0 0)
(174.925 0 0)
(176.67 0 0)
(178.398 0 0)
(180.109 0 0)
(181.802 0 0)
(183.478 0 0)
(185.138 0 0)
(186.781 0 0)
(188.408 0 0)
(190.019 0 0)
(191.614 0 0)
(193.193 0 0)
(194.757 0 0)
(196.305 0 0)
(197.839 0 0)
(199.358 0 0)
(200.862 0 0)
(202.351 0 0)
(203.827 0 0)
(205.288 0 0)
(206.736 0 0)
(208.169 0 0)
(209.589 0 0)
(210.996 0 0)
(212.389 0 0)
(213.769 0 0)
(215.136 0 0)
(216.491 0 0)
(217.832 0 0)
(219.161 0 0)
(220.477 0 0)
(221.781 0 0)
(223.073 0 0)
(224.352 0 0)
(225.62 0 0)
(226.875 0 0)
(228.119 0 0)
(229.351 0 0)
(230.571 0 0)
(231.78 0 0)
(232.977 0 0)
(234.163 0 0)
(235.338 0 0)
(236.501 0 0)
(237.653 0 0)
(238.795 0 0)
(239.925 0 0)
(241.044 0 0)
(242.153 0 0)
(243.25 0 0)
(244.337 0 0)
(245.414 0 0)
(246.478 0 0)
(247.537 0 0)
(248.571 0 0)
(249.639 0 0)
(250.559 0 0)
(251.892 0 0)
(136.375 0 0)
(138.424 0 0)
(140.459 0 0)
(142.479 0 0)
(144.483 0 0)
(146.47 0 0)
(148.439 0 0)
(150.391 0 0)
(152.325 0 0)
(154.24 0 0)
(156.137 0 0)
(158.016 0 0)
(159.876 0 0)
(161.718 0 0)
(163.543 0 0)
(165.349 0 0)
(167.137 0 0)
(168.907 0 0)
(170.66 0 0)
(172.396 0 0)
(174.115 0 0)
(175.816 0 0)
(177.501 0 0)
(179.17 0 0)
(180.822 0 0)
(182.459 0 0)
(184.079 0 0)
(185.684 0 0)
(187.273 0 0)
(188.847 0 0)
(190.406 0 0)
(191.95 0 0)
(193.48 0 0)
(194.995 0 0)
(196.496 0 0)
(197.982 0 0)
(199.455 0 0)
(200.914 0 0)
(202.36 0 0)
(203.792 0 0)
(205.21 0 0)
(206.616 0 0)
(208.009 0 0)
(209.388 0 0)
(210.755 0 0)
(212.11 0 0)
(213.452 0 0)
(214.782 0 0)
(216.099 0 0)
(217.404 0 0)
(218.698 0 0)
(219.98 0 0)
(221.25 0 0)
(222.508 0 0)
(223.755 0 0)
(224.99 0 0)
(226.214 0 0)
(227.427 0 0)
(228.628 0 0)
(229.819 0 0)
(230.998 0 0)
(232.167 0 0)
(233.325 0 0)
(234.472 0 0)
(235.608 0 0)
(236.734 0 0)
(237.849 0 0)
(238.954 0 0)
(240.049 0 0)
(241.133 0 0)
(242.207 0 0)
(243.27 0 0)
(244.324 0 0)
(245.367 0 0)
(246.404 0 0)
(247.416 0 0)
(248.463 0 0)
(249.365 0 0)
(250.671 0 0)
(138.731 0 0)
(140.7 0 0)
(142.656 0 0)
(144.596 0 0)
(146.52 0 0)
(148.429 0 0)
(150.321 0 0)
(152.196 0 0)
(154.054 0 0)
(155.895 0 0)
(157.719 0 0)
(159.526 0 0)
(161.316 0 0)
(163.088 0 0)
(164.845 0 0)
(166.584 0 0)
(168.307 0 0)
(170.013 0 0)
(171.703 0 0)
(173.377 0 0)
(175.035 0 0)
(176.677 0 0)
(178.304 0 0)
(179.915 0 0)
(181.512 0 0)
(183.093 0 0)
(184.659 0 0)
(186.211 0 0)
(187.749 0 0)
(189.272 0 0)
(190.781 0 0)
(192.276 0 0)
(193.758 0 0)
(195.226 0 0)
(196.68 0 0)
(198.122 0 0)
(199.55 0 0)
(200.965 0 0)
(202.368 0 0)
(203.758 0 0)
(205.135 0 0)
(206.5 0 0)
(207.852 0 0)
(209.193 0 0)
(210.522 0 0)
(211.838 0 0)
(213.143 0 0)
(214.436 0 0)
(215.718 0 0)
(216.989 0 0)
(218.247 0 0)
(219.495 0 0)
(220.732 0 0)
(221.957 0 0)
(223.172 0 0)
(224.376 0 0)
(225.569 0 0)
(226.751 0 0)
(227.923 0 0)
(229.084 0 0)
(230.235 0 0)
(231.376 0 0)
(232.506 0 0)
(233.626 0 0)
(234.736 0 0)
(235.836 0 0)
(236.925 0 0)
(238.005 0 0)
(239.075 0 0)
(240.135 0 0)
(241.186 0 0)
(242.226 0 0)
(243.257 0 0)
(244.278 0 0)
(245.293 0 0)
(246.285 0 0)
(247.31 0 0)
(248.194 0 0)
(249.473 0 0)
(140.996 0 0)
(142.889 0 0)
(144.767 0 0)
(146.63 0 0)
(148.479 0 0)
(150.312 0 0)
(152.129 0 0)
(153.931 0 0)
(155.717 0 0)
(157.487 0 0)
(159.241 0 0)
(160.979 0 0)
(162.701 0 0)
(164.408 0 0)
(166.098 0 0)
(167.774 0 0)
(169.434 0 0)
(171.079 0 0)
(172.708 0 0)
(174.323 0 0)
(175.923 0 0)
(177.508 0 0)
(179.079 0 0)
(180.635 0 0)
(182.178 0 0)
(183.706 0 0)
(185.221 0 0)
(186.722 0 0)
(188.209 0 0)
(189.683 0 0)
(191.144 0 0)
(192.592 0 0)
(194.027 0 0)
(195.45 0 0)
(196.859 0 0)
(198.257 0 0)
(199.642 0 0)
(201.015 0 0)
(202.376 0 0)
(203.724 0 0)
(205.062 0 0)
(206.387 0 0)
(207.701 0 0)
(209.003 0 0)
(210.295 0 0)
(211.574 0 0)
(212.843 0 0)
(214.101 0 0)
(215.348 0 0)
(216.584 0 0)
(217.809 0 0)
(219.024 0 0)
(220.228 0 0)
(221.422 0 0)
(222.605 0 0)
(223.778 0 0)
(224.941 0 0)
(226.093 0 0)
(227.236 0 0)
(228.368 0 0)
(229.491 0 0)
(230.604 0 0)
(231.707 0 0)
(232.8 0 0)
(233.884 0 0)
(234.958 0 0)
(236.022 0 0)
(237.077 0 0)
(238.123 0 0)
(239.159 0 0)
(240.186 0 0)
(241.204 0 0)
(242.213 0 0)
(243.211 0 0)
(244.204 0 0)
(245.175 0 0)
(246.179 0 0)
(247.045 0 0)
(248.298 0 0)
(143.175 0 0)
(144.992 0 0)
(146.796 0 0)
(148.585 0 0)
(150.361 0 0)
(152.122 0 0)
(153.868 0 0)
(155.599 0 0)
(157.316 0 0)
(159.018 0 0)
(160.705 0 0)
(162.377 0 0)
(164.035 0 0)
(165.678 0 0)
(167.307 0 0)
(168.921 0 0)
(170.52 0 0)
(172.106 0 0)
(173.678 0 0)
(175.236 0 0)
(176.78 0 0)
(178.31 0 0)
(179.827 0 0)
(181.331 0 0)
(182.821 0 0)
(184.299 0 0)
(185.763 0 0)
(187.215 0 0)
(188.654 0 0)
(190.081 0 0)
(191.496 0 0)
(192.898 0 0)
(194.288 0 0)
(195.666 0 0)
(197.033 0 0)
(198.388 0 0)
(199.731 0 0)
(201.063 0 0)
(202.383 0 0)
(203.692 0 0)
(204.991 0 0)
(206.278 0 0)
(207.554 0 0)
(208.819 0 0)
(210.074 0 0)
(211.318 0 0)
(212.552 0 0)
(213.775 0 0)
(214.988 0 0)
(216.19 0 0)
(217.383 0 0)
(218.565 0 0)
(219.737 0 0)
(220.9 0 0)
(222.052 0 0)
(223.195 0 0)
(224.328 0 0)
(225.452 0 0)
(226.565 0 0)
(227.67 0 0)
(228.765 0 0)
(229.85 0 0)
(230.927 0 0)
(231.994 0 0)
(233.051 0 0)
(234.1 0 0)
(235.14 0 0)
(236.17 0 0)
(237.192 0 0)
(238.205 0 0)
(239.208 0 0)
(240.203 0 0)
(241.19 0 0)
(242.166 0 0)
(243.138 0 0)
(244.089 0 0)
(245.071 0 0)
(245.92 0 0)
(247.145 0 0)
(145.269 0 0)
(147.014 0 0)
(148.746 0 0)
(150.465 0 0)
(152.17 0 0)
(153.862 0 0)
(155.54 0 0)
(157.204 0 0)
(158.855 0 0)
(160.491 0 0)
(162.114 0 0)
(163.724 0 0)
(165.32 0 0)
(166.902 0 0)
(168.471 0 0)
(170.026 0 0)
(171.568 0 0)
(173.097 0 0)
(174.613 0 0)
(176.116 0 0)
(177.607 0 0)
(179.085 0 0)
(180.55 0 0)
(182.003 0 0)
(183.443 0 0)
(184.872 0 0)
(186.288 0 0)
(187.693 0 0)
(189.085 0 0)
(190.466 0 0)
(191.836 0 0)
(193.194 0 0)
(194.541 0 0)
(195.877 0 0)
(197.201 0 0)
(198.515 0 0)
(199.817 0 0)
(201.109 0 0)
(202.391 0 0)
(203.661 0 0)
(204.922 0 0)
(206.172 0 0)
(207.411 0 0)
(208.64 0 0)
(209.86 0 0)
(211.069 0 0)
(212.268 0 0)
(213.458 0 0)
(214.637 0 0)
(215.807 0 0)
(216.968 0 0)
(218.118 0 0)
(219.26 0 0)
(220.392 0 0)
(221.514 0 0)
(222.627 0 0)
(223.731 0 0)
(224.826 0 0)
(225.912 0 0)
(226.989 0 0)
(228.056 0 0)
(229.115 0 0)
(230.165 0 0)
(231.206 0 0)
(232.239 0 0)
(233.263 0 0)
(234.278 0 0)
(235.284 0 0)
(236.282 0 0)
(237.271 0 0)
(238.252 0 0)
(239.225 0 0)
(240.189 0 0)
(241.144 0 0)
(242.095 0 0)
(243.024 0 0)
(243.985 0 0)
(244.816 0 0)
(246.015 0 0)
(147.281 0 0)
(148.957 0 0)
(150.62 0 0)
(152.271 0 0)
(153.909 0 0)
(155.535 0 0)
(157.148 0 0)
(158.748 0 0)
(160.335 0 0)
(161.909 0 0)
(163.471 0 0)
(165.02 0 0)
(166.557 0 0)
(168.081 0 0)
(169.593 0 0)
(171.092 0 0)
(172.579 0 0)
(174.053 0 0)
(175.516 0 0)
(176.967 0 0)
(178.406 0 0)
(179.833 0 0)
(181.248 0 0)
(182.652 0 0)
(184.045 0 0)
(185.426 0 0)
(186.796 0 0)
(188.155 0 0)
(189.502 0 0)
(190.839 0 0)
(192.166 0 0)
(193.481 0 0)
(194.786 0 0)
(196.08 0 0)
(197.364 0 0)
(198.638 0 0)
(199.901 0 0)
(201.155 0 0)
(202.398 0 0)
(203.631 0 0)
(204.855 0 0)
(206.069 0 0)
(207.273 0 0)
(208.467 0 0)
(209.652 0 0)
(210.827 0 0)
(211.993 0 0)
(213.15 0 0)
(214.297 0 0)
(215.435 0 0)
(216.564 0 0)
(217.684 0 0)
(218.795 0 0)
(219.897 0 0)
(220.99 0 0)
(222.074 0 0)
(223.15 0 0)
(224.217 0 0)
(225.275 0 0)
(226.325 0 0)
(227.366 0 0)
(228.398 0 0)
(229.422 0 0)
(230.438 0 0)
(231.446 0 0)
(232.445 0 0)
(233.436 0 0)
(234.418 0 0)
(235.393 0 0)
(236.359 0 0)
(237.318 0 0)
(238.268 0 0)
(239.21 0 0)
(240.144 0 0)
(241.073 0 0)
(241.983 0 0)
(242.922 0 0)
(243.736 0 0)
(244.908 0 0)
(149.215 0 0)
(150.824 0 0)
(152.422 0 0)
(154.007 0 0)
(155.581 0 0)
(157.144 0 0)
(158.694 0 0)
(160.233 0 0)
(161.76 0 0)
(163.275 0 0)
(164.778 0 0)
(166.269 0 0)
(167.749 0 0)
(169.217 0 0)
(170.674 0 0)
(172.119 0 0)
(173.553 0 0)
(174.976 0 0)
(176.387 0 0)
(177.788 0 0)
(179.177 0 0)
(180.555 0 0)
(181.923 0 0)
(183.28 0 0)
(184.626 0 0)
(185.962 0 0)
(187.287 0 0)
(188.602 0 0)
(189.906 0 0)
(191.2 0 0)
(192.485 0 0)
(193.759 0 0)
(195.023 0 0)
(196.278 0 0)
(197.522 0 0)
(198.757 0 0)
(199.983 0 0)
(201.199 0 0)
(202.405 0 0)
(203.602 0 0)
(204.79 0 0)
(205.969 0 0)
(207.138 0 0)
(208.298 0 0)
(209.45 0 0)
(210.592 0 0)
(211.726 0 0)
(212.85 0 0)
(213.966 0 0)
(215.073 0 0)
(216.172 0 0)
(217.261 0 0)
(218.343 0 0)
(219.416 0 0)
(220.48 0 0)
(221.536 0 0)
(222.584 0 0)
(223.623 0 0)
(224.654 0 0)
(225.677 0 0)
(226.692 0 0)
(227.699 0 0)
(228.698 0 0)
(229.689 0 0)
(230.672 0 0)
(231.646 0 0)
(232.613 0 0)
(233.573 0 0)
(234.524 0 0)
(235.468 0 0)
(236.404 0 0)
(237.332 0 0)
(238.253 0 0)
(239.165 0 0)
(240.074 0 0)
(240.963 0 0)
(241.882 0 0)
(242.677 0 0)
(243.823 0 0)
(151.074 0 0)
(152.619 0 0)
(154.154 0 0)
(155.677 0 0)
(157.19 0 0)
(158.691 0 0)
(160.182 0 0)
(161.662 0 0)
(163.131 0 0)
(164.589 0 0)
(166.036 0 0)
(167.472 0 0)
(168.898 0 0)
(170.313 0 0)
(171.717 0 0)
(173.11 0 0)
(174.494 0 0)
(175.866 0 0)
(177.228 0 0)
(178.58 0 0)
(179.922 0 0)
(181.253 0 0)
(182.575 0 0)
(183.886 0 0)
(185.188 0 0)
(186.48 0 0)
(187.762 0 0)
(189.034 0 0)
(190.297 0 0)
(191.55 0 0)
(192.794 0 0)
(194.028 0 0)
(195.253 0 0)
(196.469 0 0)
(197.676 0 0)
(198.873 0 0)
(200.062 0 0)
(201.242 0 0)
(202.412 0 0)
(203.574 0 0)
(204.727 0 0)
(205.872 0 0)
(207.008 0 0)
(208.135 0 0)
(209.254 0 0)
(210.364 0 0)
(211.466 0 0)
(212.559 0 0)
(213.644 0 0)
(214.721 0 0)
(215.79 0 0)
(216.85 0 0)
(217.903 0 0)
(218.947 0 0)
(219.983 0 0)
(221.012 0 0)
(222.032 0 0)
(223.045 0 0)
(224.05 0 0)
(225.047 0 0)
(226.036 0 0)
(227.017 0 0)
(227.991 0 0)
(228.957 0 0)
(229.916 0 0)
(230.867 0 0)
(231.811 0 0)
(232.747 0 0)
(233.676 0 0)
(234.597 0 0)
(235.511 0 0)
(236.418 0 0)
(237.317 0 0)
(238.208 0 0)
(239.096 0 0)
(239.965 0 0)
(240.863 0 0)
(241.641 0 0)
(242.76 0 0)
(152.861 0 0)
(154.345 0 0)
(155.819 0 0)
(157.283 0 0)
(158.737 0 0)
(160.181 0 0)
(161.614 0 0)
(163.038 0 0)
(164.451 0 0)
(165.855 0 0)
(167.248 0 0)
(168.632 0 0)
(170.005 0 0)
(171.369 0 0)
(172.723 0 0)
(174.066 0 0)
(175.401 0 0)
(176.725 0 0)
(178.04 0 0)
(179.346 0 0)
(180.641 0 0)
(181.928 0 0)
(183.205 0 0)
(184.473 0 0)
(185.731 0 0)
(186.981 0 0)
(188.221 0 0)
(189.453 0 0)
(190.675 0 0)
(191.888 0 0)
(193.093 0 0)
(194.289 0 0)
(195.476 0 0)
(196.655 0 0)
(197.824 0 0)
(198.986 0 0)
(200.139 0 0)
(201.283 0 0)
(202.419 0 0)
(203.547 0 0)
(204.667 0 0)
(205.778 0 0)
(206.881 0 0)
(207.976 0 0)
(209.063 0 0)
(210.142 0 0)
(211.213 0 0)
(212.276 0 0)
(213.331 0 0)
(214.379 0 0)
(215.418 0 0)
(216.45 0 0)
(217.475 0 0)
(218.491 0 0)
(219.5 0 0)
(220.501 0 0)
(221.495 0 0)
(222.482 0 0)
(223.46 0 0)
(224.432 0 0)
(225.396 0 0)
(226.353 0 0)
(227.302 0 0)
(228.244 0 0)
(229.179 0 0)
(230.107 0 0)
(231.027 0 0)
(231.941 0 0)
(232.847 0 0)
(233.746 0 0)
(234.639 0 0)
(235.524 0 0)
(236.402 0 0)
(237.273 0 0)
(238.14 0 0)
(238.989 0 0)
(239.866 0 0)
(240.628 0 0)
(241.72 0 0)
(154.579 0 0)
(156.005 0 0)
(157.421 0 0)
(158.828 0 0)
(160.225 0 0)
(161.614 0 0)
(162.993 0 0)
(164.363 0 0)
(165.723 0 0)
(167.074 0 0)
(168.416 0 0)
(169.749 0 0)
(171.073 0 0)
(172.387 0 0)
(173.693 0 0)
(174.989 0 0)
(176.276 0 0)
(177.555 0 0)
(178.824 0 0)
(180.085 0 0)
(181.337 0 0)
(182.58 0 0)
(183.814 0 0)
(185.04 0 0)
(186.257 0 0)
(187.466 0 0)
(188.666 0 0)
(189.858 0 0)
(191.041 0 0)
(192.216 0 0)
(193.383 0 0)
(194.542 0 0)
(195.692 0 0)
(196.834 0 0)
(197.969 0 0)
(199.095 0 0)
(200.213 0 0)
(201.324 0 0)
(202.426 0 0)
(203.521 0 0)
(204.608 0 0)
(205.687 0 0)
(206.758 0 0)
(207.822 0 0)
(208.878 0 0)
(209.927 0 0)
(210.968 0 0)
(212.001 0 0)
(213.027 0 0)
(214.046 0 0)
(215.057 0 0)
(216.061 0 0)
(217.058 0 0)
(218.047 0 0)
(219.03 0 0)
(220.004 0 0)
(220.972 0 0)
(221.933 0 0)
(222.886 0 0)
(223.833 0 0)
(224.772 0 0)
(225.705 0 0)
(226.63 0 0)
(227.549 0 0)
(228.46 0 0)
(229.365 0 0)
(230.263 0 0)
(231.154 0 0)
(232.038 0 0)
(232.916 0 0)
(233.787 0 0)
(234.651 0 0)
(235.509 0 0)
(236.358 0 0)
(237.205 0 0)
(238.035 0 0)
(238.892 0 0)
(239.636 0 0)
(240.702 0 0)
(156.231 0 0)
(157.6 0 0)
(158.961 0 0)
(160.314 0 0)
(161.658 0 0)
(162.993 0 0)
(164.32 0 0)
(165.638 0 0)
(166.948 0 0)
(168.249 0 0)
(169.542 0 0)
(170.826 0 0)
(172.102 0 0)
(173.369 0 0)
(174.628 0 0)
(175.879 0 0)
(177.121 0 0)
(178.355 0 0)
(179.581 0 0)
(180.799 0 0)
(182.008 0 0)
(183.21 0 0)
(184.403 0 0)
(185.588 0 0)
(186.765 0 0)
(187.935 0 0)
(189.096 0 0)
(190.25 0 0)
(191.396 0 0)
(192.534 0 0)
(193.664 0 0)
(194.786 0 0)
(195.901 0 0)
(197.009 0 0)
(198.109 0 0)
(199.201 0 0)
(200.286 0 0)
(201.363 0 0)
(202.433 0 0)
(203.495 0 0)
(204.55 0 0)
(205.598 0 0)
(206.639 0 0)
(207.672 0 0)
(208.699 0 0)
(209.718 0 0)
(210.729 0 0)
(211.734 0 0)
(212.732 0 0)
(213.723 0 0)
(214.706 0 0)
(215.683 0 0)
(216.653 0 0)
(217.616 0 0)
(218.572 0 0)
(219.521 0 0)
(220.463 0 0)
(221.399 0 0)
(222.327 0 0)
(223.249 0 0)
(224.165 0 0)
(225.073 0 0)
(225.975 0 0)
(226.871 0 0)
(227.759 0 0)
(228.642 0 0)
(229.517 0 0)
(230.386 0 0)
(231.249 0 0)
(232.105 0 0)
(232.955 0 0)
(233.798 0 0)
(234.635 0 0)
(235.465 0 0)
(236.292 0 0)
(237.101 0 0)
(237.938 0 0)
(238.666 0 0)
(239.706 0 0)
(157.82 0 0)
(159.136 0 0)
(160.444 0 0)
(161.744 0 0)
(163.037 0 0)
(164.321 0 0)
(165.598 0 0)
(166.867 0 0)
(168.128 0 0)
(169.381 0 0)
(170.627 0 0)
(171.865 0 0)
(173.095 0 0)
(174.317 0 0)
(175.531 0 0)
(176.738 0 0)
(177.937 0 0)
(179.128 0 0)
(180.312 0 0)
(181.488 0 0)
(182.657 0 0)
(183.818 0 0)
(184.972 0 0)
(186.118 0 0)
(187.257 0 0)
(188.388 0 0)
(189.513 0 0)
(190.629 0 0)
(191.739 0 0)
(192.841 0 0)
(193.936 0 0)
(195.024 0 0)
(196.104 0 0)
(197.178 0 0)
(198.244 0 0)
(199.303 0 0)
(200.356 0 0)
(201.401 0 0)
(202.439 0 0)
(203.471 0 0)
(204.495 0 0)
(205.513 0 0)
(206.523 0 0)
(207.527 0 0)
(208.524 0 0)
(209.514 0 0)
(210.498 0 0)
(211.475 0 0)
(212.445 0 0)
(213.408 0 0)
(214.365 0 0)
(215.315 0 0)
(216.259 0 0)
(217.196 0 0)
(218.126 0 0)
(219.05 0 0)
(219.968 0 0)
(220.878 0 0)
(221.783 0 0)
(222.681 0 0)
(223.573 0 0)
(224.458 0 0)
(225.337 0 0)
(226.21 0 0)
(227.076 0 0)
(227.936 0 0)
(228.79 0 0)
(229.637 0 0)
(230.478 0 0)
(231.314 0 0)
(232.143 0 0)
(232.965 0 0)
(233.782 0 0)
(234.592 0 0)
(235.399 0 0)
(236.19 0 0)
(237.006 0 0)
(237.717 0 0)
(238.732 0 0)
(159.348 0 0)
(160.613 0 0)
(161.87 0 0)
(163.121 0 0)
(164.364 0 0)
(165.6 0 0)
(166.829 0 0)
(168.051 0 0)
(169.265 0 0)
(170.473 0 0)
(171.673 0 0)
(172.866 0 0)
(174.052 0 0)
(175.231 0 0)
(176.403 0 0)
(177.567 0 0)
(178.725 0 0)
(179.875 0 0)
(181.019 0 0)
(182.155 0 0)
(183.284 0 0)
(184.407 0 0)
(185.522 0 0)
(186.631 0 0)
(187.733 0 0)
(188.827 0 0)
(189.915 0 0)
(190.997 0 0)
(192.071 0 0)
(193.139 0 0)
(194.199 0 0)
(195.253 0 0)
(196.301 0 0)
(197.342 0 0)
(198.376 0 0)
(199.403 0 0)
(200.424 0 0)
(201.438 0 0)
(202.446 0 0)
(203.447 0 0)
(204.441 0 0)
(205.429 0 0)
(206.411 0 0)
(207.386 0 0)
(208.355 0 0)
(209.317 0 0)
(210.273 0 0)
(211.223 0 0)
(212.166 0 0)
(213.103 0 0)
(214.033 0 0)
(214.958 0 0)
(215.875 0 0)
(216.787 0 0)
(217.693 0 0)
(218.592 0 0)
(219.485 0 0)
(220.372 0 0)
(221.253 0 0)
(222.127 0 0)
(222.996 0 0)
(223.858 0 0)
(224.715 0 0)
(225.565 0 0)
(226.409 0 0)
(227.248 0 0)
(228.08 0 0)
(228.906 0 0)
(229.727 0 0)
(230.541 0 0)
(231.35 0 0)
(232.152 0 0)
(232.949 0 0)
(233.739 0 0)
(234.527 0 0)
(235.298 0 0)
(236.096 0 0)
(236.79 0 0)
(237.78 0 0)
(160.818 0 0)
(162.034 0 0)
(163.244 0 0)
(164.446 0 0)
(165.642 0 0)
(166.832 0 0)
(168.015 0 0)
(169.192 0 0)
(170.362 0 0)
(171.525 0 0)
(172.682 0 0)
(173.832 0 0)
(174.976 0 0)
(176.113 0 0)
(177.244 0 0)
(178.368 0 0)
(179.485 0 0)
(180.596 0 0)
(181.701 0 0)
(182.799 0 0)
(183.891 0 0)
(184.976 0 0)
(186.055 0 0)
(187.127 0 0)
(188.193 0 0)
(189.252 0 0)
(190.305 0 0)
(191.352 0 0)
(192.393 0 0)
(193.427 0 0)
(194.455 0 0)
(195.476 0 0)
(196.491 0 0)
(197.5 0 0)
(198.503 0 0)
(199.5 0 0)
(200.49 0 0)
(201.474 0 0)
(202.452 0 0)
(203.424 0 0)
(204.389 0 0)
(205.349 0 0)
(206.302 0 0)
(207.249 0 0)
(208.191 0 0)
(209.126 0 0)
(210.055 0 0)
(210.978 0 0)
(211.895 0 0)
(212.806 0 0)
(213.711 0 0)
(214.61 0 0)
(215.503 0 0)
(216.39 0 0)
(217.271 0 0)
(218.146 0 0)
(219.016 0 0)
(219.879 0 0)
(220.737 0 0)
(221.588 0 0)
(222.434 0 0)
(223.274 0 0)
(224.109 0 0)
(224.937 0 0)
(225.76 0 0)
(226.577 0 0)
(227.388 0 0)
(228.194 0 0)
(228.993 0 0)
(229.787 0 0)
(230.576 0 0)
(231.359 0 0)
(232.136 0 0)
(232.907 0 0)
(233.675 0 0)
(234.428 0 0)
(235.206 0 0)
(235.884 0 0)
(236.849 0 0)
(162.234 0 0)
(163.403 0 0)
(164.566 0 0)
(165.723 0 0)
(166.874 0 0)
(168.019 0 0)
(169.158 0 0)
(170.291 0 0)
(171.418 0 0)
(172.54 0 0)
(173.655 0 0)
(174.764 0 0)
(175.867 0 0)
(176.964 0 0)
(178.055 0 0)
(179.141 0 0)
(180.22 0 0)
(181.293 0 0)
(182.36 0 0)
(183.421 0 0)
(184.477 0 0)
(185.526 0 0)
(186.569 0 0)
(187.607 0 0)
(188.638 0 0)
(189.663 0 0)
(190.683 0 0)
(191.697 0 0)
(192.704 0 0)
(193.706 0 0)
(194.702 0 0)
(195.692 0 0)
(196.676 0 0)
(197.654 0 0)
(198.627 0 0)
(199.593 0 0)
(200.554 0 0)
(201.509 0 0)
(202.458 0 0)
(203.401 0 0)
(204.339 0 0)
(205.271 0 0)
(206.197 0 0)
(207.117 0 0)
(208.031 0 0)
(208.94 0 0)
(209.843 0 0)
(210.74 0 0)
(211.631 0 0)
(212.517 0 0)
(213.397 0 0)
(214.272 0 0)
(215.14 0 0)
(216.003 0 0)
(216.861 0 0)
(217.713 0 0)
(218.559 0 0)
(219.399 0 0)
(220.234 0 0)
(221.063 0 0)
(221.887 0 0)
(222.705 0 0)
(223.518 0 0)
(224.325 0 0)
(225.127 0 0)
(225.923 0 0)
(226.713 0 0)
(227.498 0 0)
(228.278 0 0)
(229.052 0 0)
(229.821 0 0)
(230.584 0 0)
(231.342 0 0)
(232.094 0 0)
(232.843 0 0)
(233.578 0 0)
(234.336 0 0)
(234.998 0 0)
(235.939 0 0)
(163.596 0 0)
(164.72 0 0)
(165.839 0 0)
(166.952 0 0)
(168.06 0 0)
(169.162 0 0)
(170.26 0 0)
(171.351 0 0)
(172.437 0 0)
(173.518 0 0)
(174.593 0 0)
(175.663 0 0)
(176.727 0 0)
(177.786 0 0)
(178.839 0 0)
(179.887 0 0)
(180.929 0 0)
(181.966 0 0)
(182.997 0 0)
(184.023 0 0)
(185.043 0 0)
(186.058 0 0)
(187.067 0 0)
(188.071 0 0)
(189.069 0 0)
(190.061 0 0)
(191.048 0 0)
(192.03 0 0)
(193.006 0 0)
(193.976 0 0)
(194.942 0 0)
(195.901 0 0)
(196.855 0 0)
(197.804 0 0)
(198.747 0 0)
(199.684 0 0)
(200.616 0 0)
(201.543 0 0)
(202.464 0 0)
(203.38 0 0)
(204.29 0 0)
(205.195 0 0)
(206.094 0 0)
(206.988 0 0)
(207.876 0 0)
(208.759 0 0)
(209.637 0 0)
(210.509 0 0)
(211.375 0 0)
(212.237 0 0)
(213.092 0 0)
(213.943 0 0)
(214.788 0 0)
(215.627 0 0)
(216.462 0 0)
(217.291 0 0)
(218.114 0 0)
(218.932 0 0)
(219.745 0 0)
(220.552 0 0)
(221.355 0 0)
(222.151 0 0)
(222.943 0 0)
(223.729 0 0)
(224.51 0 0)
(225.285 0 0)
(226.056 0 0)
(226.821 0 0)
(227.58 0 0)
(228.335 0 0)
(229.084 0 0)
(229.828 0 0)
(230.567 0 0)
(231.3 0 0)
(232.031 0 0)
(232.748 0 0)
(233.487 0 0)
(234.133 0 0)
(235.049 0 0)
(164.908 0 0)
(165.989 0 0)
(167.065 0 0)
(168.137 0 0)
(169.203 0 0)
(170.265 0 0)
(171.321 0 0)
(172.373 0 0)
(173.42 0 0)
(174.462 0 0)
(175.499 0 0)
(176.531 0 0)
(177.558 0 0)
(178.579 0 0)
(179.596 0 0)
(180.608 0 0)
(181.615 0 0)
(182.616 0 0)
(183.613 0 0)
(184.604 0 0)
(185.591 0 0)
(186.572 0 0)
(187.548 0 0)
(188.519 0 0)
(189.485 0 0)
(190.446 0 0)
(191.402 0 0)
(192.353 0 0)
(193.298 0 0)
(194.238 0 0)
(195.174 0 0)
(196.104 0 0)
(197.029 0 0)
(197.948 0 0)
(198.863 0 0)
(199.773 0 0)
(200.677 0 0)
(201.576 0 0)
(202.47 0 0)
(203.359 0 0)
(204.243 0 0)
(205.121 0 0)
(205.995 0 0)
(206.863 0 0)
(207.726 0 0)
(208.584 0 0)
(209.437 0 0)
(210.284 0 0)
(211.127 0 0)
(211.964 0 0)
(212.796 0 0)
(213.623 0 0)
(214.445 0 0)
(215.262 0 0)
(216.074 0 0)
(216.88 0 0)
(217.682 0 0)
(218.478 0 0)
(219.269 0 0)
(220.055 0 0)
(220.836 0 0)
(221.612 0 0)
(222.382 0 0)
(223.148 0 0)
(223.909 0 0)
(224.664 0 0)
(225.415 0 0)
(226.16 0 0)
(226.9 0 0)
(227.636 0 0)
(228.366 0 0)
(229.091 0 0)
(229.812 0 0)
(230.526 0 0)
(231.239 0 0)
(231.937 0 0)
(232.658 0 0)
(233.289 0 0)
(234.181 0 0)
(166.171 0 0)
(167.211 0 0)
(168.247 0 0)
(169.278 0 0)
(170.305 0 0)
(171.327 0 0)
(172.345 0 0)
(173.359 0 0)
(174.368 0 0)
(175.373 0 0)
(176.373 0 0)
(177.368 0 0)
(178.359 0 0)
(179.346 0 0)
(180.327 0 0)
(181.305 0 0)
(182.277 0 0)
(183.245 0 0)
(184.208 0 0)
(185.167 0 0)
(186.121 0 0)
(187.07 0 0)
(188.014 0 0)
(188.954 0 0)
(189.889 0 0)
(190.819 0 0)
(191.744 0 0)
(192.665 0 0)
(193.581 0 0)
(194.492 0 0)
(195.399 0 0)
(196.3 0 0)
(197.197 0 0)
(198.089 0 0)
(198.976 0 0)
(199.858 0 0)
(200.736 0 0)
(201.608 0 0)
(202.476 0 0)
(203.339 0 0)
(204.197 0 0)
(205.05 0 0)
(205.898 0 0)
(206.741 0 0)
(207.58 0 0)
(208.414 0 0)
(209.242 0 0)
(210.066 0 0)
(210.885 0 0)
(211.699 0 0)
(212.508 0 0)
(213.313 0 0)
(214.112 0 0)
(214.907 0 0)
(215.696 0 0)
(216.481 0 0)
(217.261 0 0)
(218.036 0 0)
(218.806 0 0)
(219.571 0 0)
(220.331 0 0)
(221.086 0 0)
(221.837 0 0)
(222.582 0 0)
(223.323 0 0)
(224.059 0 0)
(224.79 0 0)
(225.516 0 0)
(226.237 0 0)
(226.954 0 0)
(227.665 0 0)
(228.372 0 0)
(229.074 0 0)
(229.771 0 0)
(230.465 0 0)
(231.146 0 0)
(231.849 0 0)
(232.464 0 0)
(233.333 0 0)
(167.388 0 0)
(168.388 0 0)
(169.385 0 0)
(170.378 0 0)
(171.367 0 0)
(172.352 0 0)
(173.333 0 0)
(174.31 0 0)
(175.283 0 0)
(176.251 0 0)
(177.216 0 0)
(178.177 0 0)
(179.133 0 0)
(180.085 0 0)
(181.034 0 0)
(181.977 0 0)
(182.917 0 0)
(183.852 0 0)
(184.783 0 0)
(185.71 0 0)
(186.633 0 0)
(187.551 0 0)
(188.465 0 0)
(189.374 0 0)
(190.279 0 0)
(191.18 0 0)
(192.076 0 0)
(192.968 0 0)
(193.855 0 0)
(194.738 0 0)
(195.617 0 0)
(196.49 0 0)
(197.36 0 0)
(198.225 0 0)
(199.085 0 0)
(199.941 0 0)
(200.792 0 0)
(201.639 0 0)
(202.481 0 0)
(203.319 0 0)