/*--------------------------------*- C++ -*----------------------------------*\
| =========                 |                                                 |
| \\      /  F ield         | OpenFOAM: The Open Source CFD Toolbox           |
|  \\    /   O peration     | Version:  2312                                  |
|   \\  /    A nd           | Website:  www.openfoam.com                      |
|    \\/     M anipulation  |                                                 |
\*---------------------------------------------------------------------------*/
FoamFile
{
    version     2.0;
    format      ascii;
    arch        "LSB;label=32;scalar=64";
    class       surfaceScalarField;
    location    "0.411";
    object      phi;
}
// * * * * * * * * * * * * * * * * * * * * * * * * * * * * * * * * * * * * * //

dimensions      [0 3 -1 0 0 0 0];

oriented        oriented;

internalField   nonuniform List<scalar> 
62015
(
57.0568
0.30027
-58.0394
56.0664
0.290568
55.0671
0.280793
54.058
0.27095
53.0375
0.261048
52.0041
0.251093
50.9561
0.241092
49.8914
0.231053
48.8078
0.220983
47.7024
0.210888
46.5722
0.200776
45.4135
0.190652
44.222
0.180524
42.9927
0.170397
41.72
0.160277
40.3971
0.150171
39.0168
0.140087
37.5722
0.130035
36.0587
0.120036
34.4808
0.110132
32.8594
0.100406
31.2395
0.0909995
29.6866
0.0820958
28.2728
0.0738781
27.0557
0.0664672
26.0646
0.0598839
25.2992
0.0540562
24.7382
0.048856
24.3502
0.0441381
24.1027
0.039768
23.9664
0.0356339
23.9176
0.0316487
23.9374
0.0277473
24.0113
0.0238812
24.1285
0.0200155
24.2806
0.0161243
24.4613
0.0121891
24.6657
0.00819596
24.8903
0.00413531
25.1321
0
25.3888
-0.0042151
25.6587
-0.00851298
25.9405
-0.0128965
26.2328
-0.0173662
26.535
-0.021923
26.8462
-0.0265663
27.1659
-0.0312958
27.4937
-0.0361099
27.8291
-0.0410079
28.1718
-0.0459873
28.5217
-0.0510463
28.8785
-0.0561828
29.2421
-0.0613943
29.6124
-0.0666783
29.9893
-0.0720318
30.3727
-0.077452
30.7625
-0.0829362
31.1589
-0.0884809
31.5616
-0.0940832
31.9708
-0.0997394
32.3864
-0.105447
32.8084
-0.111201
33.2368
-0.116999
33.6717
-0.122838
34.1131
-0.128713
34.561
-0.134621
35.0153
-0.140558
35.4762
-0.14652
35.9436
-0.152504
36.4176
-0.158505
36.8982
-0.164521
37.3854
-0.170545
37.879
-0.176577
38.3797
-0.182608
38.8855
-0.188644
39.4029
-0.19465
39.9112
-0.200721
40.4749
-0.206542
-0.213084
40.8957
54.7403
0.5849
-55.6902
53.7824
0.565918
52.8159
0.546793
51.8396
0.527538
50.8521
0.508167
49.852
0.488693
48.8373
0.46913
47.8063
0.449491
46.7564
0.429792
45.685
0.410043
44.5891
0.390259
43.4649
0.370452
42.3083
0.350634
41.1143
0.330816
39.8773
0.311012
38.591
0.291234
37.2487
0.271499
35.8447
0.251837
34.3773
0.232299
32.8555
0.212994
31.3062
0.19412
29.778
0.17598
28.3353
0.158936
27.042
0.143306
25.944
0.129262
25.0599
0.116785
24.3831
0.105699
23.8903
0.0957465
23.5519
0.0866539
23.3384
0.0781764
23.2238
0.070113
23.1874
0.0623087
23.2124
0.0546465
23.2864
0.0470406
23.3997
0.0394274
23.5449
0.0317605
23.7164
0.024006
23.91
0.0161389
24.1223
0.00814135
24.3508
0
24.5932
-0.00829427
24.8482
-0.0167477
25.1143
-0.0253644
25.3906
-0.0341466
25.6763
-0.0430947
25.9706
-0.0522088
26.2731
-0.0614873
26.5833
-0.0709277
26.9008
-0.0805279
27.2255
-0.0902838
27.557
-0.100192
27.8952
-0.110248
28.24
-0.120446
28.5912
-0.130783
28.9488
-0.141253
29.3127
-0.15185
29.6829
-0.162568
30.0592
-0.173401
30.4418
-0.184343
30.8306
-0.195389
31.2255
-0.20653
31.6267
-0.217761
32.0341
-0.229075
32.4476
-0.240464
32.8674
-0.251922
33.2935
-0.263441
33.7258
-0.275015
34.1643
-0.286636
34.6092
-0.298296
35.0604
-0.309988
35.5178
-0.321704
35.9817
-0.333437
36.4517
-0.345181
36.9286
-0.356921
37.4102
-0.36867
37.903
-0.380358
38.3874
-0.392167
38.9234
-0.403501
-0.41619
39.3284
52.4806
0.854097
-53.3993
51.5539
0.826243
50.6186
0.798181
49.6737
0.769928
48.7177
0.741504
47.7491
0.71293
46.7661
0.684226
45.7668
0.655411
44.7489
0.626505
43.7095
0.597525
42.6458
0.568492
41.5539
0.539421
40.4298
0.510332
39.2686
0.481241
38.065
0.452168
36.8128
0.423133
35.5064
0.39417
34.1418
0.365332
32.7209
0.336726
31.258
0.308555
29.7858
0.281167
28.3554
0.255035
27.0275
0.230671
25.8565
0.208463
24.8764
0.188563
24.096
0.17086
23.5037
0.155057
23.0755
0.140773
22.7838
0.127628
22.6022
0.115289
22.5081
0.10349
22.4834
0.0920244
22.5136
0.0807365
22.5877
0.0695114
22.6975
0.0582641
22.8364
0.0469322
22.9994
0.0354695
23.1829
0.0238417
23.3837
0.0120248
23.5996
0
23.8287
-0.012245
24.0695
-0.0247188
24.321
-0.0374271
24.5822
-0.0503728
24.8522
-0.063557
25.1306
-0.0769785
25.4168
-0.0906361
25.7104
-0.104526
26.0111
-0.118644
26.3186
-0.132985
26.6328
-0.147545
26.9534
-0.162315
27.2804
-0.17729
27.6136
-0.192463
27.9529
-0.207825
28.2983
-0.223369
28.6498
-0.239085
29.0073
-0.254966
29.3708
-0.271003
29.7402
-0.287185
30.1156
-0.303504
30.497
-0.31995
30.8844
-0.336512
31.2777
-0.353182
31.6771
-0.369948
32.0825
-0.386801
32.4938
-0.403729
32.9113
-0.420722
33.3347
-0.437769
33.7643
-0.454859
34.1998
-0.471982
34.6415
-0.489125
35.0892
-0.50628
35.5433
-0.523428
36.0022
-0.540583
36.4715
-0.557651
36.9334
-0.574884
37.4431
-0.591441
-0.60991
37.8316
50.2935
1.10834
-51.1824
49.3965
1.072
48.4911
1.03539
47.5761
0.99854
46.65
0.961463
45.7114
0.92419
44.7585
0.886747
43.7893
0.849157
42.8015
0.811446
41.7924
0.773637
40.7588
0.735754
39.6973
0.69782
38.6036
0.659857
37.4731
0.621888
36.3006
0.583941
35.0806
0.54605
33.8085
0.508267
32.4829
0.470689
31.1098
0.433502
29.7094
0.397043
28.319
0.361827
26.9904
0.328493
25.7788
0.297646
24.7278
0.269677
23.8603
0.24465
23.1772
0.222331
22.663
0.202297
22.2941
0.184056
22.0452
0.167147
21.893
0.151172
21.8178
0.135816
21.8039
0.120836
21.8389
0.106049
21.9134
0.0913207
22.0199
0.0765485
22.153
0.061658
22.3083
0.0465936
22.4823
0.0313146
22.6725
0.0157907
22.8767
0
23.0933
-0.0160729
23.321
-0.0324385
23.5587
-0.0491037
23.8057
-0.0660717
24.0611
-0.0833438
24.3245
-0.100919
24.5953
-0.118794
24.8733
-0.136966
25.1581
-0.155428
25.4495
-0.174174
25.7473
-0.193198
26.0513
-0.21249
26.3614
-0.232042
26.6776
-0.251845
26.9997
-0.271889
27.3276
-0.292163
27.6614
-0.312656
28.001
-0.333358
28.3464
-0.354255
28.6975
-0.375338
29.0544
-0.396592
29.4171
-0.418006
29.7855
-0.439567
30.1597
-0.461262
30.5396
-0.483078
30.9254
-0.505
31.3169
-0.527016
31.7143
-0.549111
32.1174
-0.571272
32.5264
-0.593485
32.9412
-0.615735
33.3619
-0.638008
33.7883
-0.660291
34.2209
-0.682561
34.6581
-0.704836
35.1052
-0.726995
35.5454
-0.749357
36.0305
-0.77086
-0.794774
36.4027
48.185
1.34818
-49.0453
47.3167
1.30373
46.4399
1.25896
45.5535
1.21388
44.6562
1.16854
43.7462
1.12295
42.822
1.07715
41.8815
1.03117
40.9224
0.985034
39.9419
0.938778
38.937
0.892428
37.9042
0.846009
36.8394
0.799551
35.738
0.753083
34.5952
0.706643
33.4063
0.660282
32.1683
0.614087
30.8826
0.568219
29.5604
0.522977
28.2269
0.478857
26.9229
0.436552
25.6985
0.396829
24.6015
0.360323
23.6649
0.327353
22.902
0.297854
22.3072
0.271451
21.8631
0.247601
21.5471
0.225727
21.3361
0.205303
21.2099
0.185889
21.1514
0.167136
21.1471
0.148778
21.1863
0.130613
21.2608
0.11249
21.3644
0.0942979
21.492
0.0759516
21.6399
0.0573893
21.8051
0.0385645
21.9853
0.019443
22.1786
0
22.3835
-0.0197822
22.5988
-0.0399156
22.8237
-0.0604077
23.0573
-0.0812625
23.2989
-0.102481
23.5482
-0.124062
23.8046
-0.146001
24.0679
-0.168294
24.3377
-0.190934
24.6138
-0.213913
24.8962
-0.237223
25.1845
-0.260853
25.4787
-0.284793
25.7787
-0.309031
26.0845
-0.333556
26.3959
-0.358354
26.7129
-0.383413
27.0356
-0.408719
27.3638
-0.434258
27.6976
-0.460015
28.0369
-0.485975
28.3818
-0.512123
28.7322
-0.538445
29.0882
-0.564922
29.4498
-0.591541
29.8169
-0.618284
30.1896
-0.645135
30.5679
-0.672078
30.9518
-0.699094
31.3412
-0.726168
31.7363
-0.753281
32.137
-0.780417
32.5431
-0.80756
32.9553
-0.834681
33.3718
-0.861803
33.7978
-0.88878
34.2175
-0.915993
34.6793
-0.942177
-0.971223
35.0355
46.1562
1.57417
-46.989
45.3155
1.52198
44.4663
1.4694
43.6074
1.41647
42.7376
1.36322
41.8552
1.30968
40.9585
1.25589
40.0454
1.20188
39.1137
1.1477
38.1607
1.09336
37.1832
1.03891
36.1778
0.984366
35.1406
0.929775
34.0672
0.875172
32.9532
0.820609
31.7951
0.766163
30.5917
0.711973
29.3483
0.658293
28.0808
0.605567
26.819
0.554471
25.6051
0.505855
24.4853
0.460557
23.499
0.419174
22.6694
0.381892
22.0015
0.34849
21.4856
0.318455
21.1034
0.291141
20.8336
0.265907
20.6557
0.242183
20.5521
0.219502
20.508
0.197496
20.5118
0.175884
20.5543
0.154452
20.6286
0.13304
20.729
0.111528
20.8514
0.0898258
20.9923
0.0678658
21.1492
0.0455981
21.32
0.0229851
21.503
0
21.6969
-0.0233766
21.9007
-0.0471579
22.1134
-0.0713517
22.3344
-0.0959624
22.5631
-0.120991
22.799
-0.146435
23.0419
-0.17229
23.2912
-0.198551
23.5469
-0.22521
23.8087
-0.252257
24.0764
-0.279683
24.3499
-0.307475
24.629
-0.335622
24.9138
-0.364109
25.2041
-0.392924
25.4998
-0.422051
25.801
-0.451474
26.1076
-0.481179
26.4196
-0.511149
26.7369
-0.541366
27.0596
-0.571814
27.3876
-0.602474
27.721
-0.633329
28.0597
-0.66436
28.4038
-0.695549
28.7533
-0.726876
29.1081
-0.758323
29.4682
-0.789869
29.8338
-0.821495
30.2047
-0.853182
30.581
-0.884909
30.9627
-0.916654
31.3496
-0.948403
31.7423
-0.980119
32.1392
-1.01183
32.5451
-1.04337
32.9452
-1.07517
33.385
-1.10578
-1.13966
33.7256
44.2057
1.78685
-45.0119
43.3915
1.72726
42.5689
1.66723
41.7366
1.60678
40.8932
1.54598
40.0372
1.48484
39.1669
1.42341
38.2802
1.36173
37.3748
1.29984
36.4481
1.23777
35.4969
1.17556
34.5179
1.11325
33.5073
1.05088
32.461
0.98849
31.3755
0.926169
30.2483
0.864028
29.0812
0.802282
27.8832
0.741311
26.6749
0.681729
25.4892
0.62439
24.3677
0.570261
23.351
0.520184
22.4698
0.474642
21.7386
0.433657
21.1561
0.396838
20.7099
0.363549
20.3817
0.333066
20.1519
0.304702
20.0026
0.277863
19.9183
0.252067
19.8864
0.226938
19.897
0.202186
19.9421
0.177592
20.0157
0.15299
20.1129
0.128255
20.2302
0.103292
20.3645
0.0780324
20.5135
0.0524214
20.6754
0.0264203
20.8487
0
21.0322
-0.0268598
21.225
-0.0541725
21.4263
-0.0819472
21.6355
-0.110188
21.852
-0.138894
22.0754
-0.168065
22.3053
-0.197695
22.5416
-0.227777
22.7839
-0.258301
23.0321
-0.289259
23.286
-0.320638
23.5454
-0.352424
23.8104
-0.384605
24.0807
-0.417164
24.3564
-0.450086
24.6373
-0.483355
24.9234
-0.516952
25.2148
-0.55086
25.5114
-0.585061
25.8131
-0.619535
26.12
-0.654262
26.432
-0.689223
26.7492
-0.724397
27.0716
-0.759763
27.3991
-0.7953
27.7317
-0.830987
28.0695
-0.866801
28.4125
-0.902721
28.7606
-0.938724
29.1139
-0.974788
29.4723
-1.01089
29.836
-1.04701
30.2047
-1.08312
30.5789
-1.11919
30.9571
-1.15524
31.3439
-1.19109
31.7254
-1.22723
32.1441
-1.26204
-1.30047
32.4698
42.331
1.98672
-43.1116
41.5424
1.92006
40.7454
1.8529
39.9386
1.78529
39.1207
1.71726
38.2902
1.64886
37.4453
1.58013
36.5839
1.51112
35.7038
1.44185
34.8023
1.37238
33.8765
1.30275
32.9229
1.233
31.938
1.16318
30.9184
1.09336
29.8612
1.02365
28.766
0.954216
27.6373
0.885388
26.4885
0.817697
25.3439
0.751943
24.238
0.689133
23.2096
0.63029
22.2929
0.576182
21.5101
0.52713
20.8683
0.482963
20.3617
0.443137
19.9765
0.40691
19.6951
0.373503
19.4999
0.342204
19.3751
0.312409
19.3073
0.283633
19.2857
0.255498
19.3018
0.227713
19.3488
0.200055
19.4213
0.172357
19.5154
0.144492
19.6276
0.116364
19.7555
0.087898
19.8971
0.059041
20.0505
0.0297515
20.2147
0
20.3884
-0.0302348
20.5709
-0.0609671
20.7614
-0.0922054
20.9594
-0.123954
21.1644
-0.156213
21.3759
-0.188979
21.5938
-0.222246
21.8177
-0.256007
22.0474
-0.290253
22.2827
-0.32497
22.5235
-0.360146
22.7697
-0.395766
23.0212
-0.431816
23.2779
-0.468277
23.5397
-0.505133
23.8065
-0.542365
24.0785
-0.579954
24.3554
-0.617879
24.6374
-0.656121
24.9243
-0.694658
25.2162
-0.733467
25.5131
-0.772528
25.8149
-0.811816
26.1217
-0.85131
26.4335
-0.890985
26.7502
-0.930818
27.0718
-0.970785
27.3985
-1.01086
27.73
-1.05102
28.0666
-1.09124
28.4081
-1.13149
28.7545
-1.17175
29.1059
-1.212
29.4625
-1.25219
29.823
-1.29235
30.1916
-1.33229
30.5553
-1.37252
30.9542
-1.4113
-1.45401
31.2656
40.5293
2.17425
-41.2851
39.7654
2.10084
38.993
2.02688
38.2108
1.95241
37.4175
1.87749
36.6115
1.80214
35.791
1.72643
34.954
1.6504
34.0982
1.57409
33.221
1.49754
32.3195
1.4208
31.3906
1.34394
30.4309
1.267
29.4376
1.19009
28.4092
1.11336
27.3475
1.03708
26.2603
0.961687
25.1647
0.887907
24.0879
0.816714
23.0642
0.749224
22.1281
0.686439
21.3068
0.628988
20.6148
0.576991
20.0534
0.530086
19.614
0.487591
19.282
0.448687
19.0411
0.412562
18.8756
0.378494
18.7717
0.345882
18.7179
0.314246
18.705
0.283212
18.7255
0.252491
18.7737
0.221864
18.8449
0.191162
18.9357
0.160257
19.0431
0.129051
19.1649
0.0974718
19.2993
0.0654627
19.4448
0.0329822
19.6003
0
19.7648
-0.0335055
19.9375
-0.0675485
20.1178
-0.102138
20.3053
-0.137277
20.4994
-0.172966
20.6998
-0.209201
20.9062
-0.245975
21.1184
-0.283281
21.3362
-0.321106
21.5594
-0.359438
21.7879
-0.398263
22.0215
-0.437564
22.2602
-0.477325
22.504
-0.517527
22.7526
-0.558151
23.0062
-0.599178
23.2647
-0.640584
23.528
-0.68235
23.7961
-0.724452
24.069
-0.766867
24.3467
-0.809571
24.6292
-0.852541
24.9164
-0.89575
25.2084
-0.939175
25.5052
-0.982788
25.8068
-1.02657
26.1131
-1.07048
26.4242
-1.1145
26.7401
-1.15861
27.0607
-1.20277
27.3861
-1.24696
27.7163
-1.29115
28.0511
-1.33531
28.3909
-1.37941
28.7346
-1.42346
29.0859
-1.46727
29.4328
-1.51137
29.8127
-1.55391
-1.60065
30.1106
38.7978
2.3499
-39.5298
38.0578
2.27004
37.3091
2.18959
36.5506
2.10857
35.7809
2.02705
34.9984
1.94508
34.2014
1.86269
33.3879
1.77994
32.5555
1.69689
31.7017
1.61357
30.8238
1.53004
29.9188
1.44637
28.9839
1.36264
28.0171
1.279
27.0184
1.19565
25.9923
1.11298
24.9499
1.03161
23.9117
0.952426
22.9062
0.876566
21.9657
0.80518
21.1196
0.739178
20.3879
0.678997
19.7788
0.624536
19.2892
0.575259
18.9087
0.530373
18.6229
0.489007
18.417
0.450335
18.277
0.41364
18.1909
0.378334
18.149
0.343946
18.1433
0.310112
18.1673
0.276548
18.2162
0.24304
18.2859
0.20942
18.3734
0.175561
18.476
0.141367
18.592
0.106762
18.7196
0.0716926
18.8575
0.0361153
19.0048
0
19.1606
-0.036675
19.3241
-0.073924
19.4949
-0.111755
19.6724
-0.150172
19.8562
-0.189174
20.0461
-0.228756
20.2417
-0.268912
20.4428
-0.309632
20.6494
-0.350903
20.8611
-0.392712
21.0779
-0.435043
21.2996
-0.477879
21.5263
-0.521202
21.7578
-0.56499
21.9941
-0.609225
22.2351
-0.653884
22.4807
-0.698943
22.7311
-0.74438
22.9861
-0.79017
23.2457
-0.836289
23.5099
-0.88271
23.7787
-0.929407
24.0522
-0.976353
24.3302
-1.02352
24.6128
-1.07088
24.9
-1.11841
25.1917
-1.16608
25.4881
-1.21386
25.789
-1.26171
26.0945
-1.30961
26.4046
-1.35754
26.7193
-1.40545
27.0384
-1.45333
27.3623
-1.50112
27.6899
-1.54886
28.0248
-1.59632
28.3556
-1.64409
28.7176
-1.69018
-1.74072
29.0026
37.1339
2.5141
-37.8428
36.4168
2.42809
35.691
2.34143
34.9553
2.25416
34.2083
2.16634
33.4485
2.07802
32.6741
1.98925
31.8831
1.90009
31.0732
1.81058
30.2421
1.72078
29.3871
1.63075
28.5055
1.54059
27.5952
1.45041
26.6554
1.3604
25.6879
1.27086
24.7001
1.18234
23.7062
1.09562
22.7291
1.01177
21.7972
0.932026
20.9395
0.857502
20.1796
0.788942
19.5312
0.726557
18.997
0.670033
18.571
0.618683
18.242
0.571631
17.9963
0.527978
17.8204
0.486903
17.7022
0.447704
17.6315
0.409811
17.5996
0.372769
17.5998
0.336226
17.6266
0.299908
17.6757
0.263603
17.7437
0.227148
17.8278
0.19042
17.9259
0.153321
18.0362
0.115778
18.1574
0.0777366
18.2882
0.0391539
18.4277
0
18.5752
-0.0397466
18.7301
-0.0801001
18.8918
-0.121068
19.0599
-0.162654
19.2341
-0.204856
19.414
-0.247669
19.5994
-0.291086
19.7901
-0.335096
19.986
-0.379685
20.1868
-0.424838
20.3926
-0.47054
20.6031
-0.51677
20.8184
-0.563511
21.0383
-0.610739
21.2628
-0.658434
21.4919
-0.706571
21.7254
-0.755126
21.9635
-0.804074
22.2061
-0.85339
22.4531
-0.903045
22.7045
-0.953013
22.9604
-1.00327
23.2207
-1.05377
23.4854
-1.10451
23.7545
-1.15544
24.0281
-1.20654
24.306
-1.25778
24.5884
-1.30912
24.8751
-1.36053
25.1663
-1.41199
25.4618
-1.46346
25.7617
-1.5149
26.0659
-1.5663
26.3748
-1.6176
26.6871
-1.66882
27.0064
-1.71974
27.3219
-1.77097
27.6668
-1.82043
-1.87453
27.9394
35.5349
2.66727
-36.2216
34.8399
2.57539
34.1361
2.4828
33.4224
2.38956
32.6973
2.29572
31.9592
2.20133
31.2065
2.10646
30.4372
2.01115
29.6491
1.91547
28.8399
1.81948
28.0072
1.72326
27.1488
1.62692
26.2633
1.53062
25.3514
1.43463
24.4172
1.33939
23.4707
1.24559
22.529
1.15421
21.6161
1.06647
20.7589
0.983622
19.9822
0.906661
19.3038
0.836121
18.7316
0.771975
18.2645
0.713712
17.8946
0.660526
17.6104
0.611488
17.3993
0.565693
17.2493
0.522336
17.1499
0.480739
17.0921
0.440356
17.0686
0.40075
17.0737
0.361584
17.1026
0.322592
17.1516
0.283572
17.2177
0.244364
17.2985
0.204846
17.3922
0.164925
17.4972
0.124528
17.6122
0.0836002
17.7362
0.042101
17.8684
0
18.0081
-0.0427236
18.1548
-0.0860835
18.308
-0.130087
18.4672
-0.174737
18.6322
-0.22003
18.8027
-0.265962
18.9785
-0.312524
19.1594
-0.359704
19.3452
-0.407488
19.5358
-0.45586
19.7311
-0.504801
19.931
-0.554294
20.1355
-0.604315
20.3444
-0.654843
20.5578
-0.705854
20.7755
-0.757323
20.9977
-0.809224
21.2241
-0.861531
21.4548
-0.914216
21.6899
-0.96725
21.9292
-1.0206
22.1728
-1.07425
22.4206
-1.12815
22.6727
-1.18229
22.9291
-1.23662
23.1897
-1.29112
23.4545
-1.34575
23.7235
-1.40048
23.9968
-1.45527
24.2743
-1.5101
24.556
-1.56493
24.8419
-1.61973
25.1319
-1.67446
25.4264
-1.72908
25.7243
-1.7836
26.0287
-1.8378
26.3297
-1.89229
26.6583
-1.94494
-2.00239
26.9192
33.9984
2.80982
-34.6638
33.3246
2.71232
32.6421
2.61408
31.9494
2.51513
31.2453
2.41553
30.5283
2.31535
29.7965
2.21464
29.0481
2.11346
28.2811
2.01188
27.4932
1.90997
26.6824
1.80785
25.8471
1.70565
24.987
1.6036
24.1044
1.50207
23.2059
1.40165
22.304
1.30323
21.4179
1.20794
20.5713
1.11708
19.7886
1.03186
19.0899
0.953092
18.4873
0.881064
17.9843
0.815513
17.5768
0.755768
17.2561
0.70093
17.0108
0.650049
16.8296
0.60223
16.7018
0.556694
16.6184
0.512793
16.5716
0.470006
16.5553
0.42792
16.5643
0.38621
16.5948
0.344624
16.6433
0.302965
16.7074
0.261081
16.785
0.218853
16.8744
0.176189
16.9742
0.133019
17.0834
0.089289
17.201
0.0449591
17.3263
0
17.4587
-0.0456088
17.5976
-0.0918803
17.7427
-0.138821
17.8936
-0.186434
18.0499
-0.234715
18.2116
-0.283658
18.3782
-0.333253
18.5498
-0.383489
18.7261
-0.43435
18.907
-0.485819
19.0925
-0.537876
19.2823
-0.590502
19.4766
-0.643674
19.6751
-0.697368
19.878
-0.751559
20.085
-0.80622
20.2963
-0.861325
20.5117
-0.916846
20.7312
-0.972752
20.9549
-1.02901
21.1828
-1.0856
21.4147
-1.14248
21.6507
-1.19963
21.8908
-1.257
22.135
-1.31457
22.3833
-1.3723
22.6357
-1.43016
22.8921
-1.48811
23.1525
-1.54612
23.4171
-1.60415
23.6856
-1.66218
23.9582
-1.72015
24.2348
-1.77804
24.5156
-1.8358
24.7997
-1.89345
25.09
-1.95074
25.3772
-2.00832
25.6903
-2.06399
-2.12459
25.94
32.5219
2.94212
-33.1668
31.8686
2.83927
31.2065
2.73562
30.5341
2.63121
29.8503
2.52612
29.1534
2.42039
28.4418
2.3141
27.7136
2.20731
26.967
2.1001
26.1999
1.99256
25.4109
1.88483
24.599
1.7771
23.7653
1.6697
22.9139
1.56312
22.0539
1.45812
21.1999
1.35577
20.3721
1.25734
19.5929
1.16413
18.8833
1.07722
18.2583
0.997186
17.7255
0.924069
17.2846
0.857395
16.9299
0.796362
16.652
0.740017
16.4404
0.687406
16.2849
0.637659
16.1763
0.590031
16.1065
0.543908
16.0691
0.498797
16.0587
0.454306
16.071
0.410128
16.1025
0.366022
16.1504
0.3218
16.2124
0.277315
16.2868
0.232452
16.3721
0.187123
16.467
0.141259
16.5706
0.094808
16.6821
0.0477313
16.8009
0
16.9263
-0.0484052
17.0579
-0.0974968
17.1954
-0.147281
17.3384
-0.197758
17.4866
-0.248925
17.6398
-0.300776
17.7979
-0.353298
17.9607
-0.40648
18.128
-0.460305
18.2997
-0.514755
18.4758
-0.56981
18.6562
-0.625448
18.8408
-0.681646
19.0295
-0.738377
19.2223
-0.795618
19.4192
-0.853339
19.6202
-0.911511
19.8252
-0.970107
20.0341
-1.02909
20.2471
-1.08844
20.464
-1.14812
20.6848
-1.20809
20.9096
-1.26832
21.1384
-1.32878
21.3711
-1.38943
21.6077
-1.45024
21.8482
-1.51117
22.0926
-1.57219
22.3409
-1.63325
22.5931
-1.69433
22.8492
-1.75538
23.1091
-1.81636
23.3729
-1.87725
23.6407
-1.93798
23.9116
-1.99859
24.1885
-2.05882
24.4626
-2.11932
24.7611
-2.17784
-2.2414
25
31.1032
3.06455
-31.7283
30.4697
2.95659
29.8271
2.84777
29.1743
2.73815
28.5099
2.6278
27.8324
2.51677
27.1403
2.40515
26.4317
2.293
25.705
2.18042
24.9586
2.06753
24.1913
1.9545
23.4034
1.84162
22.5975
1.72931
21.7796
1.61822
20.9611
1.5093
20.158
1.40377
19.3904
1.30297
18.6785
1.20813
18.0392
1.12012
17.4831
1.03928
17.0137
0.965392
16.6283
0.897807
16.3199
0.835631
16.0792
0.777886
15.8968
0.723634
15.7635
0.672039
15.6712
0.622394
15.6131
0.574123
15.5836
0.52676
15.5782
0.479936
15.593
0.433362
15.6252
0.386807
15.6722
0.340093
15.7321
0.293079
15.8034
0.245656
15.8847
0.197736
15.9749
0.149256
16.0733
0.100163
16.1791
0.0504199
16.2916
0
16.4105
-0.0511157
16.5352
-0.102939
16.6655
-0.155474
16.801
-0.208723
16.9415
-0.26268
17.0868
-0.317338
17.2368
-0.372685
17.3912
-0.428707
17.55
-0.485388
17.7131
-0.542708
17.8804
-0.600646
18.0517
-0.65918
18.2272
-0.718284
18.4066
-0.777932
18.59
-0.838097
18.7772
-0.898751
18.9684
-0.959862
19.1635
-1.0214
19.3624
-1.08334
19.5651
-1.14563
19.7717
-1.20826
19.9821
-1.27118
20.1962
-1.33436
20.4142
-1.39776
20.6359
-1.46135
20.8614
-1.52509
21.0907
-1.58894
21.3237
-1.65287
21.5604
-1.71684
21.8009
-1.7808
22.0451
-1.84473
22.2931
-1.90857
22.5446
-1.9723
22.8001
-2.03585
23.0586
-2.09926
23.3227
-2.16226
23.5843
-2.22552
23.8688
-2.28674
-2.35308
24.0976
29.7401
3.17746
-30.3461
29.1255
3.06461
28.5018
2.95086
27.8678
2.83626
27.2221
2.72088
26.5634
2.6048
25.8902
2.48808
25.2007
2.37082
24.4935
2.25314
23.7675
2.13519
23.0225
2.01721
22.2596
1.89958
21.4833
1.78285
20.7015
1.66787
19.9273
1.55574
19.1775
1.4478
18.471
1.34538
17.825
1.24955
17.2525
1.16096
16.7599
1.07967
16.3477
1.00525
16.0113
0.936902
15.7434
0.873687
15.5351
0.814622
15.3778
0.758798
15.2635
0.705421
15.1852
0.653826
15.1371
0.603472
15.1144
0.553924
15.113
0.504835
15.1299
0.455932
15.1624
0.406997
15.2083
0.357861
15.2661
0.308389
15.3343
0.258476
15.4118
0.208039
15.4976
0.157016
15.591
0.105358
15.6913
0.0530277
15.798
-1.0724e-07
15.9106
-0.0537428
16.0288
-0.108212
16.1523
-0.163411
16.2808
-0.219339
16.414
-0.275993
16.5519
-0.333362
16.6941
-0.391435
16.8407
-0.450197
16.9915
-0.50963
17.1464
-0.569714
17.3053
-0.630427
17.4681
-0.691744
17.6349
-0.75364
17.8055
-0.816089
17.9799
-0.87906
18.1581
-0.942525
18.34
-1.00645
18.5257
-1.07081
18.7151
-1.13556
18.9081
-1.20068
19.1049
-1.26612
19.3053
-1.33186
19.5093
-1.39785
19.717
-1.46406
19.9284
-1.53045
20.1433
-1.59698
20.3619
-1.66362
20.5841
-1.73032
20.8099
-1.79704
21.0392
-1.86375
21.2721
-1.9304
21.5086
-1.99696
21.7486
-2.06338
21.9924
-2.1296
22.239
-2.19566
22.491
-2.26129
22.7407
-2.32716
23.0119
-2.39093
-2.45989
23.231
28.4304
3.28119
-29.0181
27.834
3.16368
27.2285
3.04521
26.6125
2.92585
25.985
2.80568
25.3445
2.68476
24.6895
2.56318
24.0187
2.44107
23.3309
2.31855
22.6256
2.19586
21.9034
2.0733
21.167
1.95137
20.4224
1.8308
19.6794
1.7126
18.9521
1.59801
18.2573
1.48842
17.6116
1.38507
17.0292
1.28884
16.5191
1.20007
16.0844
1.1186
15.7232
1.0438
15.43
0.974806
15.1973
0.910624
15.017
0.850296
14.8814
0.792954
14.7835
0.737851
14.7172
0.684364
14.6776
0.631988
14.6605
0.580318
14.6626
0.529027
14.681
0.477859
14.7135
0.42661
14.7583
0.375119
14.814
0.323256
14.8792
0.270923
14.953
0.218041
15.0346
0.164548
15.1232
0.110398
15.2183
0.055557
15.3195
0
15.4262
-0.0562896
15.5383
-0.113321
15.6554
-0.171098
15.7772
-0.22962
15.9036
-0.28888
16.0343
-0.348869
16.1694
-0.409573
16.3085
-0.470977
16.4517
-0.533062
16.5988
-0.595808
16.7498
-0.659191
16.9046
-0.723185
17.0632
-0.787766
17.2254
-0.852903
17.3913
-0.918568
17.5609
-0.984729
17.7341
-1.05135
17.9108
-1.11841
18.0912
-1.18586
18.275
-1.25368
18.4625
-1.32181
18.6534
-1.39024
18.8479
-1.45891
19.0458
-1.5278
19.2473
-1.59686
19.4522
-1.66605
19.6607
-1.73534
19.8726
-1.80467
20.0879
-1.87402
20.3067
-1.94333
20.5289
-2.01257
20.7545
-2.0817
20.9835
-2.15068
21.2161
-2.21943
21.4514
-2.288
21.6919
-2.35611
21.9302
-2.42445
22.1889
-2.49064
-2.56205
22.3987
27.1721
3.37607
-27.7422
26.5932
3.2541
26.0052
3.13113
25.4067
3.00722
24.7967
2.88246
24.1737
2.75694
23.5366
2.63075
22.8843
2.50403
22.2159
2.37699
21.5317
2.24989
20.8335
2.12317
20.1253
1.99747
19.4147
1.87368
18.7131
1.75297
18.0348
1.6367
17.3955
1.52619
16.8095
1.42253
16.2874
1.32635
15.8349
1.23772
15.4524
1.15626
15.1365
1.08121
14.8811
1.01162
14.679
0.946517
14.5229
0.884967
14.406
0.826151
14.3221
0.769369
14.2661
0.714042
14.2338
0.6597
14.2214
0.605965
14.2262
0.552533
14.2458
0.499164
14.2781
0.445664
14.3217
0.391881
14.3752
0.337695
14.4375
0.283009
14.5078
0.227749
14.5853
0.171857
14.6695
0.115288
14.7597
0.0580103
14.8556
0
14.9569
-0.0587581
15.0631
-0.118273
15.1741
-0.178546
15.2896
-0.239576
15.4095
-0.301355
15.5336
-0.363874
15.6618
-0.427119
15.7939
-0.491072
15.9299
-0.555714
16.0697
-0.621024
16.2132
-0.686977
16.3604
-0.753547
16.5112
-0.820707
16.6655
-0.888428
16.8234
-0.956678
16.9848
-1.02543
17.1496
-1.09464
17.3179
-1.16428
17.4897
-1.23431
17.6649
-1.30471
17.8434
-1.37542
18.0254
-1.44641
18.2108
-1.51765
18.3995
-1.58909
18.5916
-1.66069
18.787
-1.73242
18.9858
-1.80422
19.1879
-1.87607
19.3933
-1.94791
19.6021
-2.0197
19.8141
-2.0914
20.0294
-2.16297
20.2479
-2.23436
20.4698
-2.30552
20.6945
-2.37646
20.924
-2.44692
21.1516
-2.51759
21.3982
-2.58608
-2.65979
21.5991
25.9632
3.4624
-26.5163
25.4012
3.33618
24.83
3.20891
24.2484
3.08066
23.6553
2.95154
23.0496
2.82162
22.43
2.69106
21.796
2.56003
21.1474
2.42876
20.4851
2.29766
19.8121
2.16726
19.1341
2.03836
18.4601
1.91204
17.802
1.78959
17.174
1.67237
16.59
1.56161
16.0614
1.45817
15.5958
1.3624
15.1958
1.27415
14.86
1.19283
14.584
1.11758
14.3616
1.04743
14.1861
0.981429
14.0509
0.918686
13.95
0.85843
13.8782
0.800011
13.831
0.742891
13.8048
0.686635
13.7964
0.63089
13.8035
0.575375
13.8238
0.519863
13.8558
0.464173
13.8981
0.408162
13.9494
0.351716
14.009
0.294743
14.0759
0.237173
14.1496
0.17895
14.2294
0.120033
14.315
0.0603898
14.406
0
14.502
-0.061151
14.6027
-0.123071
14.708
-0.18576
14.8176
-0.249217
14.9314
-0.313433
15.0492
-0.378397
15.1709
-0.444094
15.2964
-0.510506
15.4256
-0.577614
15.5584
-0.645394
15.6948
-0.713822
15.8348
-0.78287
15.9782
-0.85251
16.125
-0.922713
16.2753
-0.993445
16.4289
-1.06467
16.5859
-1.13636
16.7462
-1.20848
16.9098
-1.28099
17.0767
-1.35385
17.2469
-1.42703
17.4204
-1.50048
17.5971
-1.57416
17.777
-1.64804
17.9602
-1.72207
18.1466
-1.79621
18.3362
-1.87041
18.529
-1.94464
18.725
-2.01885
18.9242
-2.093
19.1265
-2.16703
19.332
-2.24092
19.5406
-2.31461
19.7524
-2.38804
19.9669
-2.46123
20.1859
-2.53392
20.4032
-2.60678
20.6385
-2.67744
-2.75331
20.831
24.8018
3.54049
-25.3386
24.2561
3.4102
23.7012
3.27883
23.1359
3.14645
22.5593
3.01317
21.9704
2.87911
21.3683
2.74443
20.7528
2.60937
20.1244
2.47425
19.4852
2.33957
18.8392
2.20603
18.1936
2.0746
17.5582
1.94648
16.9454
1.82303
16.3681
1.70557
15.8381
1.59514
15.364
1.49234
14.9504
1.39726
14.5979
1.30953
14.3035
1.22841
14.0625
1.15299
13.8688
1.0823
13.7163
1.01541
13.5991
0.951496
13.512
0.889829
13.4506
0.829809
13.411
0.77094
13.3899
0.712818
13.3849
0.655116
13.3937
0.597572
13.4146
0.539975
13.4461
0.482155
13.487
0.423977
13.5363
0.365332
13.5931
0.306136
13.6568
0.24632
13.7268
0.185833
13.8026
0.124636
13.8838
0.0626979
13.9701
0
14.0611
-0.0634707
14.1567
-0.127721
14.2566
-0.19275
14.3606
-0.258555
14.4685
-0.325126
14.5804
-0.392453
14.6959
-0.460518
14.8151
-0.529304
14.9379
-0.598789
15.0642
-0.66895
15.1939
-0.739761
15.327
-0.811193
15.4635
-0.883219
15.6032
-0.955806
15.7462
-1.02892
15.8925
-1.10253
16.042
-1.1766
16.1947
-1.25109
16.3506
-1.32597
16.5097
-1.40119
16.6719
-1.47672
16.8373
-1.55252
17.0058
-1.62854
17.1774
-1.70474
17.3521
-1.78108
17.5299
-1.85752
17.7108
-1.93402
17.8948
-2.01052
18.0819
-2.08698
18.2719
-2.16336
18.4651
-2.23962
18.6612
-2.3157
18.8603
-2.39157
19.0625
-2.46715
19.2673
-2.54248
19.4764
-2.61727
19.684
-2.69222
19.9084
-2.76493
-2.84283
20.0929
23.6861
3.61062
-24.2072
23.1562
3.47646
22.617
3.34118
22.0676
3.20487
21.5072
3.06766
20.9349
2.92969
20.3503
2.79118
19.7537
2.65242
19.1464
2.51385
18.5315
2.3761
17.9144
2.24003
17.3033
2.10676
16.7085
1.97759
16.1419
1.85388
15.6149
1.7368
15.1368
1.62718
14.7136
1.52535
14.3475
1.43114
14.0374
1.34401
13.7797
1.26311
13.5692
1.18752
13.4004
1.11628
13.2678
1.04851
13.1661
0.983435
13.091
0.92038
13.0384
0.858793
13.0052
0.798214
12.9886
0.738272
12.9864
0.678664
12.9966
0.619144
13.0178
0.559517
13.0486
0.499624
13.0881
0.439337
13.1353
0.378555
13.1895
0.317197
13.2502
0.2552
13.3167
0.192514
13.3887
0.129102
13.4657
0.0649368
13.5476
-1.07134e-07
13.6339
-0.0657196
13.7246
-0.132227
13.8193
-0.199522
13.918
-0.267599
14.0205
-0.336449
14.1267
-0.406058
14.2365
-0.476411
14.3497
-0.547487
14.4664
-0.619265
14.5865
-0.69172
14.7099
-0.764826
14.8365
-0.838555
14.9663
-0.912874
15.0994
-0.987754
15.2355
-1.06316
15.3748
-1.13905
15.5173
-1.2154
15.6628
-1.29217
15.8113
-1.36932
15.963
-1.4468
16.1176
-1.52458
16.2753
-1.60262
16.436
-1.68087
16.5997
-1.7593
16.7664
-1.83785
16.9361
-1.91648
17.1087
-1.99515
17.2843
-2.07382
17.4628
-2.15242
17.6442
-2.23093
17.8286
-2.3093
18.0159
-2.38747
18.206
-2.4654
18.3991
-2.54302
18.5946
-2.62037
18.7943
-2.69716
18.9926
-2.77406
19.2067
-2.84872
-2.92852
19.3835
22.6144
3.67308
-23.1203
22.0997
3.53523
21.5759
3.39624
21.042
3.25621
20.4975
3.11529
19.9418
2.97367
19.3749
2.83163
18.7978
2.68956
18.2127
2.54801
17.6238
2.40776
17.0376
2.26983
16.4629
2.13545
15.91
2.00598
15.3898
1.88267
14.9117
1.76652
14.4828
1.65808
14.1065
1.55744
13.7834
1.4642
13.511
1.37769
13.2854
1.29701
13.1015
1.22122
12.9544
1.14942
12.8389
1.08077
12.7506
1.01453
12.6857
0.950113
12.6408
0.886988
12.6131
0.824739
12.6002
0.76302
12.6002
0.701553
12.6115
0.640109
12.6328
0.578506
12.6629
0.516595
12.701
0.454257
12.7462
0.391397
12.7979
0.327937
12.8556
0.263819
12.9188
0.198997
12.9871
0.133435
13.0603
0.0671083
13.1379
0
13.2198
-0.0678997
13.3058
-0.136595
13.3958
-0.206083
13.4895
-0.276359
13.5868
-0.347412
13.6876
-0.419228
13.7919
-0.49179
13.8996
-0.565077
14.0105
-0.639067
14.1247