/*--------------------------------*- C++ -*----------------------------------*\
| =========                 |                                                 |
| \\      /  F ield         | OpenFOAM: The Open Source CFD Toolbox           |
|  \\    /   O peration     | Version:  2206                                  |
|   \\  /    A nd           | Website:  www.openfoam.com                      |
|    \\/     M anipulation  |                                                 |
\*---------------------------------------------------------------------------*/
FoamFile
{
    version     2.0;
    format      ascii;
    arch        "LSB;label=32;scalar=64";
    class       volScalarField;
    location    "2.8";
    object      wave;
}
// * * * * * * * * * * * * * * * * * * * * * * * * * * * * * * * * * * * * * //

dimensions      [0 0 0 0 0 0 0];

internalField   nonuniform List<scalar> 
100
(
0.259263
0.103408
-0.0550452
-0.212116
-0.363857
-0.506458
-0.636335
-0.750226
-0.84527
-0.919079
-0.969799
-0.996154
-0.997485
-0.973756
-0.925565
-0.854121
-0.761219
-0.649195
-0.520861
-0.379442
-0.22849
-0.0717982
0.0866973
0.243015
0.393227
0.533561
0.66049
0.770827
0.861798
0.931119
0.977049
0.998433
0.994734
0.966045
0.913087
0.83719
0.740261
0.624735
0.493514
0.349895
0.197486
0.040116
-0.118262
-0.273669
-0.422201
-0.560126
-0.68398
-0.790651
-0.877458
-0.942222
-0.983316
-0.999706
-0.990981
-0.957361
-0.899689
-0.819416
-0.718557
-0.599646
-0.465671
-0.319997
-0.166284
-0.0083935
0.149708
0.304048
0.45075
0.586128
0.706781
0.809679
0.892235
0.952376
0.988592
0.999972
0.986231
0.947713
0.885386
0.800817
0.696129
0.573953
0.437359
0.289776
0.134914
-0.0233375
-0.181003
-0.334121
-0.478845
-0.611539
-0.728871
-0.827891
-0.906113
-0.961572
-0.992873
-0.999232
-0.980487
-0.937111
-0.870192
-0.781412
-0.673001
-0.547683
-0.408606
-0.259264
)
;

boundaryField
{
    movingWall
    {
        type            calculated;
        value           uniform 0;
    }
    fixedWalls
    {
        type            calculated;
        value           uniform 0;
    }
    frontAndBack
    {
        type            empty;
    }
}


// ************************************************************************* //
