/*--------------------------------*- C++ -*----------------------------------*\
| =========                 |                                                 |
| \\      /  F ield         | OpenFOAM: The Open Source CFD Toolbox           |
|  \\    /   O peration     | Version:  2312                                  |
|   \\  /    A nd           | Website:  www.openfoam.com                      |
|    \\/     M anipulation  |                                                 |
\*---------------------------------------------------------------------------*/
FoamFile
{
    version     2.0;
    format      ascii;
    arch        "LSB;label=32;scalar=64";
    class       surfaceScalarField;
    location    "0.461";
    object      phi;
}
// * * * * * * * * * * * * * * * * * * * * * * * * * * * * * * * * * * * * * //

dimensions      [0 3 -1 0 0 0 0];

oriented        oriented;

internalField   nonuniform List<scalar> 
62015
(
76.9821
0.150206
-76.581
77.3687
0.148135
77.7411
0.145935
78.1002
0.14361
78.4466
0.141161
78.7809
0.138592
79.1036
0.135906
79.4154
0.133104
79.7167
0.130191
80.0079
0.127167
80.2896
0.124037
80.5622
0.120803
80.826
0.117468
81.0815
0.114035
81.3289
0.110506
81.5687
0.106884
81.801
0.103172
82.0264
0.0993737
82.2449
0.0954907
82.4568
0.0915269
82.6625
0.0874851
82.8621
0.0833677
83.0559
0.0791785
83.244
0.0749203
83.4266
0.0705958
83.6039
0.0662088
83.7761
0.0617617
83.9432
0.0572585
84.1055
0.0527018
84.2629
0.048095
84.4157
0.0434411
84.5639
0.0387438
84.7075
0.0340066
84.8467
0.0292319
84.9815
0.0244242
85.1118
0.0195857
85.2378
0.0147208
85.3594
0.00983279
85.4766
0.00492435
85.5894
0
85.6977
-0.00493722
85.8015
-0.00988423
85.9007
-0.0148365
85.9952
-0.0197911
86.0849
-0.0247447
86.1697
-0.0296925
86.2495
-0.0346324
86.3239
-0.0395592
86.393
-0.0444703
86.4565
-0.0493618
86.5141
-0.0542294
86.5656
-0.0590696
86.6107
-0.0638786
86.6491
-0.068653
86.6804
-0.0733879
86.7043
-0.0780803
86.7204
-0.0827255
86.7282
-0.08732
86.7273
-0.0918596
86.717
-0.0963396
86.6967
-0.100756
86.6659
-0.105106
86.6238
-0.109382
86.5696
-0.113582
86.5024
-0.117701
86.4212
-0.121734
86.3248
-0.125675
86.2121
-0.129519
86.0817
-0.133262
85.9321
-0.136897
85.7618
-0.140418
85.5651
-0.14382
85.3481
-0.147084
85.0883
-0.15024
84.8594
-0.153177
84.4848
-0.156174
84.0503
-0.15861
83.6585
-0.161191
-0.163217
83.5335
75.2151
0.298099
-74.8591
75.5587
0.293856
75.8901
0.28937
76.2099
0.284644
76.5187
0.279684
76.817
0.274495
77.1054
0.269081
77.3841
0.263449
77.6538
0.257602
77.9148
0.251546
78.1674
0.245286
78.4121
0.238828
78.6492
0.232176
78.879
0.225335
79.1019
0.218312
79.3181
0.211111
79.5279
0.203738
79.7316
0.196198
79.9294
0.188498
80.1215
0.180641
80.3082
0.172635
80.4896
0.164484
80.666
0.156196
80.8375
0.147774
81.0042
0.139226
81.1664
0.130558
81.3242
0.121774
81.4777
0.112883
81.6269
0.103888
81.7721
0.0947979
81.9133
0.0856173
82.0505
0.0763533
82.1839
0.0670115
82.3134
0.0575995
82.4392
0.0481225
82.5613
0.0385876
82.6796
0.0290013
82.7942
0.01937
82.9051
0.00970075
83.0122
0
83.1155
-0.00972552
83.215
-0.019469
83.3106
-0.0292239
83.4022
-0.0389831
83.4897
-0.0487395
83.573
-0.0584866
83.6521
-0.0682166
83.7267
-0.0779238
83.7966
-0.0875999
83.8618
-0.0972385
83.922
-0.106832
83.977
-0.116373
84.0266
-0.125855
84.0704
-0.13527
84.1082
-0.144611
84.1397
-0.153871
84.1645
-0.163041
84.1823
-0.172114
84.1926
-0.181083
84.1949
-0.18994
84.1888
-0.198676
84.1737
-0.207284
84.149
-0.215756
84.1141
-0.224083
84.0682
-0.232256
84.0105
-0.240268
83.9401
-0.248108
83.856
-0.255767
83.7571
-0.263235
83.642
-0.270503
83.5101
-0.277558
83.3575
-0.284396
83.1881
-0.290984
82.9846
-0.297358
82.7693
-0.30339
82.5361
-0.309266
82.2508
-0.314754
81.8347
-0.320075
-0.324173
81.6458
73.4773
0.443624
-73.1625
73.7815
0.437126
74.0753
0.430281
74.359
0.423094
74.6333
0.415572
74.8984
0.407722
75.155
0.399552
75.4032
0.391067
75.6436
0.382276
75.8765
0.373185
76.1022
0.363802
76.321
0.354133
76.5333
0.344186
76.7393
0.333969
76.9392
0.323489
77.1334
0.312754
77.3221
0.301771
77.5055
0.290549
77.6839
0.279094
77.8574
0.267416
78.0262
0.255522
78.1905
0.243421
78.3505
0.231121
78.5063
0.218629
78.658
0.205956
78.8059
0.193109
78.95
0.180096
79.0905
0.166928
79.2274
0.153611
79.3608
0.140157
79.4908
0.126572
79.6175
0.112867
79.741
0.0990505
79.8612
0.0851321
79.9783
0.0711203
80.0922
0.0570254
80.2029
0.0428565
80.3106
0.0286226
80.4151
0.014334
80.5164
0
80.6146
-0.0143696
80.7095
-0.0287652
80.8012
-0.0431772
80.8895
-0.0575949
80.9744
-0.0720091
81.0558
-0.0864099
81.1335
-0.100786
81.2075
-0.11513
81.2775
-0.129428
81.3436
-0.143673
81.4054
-0.157854
81.4628
-0.171959
81.5156
-0.185979
81.5635
-0.199904
81.6064
-0.213722
81.6438
-0.227424
81.6756
-0.240998
81.7014
-0.254433
81.7209
-0.26772
81.7336
-0.280846
81.7391
-0.293801
81.737
-0.306573
81.7268
-0.319151
81.7078
-0.331523
81.6796
-0.343677
81.6414
-0.355602
81.5926
-0.367284
81.5322
-0.378711
81.4595
-0.38987
81.3732
-0.400747
81.2727
-0.411326
81.1557
-0.421598
81.023
-0.431533
80.8703
-0.441143
80.6948
-0.450365
80.495
-0.459232
80.3019
-0.4676
79.9926
-0.475975
-0.48257
79.8518
71.7556
0.586657
-71.4778
72.0243
0.577842
72.284
0.568583
72.5351
0.55889
72.778
0.548771
73.0131
0.538235
73.2408
0.527289
73.4613
0.515944
73.675
0.504207
73.8823
0.492088
74.0834
0.479595
74.2785
0.466737
74.468
0.453525
74.6521
0.439967
74.8311
0.426072
75.0051
0.411851
75.1744
0.397314
75.3391
0.38247
75.4996
0.367329
75.6558
0.351901
75.8081
0.336198
75.9566
0.320229
76.1014
0.304005
76.2427
0.287537
76.3805
0.270835
76.5151
0.25391
76.6464
0.236774
76.7747
0.219438
76.9
0.201913
77.0225
0.18421
77.142
0.166341
77.2588
0.148318
77.3729
0.130152
77.4843
0.111855
77.5931
0.0934393
77.6992
0.0749168
77.8027
0.0562991
77.9037
0.0375992
78.002
0.0188286
78.0978
0
78.1908
-0.0188742
78.2813
-0.0377815
78.3689
-0.0567094
78.4538
-0.0756447
78.5359
-0.0945761
78.615
-0.113489
78.6911
-0.132372
78.7641
-0.151211
78.8337
-0.169995
78.9001
-0.188709
78.9628
-0.20734
79.0219
-0.225876
79.0771
-0.244303
79.1282
-0.262607
79.175
-0.280777
79.2172
-0.298797
79.2547
-0.316655
79.2871
-0.334336
79.3141
-0.351828
79.3354
-0.369116
79.3507
-0.386185
79.3595
-0.403024
79.3613
-0.419615
79.3559
-0.435946
79.3426
-0.452002
79.3208
-0.467767
79.2901
-0.483227
79.2497
-0.498365
79.1989
-0.513166
79.1368
-0.527613
79.0627
-0.541688
78.9753
-0.555377
78.8738
-0.568655
78.7567
-0.581512
78.6248
-0.593909
78.4646
-0.605887
78.3085
-0.617191
78.071
-0.628496
-0.637824
77.9773
70.0467
0.72708
-69.8021
70.2836
0.7159
70.5127
0.704191
70.7344
0.691962
70.9491
0.679225
71.157
0.665988
71.3585
0.652262
71.554
0.638056
71.7436
0.623382
71.9276
0.608249
72.1063
0.592668
72.28
0.576651
72.4488
0.560207
72.613
0.543349
72.7727
0.526088
72.9283
0.508434
73.0799
0.490401
73.2276
0.471999
73.3716
0.453241
73.5121
0.434138
73.6493
0.414705
73.7832
0.394952
73.914
0.374892
74.0419
0.354539
74.1669
0.333905
74.2892
0.313004
74.4088
0.291849
74.5259
0.270452
74.6405
0.248829
74.7527
0.226993
74.8625
0.204957
74.9701
0.182735
75.0754
0.160342
75.1786
0.137792
75.2795
0.115099
75.3784
0.0922773
75.4751
0.0693422
75.5697
0.0463076
75.6622
0.0231885
75.7526
0
75.8408
-0.0232431
75.9268
-0.0465261
76.0106
-0.0698335
76.0921
-0.0931498
76.1712
-0.116461
76.248
-0.13975
76.3223
-0.163003
76.394
-0.186203
76.463
-0.209336
76.5292
-0.232385
76.5925
-0.255336
76.6527
-0.278171
76.7096
-0.300876
76.7632
-0.323435
76.8131
-0.345831
76.8593
-0.368048
76.9014
-0.390071
76.9393
-0.411884
76.9727
-0.433468
77.0012
-0.45481
77.0247
-0.475892
77.0426
-0.496697
77.0548
-0.517208
77.0608
-0.537409
77.0602
-0.557283
77.0525
-0.576811
77.0372
-0.595977
77.0137
-0.614762
76.9815
-0.633148
76.9399
-0.651117
76.8882
-0.668648
76.8256
-0.685723
76.7512
-0.702319
76.6633
-0.718421
76.5641
-0.733981
76.443
-0.749063
76.3227
-0.763387
76.1333
-0.77764
-0.789738
76.0698
68.3518
0.864796
-68.1369
68.5601
0.85122
68.7617
0.837035
68.957
0.822255
69.1462
0.806889
69.3297
0.790948
69.5077
0.774445
69.6805
0.757389
69.8482
0.739794
70.0112
0.721671
70.1697
0.703032
70.3238
0.683889
70.4738
0.664255
70.6199
0.644143
70.7623
0.623565
70.9011
0.602536
71.0365
0.581068
71.1687
0.559174
71.2977
0.53687
71.4238
0.514169
71.5471
0.491084
71.6678
0.467631
71.7858
0.443825
71.9014
0.419679
72.0146
0.395209
72.1256
0.370431
72.2344
0.345359
72.3411
0.320009
72.4458
0.294397
72.5486
0.268539
72.6494
0.24245
72.7484
0.216147
72.8457
0.189647
72.9411
0.162965
73.0349
0.136118
73.1269
0.109123
73.2172
0.0819964
73.3059
0.054756
73.3928
0.027418
73.4781
0
73.5616
-0.0274808
73.6434
-0.0550073
73.7234
-0.0825615
73.8016
-0.110127
73.8779
-0.137684
73.9523
-0.165217
74.0247
-0.192707
74.095
-0.220137
74.1631
-0.247489
74.2289
-0.274743
74.2923
-0.301884
74.3532
-0.328892
74.4115
-0.35575
74.4669
-0.382438
74.5194
-0.408939
74.5687
-0.435235
74.6147
-0.461307
74.6571
-0.487136
74.6958
-0.512704
74.7304
-0.537992
74.7608
-0.562981
74.7866
-0.587654
74.8075
-0.611989
74.8233
-0.635969
74.8334
-0.659575
74.8377
-0.682786
74.8355
-0.705582
74.8266
-0.727945
74.8103
-0.749853
74.7862
-0.771286
74.7536
-0.792222
74.7118
-0.812642
74.6604
-0.832519
74.5977
-0.851841
74.5254
-0.870553
74.4354
-0.88872
74.3471
-0.906061
74.1998
-0.923287
-0.938215
74.1611
66.6733
0.999733
-66.485
66.8559
0.983741
67.0329
0.96707
67.2044
0.949731
67.3707
0.931737
67.5322
0.913099
67.6889
0.89383
67.8412
0.873943
67.9892
0.853451
68.1332
0.832366
68.2733
0.810702
68.4098
0.788474
68.5427
0.765694
68.6724
0.742378
68.7989
0.718539
68.9225
0.694193
69.0432
0.669354
69.1612
0.644038
69.2766
0.618259
69.3895
0.592035
69.5002
0.565381
69.6086
0.538313
69.715
0.510847
69.8193
0.483
69.9218
0.454789
70.0224
0.426232
70.1212
0.397345
70.2184
0.368146
70.314
0.338652
70.408
0.308881
70.5006
0.278852
70.5917
0.248583
70.6814
0.21809
70.7697
0.187395
70.8567
0.156515
70.9424
0.125468
71.0267
0.094274
71.1098
0.0629518
71.1915
0.0315209
71.272
0
71.3511
-0.0315912
71.4288
-0.0632328
71.5052
-0.0949059
71.5802
-0.12659
71.6537
-0.158266
71.7257
-0.189914
71.7961
-0.221513
71.8648
-0.253045
71.9318
-0.284487
71.9971
-0.315822
72.0603
-0.347028
72.1216
-0.378084
72.1807
-0.408971
72.2376
-0.439669
72.292
-0.470156
72.3438
-0.500413
72.393
-0.530419
72.4392
-0.560153
72.4822
-0.589594
72.522
-0.618723
72.5582
-0.647517
72.5907
-0.675957
72.619
-0.704021
72.6431
-0.731688
72.6625
-0.758937
72.6769
-0.785746
72.686
-0.812095
72.6894
-0.83796
72.6867
-0.863322
72.6774
-0.888156
72.6611
-0.912441
72.6371
-0.936153
72.6051
-0.959268
72.5638
-0.98177
72.5146
-1.0036
72.4504
-1.02483
72.3884
-1.04518
72.2764
-1.06535
-1.08314
72.2588
65.0136
1.13184
-64.8492
65.1733
1.11342
65.328
1.09426
65.4782
1.07437
65.6239
1.05376
65.7655
1.03243
65.903
1.01042
66.0368
0.987725
66.167
0.964365
66.2938
0.940353
66.4173
0.915705
66.5377
0.890434
66.6553
0.864557
66.77
0.838089
66.8822
0.811046
66.9918
0.783445
67.0991
0.755301
67.2042
0.726631
67.3072
0.697452
67.4082
0.667782
67.5073
0.637639
67.6046
0.60704
67.7003
0.576003
67.7943
0.544546
67.8868
0.512688
67.9779
0.480448
68.0676
0.447846
68.1561
0.414899
68.2432
0.381628
68.3293
0.348053
68.4141
0.314193
68.4979
0.280067
68.5806
0.245698
68.6624
0.211104
68.7431
0.176307
68.8228
0.141327
68.9016
0.106185
68.9794
0.0709027
69.0562
0.0355005
69.1321
0
69.207
-0.0355775
69.2809
-0.0712105
69.3538
-0.106878
69.4256
-0.142557
69.4964
-0.178226
69.566
-0.213863
69.6344
-0.249448
69.7015
-0.284956
69.7673
-0.320367
69.8317
-0.355658
69.8947
-0.390807
69.956
-0.425791
70.0156
-0.460589
70.0735
-0.495178
70.1294
-0.529535
70.1832
-0.563639
70.2348
-0.597466
70.2841
-0.630994
70.3308
-0.664202
70.3748
-0.697065
70.416
-0.729562
70.454
-0.761669
70.4886
-0.793364
70.5197
-0.824626
70.5469
-0.855429
70.57
-0.885752
70.5887
-0.91557
70.6027
-0.944862
70.6115
-0.973604
70.6149
-1.00177
70.6124
-1.02934
70.6036
-1.05629
70.5881
-1.08259
70.5649
-1.10822
70.5351
-1.13314
70.4929
-1.1574
70.4529
-1.18071
70.3703
-1.20381
-1.22447
70.37
63.3753
1.26108
-63.2322
63.5142
1.24024
63.6491
1.2186
63.78
1.19616
63.9071
1.17294
64.0308
1.14896
64.151
1.12422
64.2681
1.09875
64.3822
1.07256
64.4934
1.04566
64.6019
1.01807
64.7078
0.989803
64.8113
0.960879
64.9125
0.931316
65.0116
0.901128
65.1087
0.870334
65.2038
0.838952
65.2971
0.806999
65.3888
0.774494
65.4788
0.741456
65.5674
0.707904
65.6545
0.673858
65.7404
0.639336
65.825
0.604359
65.9084
0.568947
65.9908
0.533121
66.0721
0.4969
66.1525
0.460307
66.2319
0.423361
66.3105
0.386085
66.3883
0.348501
66.4653
0.31063
66.5416
0.272493
66.6172
0.234113
66.692
0.195513
66.7662
0.156715
66.8398
0.117742
66.9127
0.0786163
66.9849
0.0393612
67.0565
0
67.1274
-0.0394442
67.1977
-0.0789482
67.2672
-0.118488
67.336
-0.158041
67.404
-0.197582
67.4713
-0.237089
67.5376
-0.276537
67.6031
-0.315902
67.6676
-0.35516
67.731
-0.394288
67.7934
-0.433262
67.8545
-0.472057
67.9144
-0.510648
67.9728
-0.549013
68.0298
-0.587127
68.0851
-0.624965
68.1387
-0.662504
68.1905
-0.699718
68.2402
-0.736585
68.2877
-0.773079
68.3329
-0.809177
68.3755
-0.844853
68.4155
-0.880084
68.4525
-0.914846
68.4863
-0.949114
68.5168
-0.982863
68.5436
-1.01607
68.5665
-1.04871
68.5852
-1.08075
68.5993
-1.11218
68.6086
-1.14297
68.6127
-1.17309
68.6112
-1.20251
68.6033
-1.23123
68.5901
-1.25918
68.5664
-1.28642
68.545
-1.31267
68.4872
-1.33865
-1.36216
68.5011
61.7601
1.38744
-61.6363
61.8805
1.36419
61.9974
1.34007
62.111
1.31511
62.2214
1.28931
62.3289
1.26269
62.4336
1.23526
62.5356
1.20705
62.6351
1.17806
62.7322
1.14831
62.8271
1.11782
62.9198
1.08661
63.0106
1.0547
63.0996
1.0221
63.1868
0.988826
63.2724
0.954905
63.3564
0.920352
63.439
0.885187
63.5203
0.849431
63.6004
0.813102
63.6793
0.776222
63.7572
0.738812
63.8341
0.700891
63.9101
0.662483
63.9852
0.623608
64.0595
0.584288
64.1331
0.544546
64.2061
0.504404
64.2784
0.463885
64.3502
0.423011
64.4215
0.381806
64.4922
0.340294
64.5625
0.298498
64.6324
0.256442
64.7018
0.21415
64.7709
0.171645
64.8395
0.128954
64.9078
0.086099
64.9757
0.043106
65.0432
0
65.1104
-0.0431944
65.1771
-0.0864525
65.2434
-0.129749
65.3093
-0.173057
65.3747
-0.216353
65.4396
-0.259611
65.5039
-0.302805
65.5676
-0.34591
65.6307
-0.3889
65.6931
-0.431749
65.7547
-0.474432
65.8154
-0.516923
65.8752
-0.559195
65.9339
-0.601224
65.9916
-0.642983
66.048
-0.684446
66.1031
-0.725588
66.1568
-0.766383
66.2089
-0.806804
66.2593
-0.846827
66.3078
-0.886425
66.3543
-0.925573
66.3986
-0.964244
66.4406
-1.00241
66.48
-1.04006
66.5166
-1.07714
66.5503
-1.11365
66.5808
-1.14956
66.6078
-1.18483
66.6311
-1.21945
66.6504
-1.25338
66.6654
-1.2866
66.6758
-1.31909
66.6809
-1.35082
66.6817
-1.38175
66.6737
-1.41192
66.668
-1.44106
66.6311
-1.46987
-1.49621
66.6568
60.1698
1.51089
-60.0632
60.2735
1.48525
60.3743
1.45868
60.4723
1.43121
60.5677
1.40286
60.6606
1.37363
60.7512
1.34355
60.8395
1.31263
60.9259
1.28089
61.0102
1.24834
61.0928
1.21501
61.1737
1.18091
61.2529
1.14606
61.3307
1.11048
61.4072
1.07419
61.4823
1.0372
61.5563
0.999547
61.6292
0.961242
61.7011
0.922308
61.772
0.882766
61.8422
0.842638
61.9116
0.801946
61.9802
0.760712
62.0483
0.71896
62.1158
0.676711
62.1828
0.633991
62.2493
0.590821
62.3155
0.547227
62.3813
0.503231
62.4467
0.45886
62.5119
0.414137
62.5769
0.369088
62.6417
0.323737
62.7062
0.27811
62.7706
0.232233
62.8348
0.186131
62.8989
0.139831
62.9629
0.0933582
63.0267
0.0467389
63.0904
0
63.154
-0.0468321
63.2174
-0.0937308
63.2806
-0.140669
63.3436
-0.18762
63.4065
-0.234557
63.469
-0.281452
63.5313
-0.328279
63.5933
-0.37501
63.6549
-0.421618
63.7161
-0.468076
63.7767
-0.514356
63.8369
-0.560431
63.8964
-0.606273
63.9552
-0.651856
64.0132
-0.697152
64.0704
-0.742134
64.1266
-0.786773
64.1817
-0.831044
64.2356
-0.874918
64.2883
-0.918369
64.3395
-0.961368
64.3892
-1.00389
64.4371
-1.04591
64.4832
-1.08739
64.5272
-1.12832
64.5691
-1.16866
64.6085
-1.20839
64.6454
-1.24747
64.6794
-1.28589
64.7105
-1.32362
64.7382
-1.36063
64.7624
-1.39688
64.7829
-1.43237
64.799
-1.46705
64.8116
-1.50089
64.8169
-1.53394
64.8244
-1.56592
64.8052
-1.59751
-1.62663
64.8407
58.6057
1.63146
-58.5146
58.6944
1.60344
58.7807
1.57445
58.8647
1.5445
58.9465
1.51362
59.0263
1.48183
59.1041
1.44913
59.1802
1.41555
59.2546
1.3811
59.3275
1.3458
59.3989
1.30967
59.469
1.27273
59.5378
1.235
59.6055
1.1965
59.6721
1.15725
59.7378
1.11727
59.8026
1.07658
59.8667
1.03521
59.93
0.993171
59.9927
0.950493
60.0548
0.907196
60.1164
0.863304
60.1776
0.818841
60.2384
0.773831
60.2989
0.728297
60.3592
0.682266
60.4192
0.635761
60.4791
0.588809
60.5389
0.541434
60.5985
0.493663
60.6582
0.445521
60.7178
0.397035
60.7774
0.348232
60.837
0.299138
60.8967
0.24978
60.9564
0.200186
61.0163
0.150384
61.0762
0.1004
61.1362
0.0502627
61.1962
0
61.2564
-0.0503602
61.3166
-0.10079
61.3769
-0.15126
61.4372
-0.201743
61.4975
-0.25221
61.5578
-0.302632
61.6181
-0.352981
61.6783
-0.403228
61.7383
-0.453344
61.7982
-0.503301
61.8579
-0.55307
61.9172
-0.602621
61.9763
-0.651927
62.0349
-0.700957
62.093
-0.749685
62.1506
-0.79808
62.2075
-0.846114
62.2637
-0.893759
62.3191
-0.940985
62.3735
-0.987764
62.4268
-1.03407
62.479
-1.07987
62.5299
-1.12514
62.5793
-1.16985
62.6272
-1.21397
62.6734
-1.25747
62.7176
-1.30033
62.7598
-1.34252
62.7998
-1.38401
62.8373
-1.42477
62.8722
-1.46477
62.9042
-1.50399
62.9332
-1.5424
62.9586
-1.57998
62.9811
-1.61667
62.9976
-1.65252
63.0163
-1.68728
63.012
-1.7216
-1.75346
63.0556
57.0689
1.74914
-56.9917
57.1441
1.71876
57.2174
1.68738
57.2887
1.65499
57.3583
1.62163
57.4263
1.5873
57.4927
1.55202
57.5577
1.51582
57.6214
1.47871
57.6838
1.44071
57.7451
1.40184
57.8054
1.36212
57.8648
1.32157
57.9233
1.28021
57.9811
1.23807
58.0382
1.19516
58.0947
1.1515
58.1506
1.10713
58.2061
1.06207
58.2613
1.01633
58.3161
0.969942
58.3706
0.922931
58.425
0.875321
58.4792
0.827138
58.5333
0.778407
58.5874
0.729153
58.6414
0.679404
58.6956
0.629185
58.7498
0.578524
58.8041
0.527448
58.8585
0.475984
58.9132
0.424159
58.968
0.372003
59.0231
0.319542
59.0784
0.266806
59.134
0.213823
59.1898
0.160622
59.2459
0.107231
59.3023
0.053681
59.359
0
59.4159
-0.0537821
59.4731
-0.107636
59.5305
-0.161532
59.5882
-0.215439
59.6461
-0.269329
59.7042
-0.323171
59.7624
-0.376935
59.8208
-0.430591
59.8793
-0.484109
59.9378
-0.537458
59.9963
-0.59061
60.0548
-0.643532
60.1132
-0.696196
60.1714
-0.748571
60.2294
-0.800627
60.2871
-0.852334
60.3445
-0.903662
60.4014
-0.954581
60.4577
-1.00506
60.5135
-1.05507
60.5685
-1.10459
60.6227
-1.15357
60.6759
-1.202
60.7281
-1.24984
60.7791
-1.29707
60.8288
-1.34365
60.877
-1.38956
60.9236
-1.43477
60.9685
-1.47924
61.0114
-1.52295
61.0523
-1.56588
61.0908
-1.60799
61.127
-1.64925
61.1602
-1.68965
61.1912
-1.72912
61.2171
-1.76772
61.2451
-1.80521
61.2534
-1.84218
-1.87673
61.3036
55.5603
1.86395
-55.4955
55.6234
1.83125
55.685
1.7975
55.745
1.76271
55.8036
1.72689
55.8609
1.69007
55.9169
1.65227
55.9719
1.61349
56.0259
1.57377
56.0789
1.53312
56.1311
1.49156
56.1826
1.44912
56.2334
1.40581
56.2836
1.36165
56.3333
1.31668
56.3826
1.27091
56.4315
1.22436
56.4802
1.17706
56.5286
1.12904
56.5768
1.08032
56.625
1.03092
56.6731
0.980869
56.7211
0.930194
56.7693
0.878921
56.8176
0.827077
56.866
0.774688
56.9146
0.721783
56.9634
0.668388
57.0125
0.614533
57.0618
0.560244
57.1116
0.505552
57.1616
0.450485
57.2121
0.395072
57.2629
0.339342
57.3141
0.283326
57.3658
0.227054
57.4179
0.170554
57.4704
0.113858
57.5234
0.0569968
57.5769
0
57.6307
-0.0571013
57.6851
-0.114276
57.7398
-0.171493
57.7949
-0.228722
57.8505
-0.285931
57.9064
-0.343089
57.9626
-0.400164
58.0192
-0.457125
58.0761
-0.513941
58.1332
-0.570581
58.1905
-0.627012
58.248
-0.683203
58.3056
-0.739124
58.3633
-0.794742
58.4209
-0.850026
58.4785
-0.904946
58.536
-0.959469
58.5933
-1.01357
58.6503
-1.0672
58.707
-1.12035
58.7632
-1.17298
58.8189
-1.22506
58.874
-1.27656
58.9283
-1.32745
58.9819
-1.37769
59.0344
-1.42726
59.0859
-1.47614
59.1362
-1.52428
59.1851
-1.57166
59.2325
-1.61825
59.2784
-1.66402
59.3224
-1.70894
59.3645
-1.75299
59.4042
-1.79613
59.4422
-1.83832
59.476
-1.87961
59.5119
-1.91974
59.5309
-1.95932
-1.9965
59.5865
54.0806
1.97591
-54.027
54.1329
1.94093
54.1839
1.90485
54.2337
1.86769
54.2824
1.82946
54.3301
1.7902
54.3768
1.7499
54.4228
1.70861
54.468
1.66632
54.5125
1.62307
54.5565
1.57888
54.6
1.53377
54.643
1.48776
54.6857
1.44088
54.7282
1.39314
54.7704
1.34457
54.8124
1.2952
54.8544
1.24505
54.8963
1.19414
54.9383
1.14251
54.9804
1.09017
55.0226
1.03716
55.065
0.983501
55.1076
0.92922
55.1505
0.874347
55.1937
0.818908
55.2372
0.762933
55.2812
0.706451
55.3256
0.64949
55.3704
0.59208
55.4157
0.534252
55.4616
0.476034
55.5079
0.417459
55.5548
0.358556
55.6023
0.299356
55.6503
0.23989
55.6989
0.18019
55.7481
0.120287
55.7979
0.0602133
55.8483
0
55.8993
-0.0603205
55.9508
-0.120716
56.003
-0.181155
56.0557
-0.241604
56.109
-0.302031
56.1627
-0.362403
56.217
-0.422689
56.2718
-0.482855
56.3271
-0.542869
56.3827
-0.602698
56.4388
-0.662309
56.4952
-0.72167
56.5519
-0.780749
56.6088
-0.839512
56.666
-0.897928
56.7233
-0.955963
56.7807
-1.01359
56.8381
-1.07077
56.8955
-1.12747
56.9527
-1.18366
57.0098
-1.23931
57.0666
-1.2944
57.1231
-1.34887
57.1791
-1.40272
57.2346
-1.45589
57.2894
-1.50837
57.3435
-1.56013
57.3967
-1.61112
57.449
-1.66133
57.5001
-1.71072
57.55
-1.75926
57.5985
-1.80692
57.6456
-1.85367
57.6908
-1.8995
57.7347
-1.94434
57.7751
-1.98823
57.8175
-2.03096
57.8455
-2.07306
-2.11282
57.9055
52.6303
2.08506
-52.5868
52.6729
2.04783
52.7144
2.00945
52.755
1.96996
52.7948
1.92938
52.8339
1.8877
52.8723
1.84497
52.9101
1.8012
52.9474
1.75641
52.9843
1.71062
53.0208
1.66385
53.0571
1.61613
53.0931
1.56748
53.129
1.51793
53.1648
1.46749
53.2006
1.41619
53.2364
1.36406
53.2723
1.31113
53.3084
1.25741
53.3447
1.20294
53.3812
1.14774
53.418
1.09185
53.4552
1.03528
53.4928
0.978075
53.5308
0.920253
53.5692
0.861848
53.6082
0.802888
53.6477
0.743403
53.6877
0.683424
53.7284
0.622982
53.7696
0.562107
53.8115
0.50083
53.8541
0.439184
53.8973
0.377199
53.9413
0.314909
53.9859
0.252344
54.0312
0.189538
54.0773
0.126524
54.1241
0.0633333
54.1716
0
54.2199
-0.063443
54.2688
-0.126962
54.3185
-0.190525
54.3689
-0.254097
54.4199
-0.317644
54.4716
-0.381134
54.524
-0.444532
54.577
-0.507805
54.6306
-0.570919
54.6848
-0.633841
54.7395
-0.696535
54.7947
-0.75897
54.8504
-0.82111
54.9066
-0.882924
54.963
-0.944376
55.0199
-1.00543
55.077
-1.06606
55.1343
-1.12623
55.1918
-1.18591
55.2494
-1.24505
55.307
-1.30364
55.3645
-1.36164
55.422
-1.41901
55.4793
-1.47572
55.5362
-1.53175
55.5928
-1.58705
55.649
-1.6416
55.7045
-1.69537
55.7595
-1.74832
55.8136
-1.80043
55.8668
-1.85166
55.9191
-1.90199
55.9702
-1.95138
56.0199
-1.99981
56.0686
-2.04723
56.1146
-2.09366
56.1624
-2.13892
56.1979
-2.18349
-2.22576
56.2614
51.2098
2.19142
-51.1753
51.2437
2.15197
51.2767
2.11135
51.3091
2.06958
51.3409
2.02667
51.3722
1.98264
51.4031
1.93752
51.4336
1.89133
51.4638
1.84408
51.4937
1.7958
51.5235
1.74652
51.5533
1.69625
51.583
1.64502
51.6127
1.59285
51.6425
1.53978
51.6725
1.48582
51.7027
1.431
51.7331
1.37535
51.7638
1.31889
51.7949
1.26166
51.8264
1.20368
51.8584
1.14497
51.8908
1.08558
51.9237
1.02552
51.9572
0.964833
51.9913
0.903542
52.026
0.841681
52.0614
0.779278
52.0975
0.716366
52.1343
0.652977
52.1718
0.589142
52.2101
0.524895
52.2491
0.460266
52.289
0.39529
52.3296
0.329999
52.3711
0.264427
52.4134
0.198607
52.4565
0.132574
52.5005
0.0663599
52.5453
0
52.591
-0.0664716
52.6374
-0.13302
52.6848
-0.199612
52.7329
-0.266212
52.7818
-0.332785
52.8315
-0.399298
52.882
-0.465714
52.9332
-0.531999
52.9852
-0.598119
53.0379
-0.664039
53.0912
-0.729723
53.1452
-0.795137
53.1999
-0.860246
53.255
-0.925017
53.3107
-0.989413
53.3669
-1.0534
53.4236
-1.11695
53.4806
-1.18001
53.538
-1.24257
53.5956
-1.30458
53.6535
-1.36602
53.7115
-1.42684
53.7696
-1.48702
53.8277
-1.54652
53.8858
-1.60531
53.9437
-1.66335
54.0014
-1.72062
54.0588
-1.77709
54.1158
-1.83271
54.1723
-1.88746
54.2282
-1.94131
54.2835
-1.99422
54.3379
-2.04618
54.3913
-2.09714
54.444
-2.14706
54.4945
-2.19598
54.5468
-2.24369
54.5885
-2.29066
-2.33537
54.6548
49.8195
2.29503
-49.793
49.8455
2.25341
49.8709
2.21059
49.8959
2.16657
49.9205
2.12139
49.9448
2.07505
49.9689
2.02759
49.9928
1.97903
50.0166
1.92938
50.0404
1.87867
50.0641
1.82692
50.088
1.77416
50.112
1.72041
50.1361
1.6657
50.1606
1.61005
50.1853
1.55349
50.2103
1.49605
50.2358
1.43776
50.2617
1.37863
50.288
1.31871
50.3149
1.25801
50.3424
1.19658
50.3705
1.13443
50.3992
1.0716
50.4286
1.00812
50.4587
0.944026
50.4896
0.879343
50.5212
0.814104
50.5536
0.748342
50.5868
0.68209
50.6209
0.615381
50.6558
0.548248
50.6916
0.480724
50.7283
0.412844
50.766
0.344641
50.8045
0.27615
50.8439
0.207406
50.8843
0.138443
50.9256
0.0692957
50.9679
0
51.011
-0.0694091
51.0552
-0.138896
51.1002
-0.208425
51.1462
-0.277962
51.193
-0.347469
51.2408
-0.416912
51.2895
-0.486254
51.339
-0.55546
51.3893
-0.624494
51.4405
-0.69332
51.4924
-0.761902
51.5452
-0.830205
51.5986
-0.898193
51.6528
-0.96583
51.7076
-1.03308
51.763
-1.09991
51.8191
-1.16628
51.8756
-1.23216
51.9327
-1.29752
51.9902
-1.36231
52.048
-1.42651
52.1062
-1.49007
52.1647
-1.55297
52.2233
-1.61518
52.2821
-1.67665
52.341
-1.73735
52.3999
-1.79726
52.4586
-1.85634
52.5172
-1.91455
52.5756
-1.97187
52.6336
-2.02826
52.6912
-2.08369
52.7483
-2.13814
52.8046
-2.19156
52.8606
-2.24392
52.9147
-2.29525
52.9706
-2.34534
53.0176
-2.39465
-2.44174
53.086
48.4593
2.39594
-48.4401
48.4783
2.35219
48.4969
2.3072
48.5153
2.26099
48.5335
2.21358
48.5516
2.16498
48.5695
2.11523
48.5875
2.06435
48.6056
2.01235
48.6237
1.95926
48.642
1.90511
48.6606
1.84992
48.6794
1.79371
48.6985
1.73652
48.7181
1.67836
48.738
1.61927
48.7584
1.55927
48.7794
1.4984
48.8009
1.43667
48.823
1.37413
48.8457
1.31079
48.8691
1.2467
48.8933
1.18187
48.9181
1.11635
48.9438
1.05016
48.9702
0.983332
48.9975
0.915906
49.0257
0.847911
49.0548
0.77938
49.0847
0.710347
49.1156
0.640846
49.1474
0.57091
49.1802
0.500576
49.214
0.429876
49.2488
0.358847
49.2845
0.287523
49.3213
0.215941
49.3591
0.144136
49.3979
0.0721433
49.4378
0
49.4786
-0.0722581
49.5205
-0.144595
49.5634
-0.216973
49.6073
-0.289357
49.6522
-0.361709
49.6981
-0.433993
49.7449
-0.506172
49.7927
-0.57821
49.8415
-0.650069
49.8911
-0.721713
49.9417
-0.793105
49.9931
-0.864208
50.0453
-0.934986
50.0984
-1.0054
50.1522
-1.07542
50.2068
-1.14501
50.2621
-1.21412
50.3181
-1.28273
50.3746
-1.35079
50.4318
-1.41828
50.4894
-1.48515
50.5476
-1.55138
50.6061
-1.61692
50.665
-1.68175
50.7243
-1.74582
50.7837
-1.80911
50.8434
-1.87158
50.9031
-1.93319
50.9629
-1.99392
51.0226
-2.05373
51.0823
-2.11259
51.1417
-2.17047
51.2008
-2.22733
51.2595
-2.28315
51.318
-2.33788
51.3751
-2.39154
51.434
-2.44395
51.4852
-2.49553
-2.54494
51.5551
47.1294
2.49418
-47.1166
47.1422
2.44835
47.1547
2.40124
47.1672
2.35288
47.1796
2.30328
47.192
2.25248
47.2045
2.20049
47.2172
2.14734
47.2301
2.09305
47.2432
2.03764
47.2566
1.98114
47.2704
1.92358
47.2845
1.86497
47.2992
1.80535
47.3143
1.74475
47.3299
1.68319
47.3462
1.62071
47.363
1.55732
47.3805
1.49306
47.3987
1.42796
47.4177
1.36206
47.4374
1.29537
47.458
1.22794
47.4793
1.1598
47.5016
1.09097
47.5247
1.02149
47.5487
0.951402
47.5737
0.880728
47.5997
0.809507
47.6266
0.737772
47.6546
0.665559
47.6835
0.592903
47.7136
0.519839
47.7446
0.446402
47.7768
0.37263
47.81
0.298558
47.8442
0.224221
47.8796
0.149659
47.9161
0.0749058
47.9536
0
47.9923
-0.0750216
48.032
-0.150122
48.0729
-0.225263
48.1148
-0.300408
48.1578
-0.375518
48.2018
-0.450557
48.2469
-0.525487
48.293
-0.60027
48.3402
-0.674868
48.3883
-0.749244
48.4375
-0.82336
48.4876
-0.897178
48.5386
-0.970661
48.5905
-1.04377
48.6433
-1.11647
48.6969
-1.18873
48.7514
-1.2605
48.8066
-1.33175
48.8625
-1.40245
48.9192
-1.47255
48.9764
-1.54202
49.0343
-1.61082
49.0928
-1.67893
49.1517
-1.7463
49.2111
-1.8129
49.2708
-1.87869
49.331
-1.94364
49.3913
-2.00772
49.4519
-2.07089
49.5126
-2.13312
49.5734
-2.19437
49.6342
-2.25462
49.6949
-2.31383
49.7554
-2.37197
49.8159
-2.429
49.8754
-2.48493
49.9365
-2.5396
49.9912
-2.59338
-2.64504
50.0622
45.8298
2.5898
-45.8227
45.8369
2.54193
45.844
2.49274
45.8512
2.44228
45.8584
2.39056
45.8659
2.3376
45.8735
2.28342
45.8814
2.22805
45.8896
2.17152
45.8982
2.11385
45.9072
2.05506
45.9167
1.99518
45.9267
1.93423
45.9372
1.87226
45.9484
1.80927
45.9601
1.74531
45.9726
1.68039
45.9858
1.61456
45.9997
1.54784
46.0144
1.48026
46.0299
1.41185
46.0463
1.34265
46.0635
1.27268
46.0817
1.20199
46.1008
1.13059
46.1209
1.05854
46.1419
0.985858
46.164
0.912583
46.1871
0.838748
46.2113
0.764389
46.2365
0.689543
46.2629
0.614244
46.2903
0.538531
46.3189
0.462438
46.3485
0.386003
46.3794
0.309262
46.4113
0.232255
46.4444
0.155016
46.4787
0.0775855
46.5141
0
46.5506
-0.077702
46.5884
-0.155483
46.6272
-0.233303
46.6672
-0.311125
46.7084
-0.388911
46.7507
-0.466621
46.7941
-0.544218
46.8386
-0.621662
46.8841
-0.698915
46.9308
-0.775939
46.9785
-0.852696
47.0273
-0.929146
47.077
-1.00525
47.1277
-1.08097
47.1794
-1.15628
47.232
-1.23112
47.2855
-1.30547
47.3399
-1.37928
47.3951
-1.45253
47.4511
-1.52516
47.5079
-1.59715
47.5653
-1.66846
47.6234
-1.73905
47.6822
-1.80888
47.7415
-1.87793
47.8013
-1.94615
47.8616
-2.01351
47.9223
-2.07998
47.9834
-2.14551
48.0447
-2.21009
48.1063
-2.27367
48.1681
-2.33622
48.2299
-2.3977
48.2918
-2.4581
48.3537
-2.51736
48.415
-2.5755
48.4778
-2.63235
48.5353
-2.68827
-2.74211
48.607
44.5603
2.68286
-44.5584
44.5624
2.63298
44.5647
2.58177
44.5671
2.52925
44.5697
2.47545
44.5727
2.42038
44.5759
2.36406
44.5796
2.30654
44.5837
2.24782
44.5882
2.18793
44.5933
2.12691
44.5989
2.06477
44.6051
2.00155
44.612
1.93727
44.6195
1.87196
44.6278
1.80565
44.6368
1.73838
44.6467
1.67016
44.6573
1.60104
44.6688
1.53104
44.6812
1.4602
44.6946
1.38855
44.7089
1.31612
44.7241
1.24295
44.7404
1.16906
44.7577
1.09451
44.776
1.01931
44.7954
0.943502
44.8159
0.867128
44.8376
0.790221
44.8603
0.712818
44.8842
0.634954
44.9092
0.556668
44.9355
0.477996
44.9629
0.398977
44.9914
0.319648
45.0212
0.240047
45.0522
0.160213
45.0844
0.0801847
45.1178
0
45.1523
-0.0803018
45.1881
-0.160682
45.2251
-0.241101
45.2633
-0.321519
45.3027
-0.401898
45.3433
-0.482198