/*--------------------------------*- C++ -*----------------------------------*\
| =========                 |                                                 |
| \\      /  F ield         | OpenFOAM: The Open Source CFD Toolbox           |
|  \\    /   O peration     | Version:  2312                                  |
|   \\  /    A nd           | Website:  www.openfoam.com                      |
|    \\/     M anipulation  |                                                 |
\*---------------------------------------------------------------------------*/
FoamFile
{
    version     2.0;
    format      ascii;
    arch        "LSB;label=32;scalar=64";
    class       surfaceScalarField;
    location    "0.585";
    object      phi;
}
// * * * * * * * * * * * * * * * * * * * * * * * * * * * * * * * * * * * * * //

dimensions      [0 3 -1 0 0 0 0];

oriented        oriented;

internalField   nonuniform List<scalar> 
62015
(
86.8358
0.169404
-86.7423
86.9199
0.166405
86.9947
0.163299
87.0607
0.160089
87.118
0.156777
87.1671
0.153365
87.2081
0.149857
87.2414
0.146254
87.267
0.142561
87.2854
0.13878
87.2966
0.134913
87.3008
0.130963
87.2983
0.126934
87.289
0.122828
87.2733
0.118648
87.2512
0.114398
87.2227
0.110081
87.188
0.105699
87.1472
0.101256
87.1002
0.0967558
87.0472
0.0922009
86.9881
0.0875944
86.923
0.0829403
86.8517
0.0782419
86.7744
0.0735023
86.6909
0.0687256
86.6011
0.0639147
86.505
0.0590739
86.4024
0.0542064
86.2932
0.0493159
86.1772
0.044406
86.0543
0.039481
85.9242
0.0345447
85.7866
0.0296002
85.6414
0.0246526
85.4881
0.0197047
85.3264
0.0147615
85.156
0.00982703
84.9764
0.00490477
84.7871
0
84.5877
-0.00488337
84.3774
-0.00974133
84.1557
-0.0145683
83.9218
-0.0193603
83.6749
-0.0241128
83.4142
-0.0288198
83.1386
-0.0334774
82.8469
-0.0380791
82.538
-0.0426203
82.2102
-0.0470951
81.8621
-0.051497
81.4917
-0.0558198
81.0969
-0.0600565
80.6752
-0.0642004
80.2234
-0.0682426
79.7375
-0.0721749
79.2137
-0.0759864
78.6512
-0.0796669
78.0439
-0.0832085
77.3553
-0.0865971
76.543
-0.0897816
75.7257
-0.0926949
75.2473
-0.0954723
74.7941
-0.0985866
71.732
-0.101666
62.7754
-0.10089
49.9305
-0.0909352
39.527
-0.0742558
34.2698
-0.0605471
32.4056
-0.0542198
31.9441
-0.0528301
31.9669
-0.0535028
32.1547
-0.0548982
32.4047
-0.056541
32.6811
-0.0582776
32.977
-0.0600448
33.2707
-0.0618528
33.6118
-0.0636003
-0.0655726
33.8403
84.4846
0.33475
-84.4141
84.5469
0.328749
84.6012
0.322542
84.6478
0.316136
84.6869
0.309534
84.7187
0.302741
84.7436
0.295763
84.7616
0.288605
84.7731
0.281272
84.7782
0.273769
84.7771
0.266103
84.7699
0.258277
84.7568
0.250299
84.7379
0.242174
84.7133
0.233907
84.6831
0.225505
84.6474
0.216973
84.6063
0.208317
84.5598
0.199544
84.5079
0.19066
84.4508
0.181671
84.3884
0.172584
84.3207
0.163405
84.2476
0.15414
84.1693
0.144797
84.0855
0.135382
83.9963
0.125901
83.9015
0.116363
83.801
0.106773
83.6947
0.0971392
83.5826
0.0874681
83.4642
0.0777675
83.3396
0.0680443
83.2085
0.0583069
83.0706
0.0485617
82.9256
0.0388171
82.7733
0.0290805
82.6132
0.01936
82.4451
0.00966386
82.2684
0
82.0828
-0.00962323
81.8877
-0.0191973
81.6825
-0.0287139
81.4666
-0.0381637
81.2393
-0.0475377
80.9999
-0.0568267
80.7473
-0.0660206
80.4808
-0.0751106
80.1991
-0.0840853
79.9011
-0.0929346
79.5854
-0.101647
79.2504
-0.110211
78.8942
-0.118613
78.5149
-0.126841
78.1101
-0.13488
77.6767
-0.142715
77.2107
-0.150329
76.7089
-0.157699
76.1711
-0.164808
75.5896
-0.171641
74.926
-0.178167
74.1442
-0.184272
73.3841
-0.189835
72.9848
-0.195203
72.5195
-0.201365
69.2277
-0.207202
60.0832
-0.204272
47.5499
-0.182225
37.7957
-0.147835
33.0252
-0.120941
31.3755
-0.109042
30.9838
-0.106613
31.022
-0.108032
31.207
-0.110782
31.4458
-0.113989
31.7133
-0.117349
31.983
-0.120817
32.2986
-0.124185
-0.127977
32.5133
82.1876
0.496071
-82.138
82.2302
0.487072
82.2659
0.477778
82.2948
0.468196
82.3173
0.458333
82.3335
0.448195
82.3436
0.43779
82.3478
0.427126
82.3464
0.41621
82.3394
0.40505
82.327
0.393653
82.3094
0.382027
82.2866
0.370181
82.2588
0.358123
82.226
0.34586
82.1884
0.333403
82.1461
0.320758
82.099
0.307935
82.0473
0.294943
81.9909
0.281791
81.93
0.268487
81.8645
0.255041
81.7943
0.241463
81.7196
0.227761
81.6402
0.213946
81.5561
0.200027
81.4673
0.186014
81.3736
0.171916
81.2749
0.157745
81.1712
0.143511
81.0624
0.129222
80.9481
0.114891
80.8284
0.100528
80.7029
0.086143
80.5716
0.071747
80.434
0.0573517
80.2899
0.0429681
80.1391
0.0286069
79.9812
0.0142804
79.8158
0
79.6425
-0.0142224
79.4609
-0.0283746
79.2704
-0.0424448
79.0705
-0.0564193
78.8606
-0.0702859
78.64
-0.0840317
78.408
-0.0976423
78.1637
-0.111104
77.9061
-0.124403
77.6343
-0.137524
77.3471
-0.150451
77.043
-0.163167
76.7207
-0.175656
76.3783
-0.1879
76.014
-0.199879
75.6254
-0.211571
75.2097
-0.222955
74.7628
-0.234005
74.2823
-0.244691
73.7679
-0.254983
73.2108
-0.264866
72.5709
-0.274285
71.8195
-0.283057
71.1166
-0.291022
70.7892
-0.298821
70.288
-0.307966
66.742
-0.31613
57.4262
-0.309516
45.2431
-0.273384
36.1419
-0.220628
31.8355
-0.181219
30.3839
-0.164436
30.0551
-0.16125
30.1072
-0.163458
30.2876
-0.167518
30.5202
-0.172184
30.7645
-0.177132
31.0543
-0.181987
-0.187447
31.2548
79.9381
0.65337
-79.9069
79.9632
0.641389
79.9823
0.62903
79.9956
0.616301
80.0033
0.603212
80.0056
0.589773
80.0026
0.57599
79.9946
0.561875
79.9817
0.547437
79.9639
0.532686
79.9416
0.517631
79.9147
0.502283
79.8833
0.486652
79.8476
0.470749
79.8077
0.454584
79.7636
0.438168
79.7154
0.421512
79.6631
0.404628
79.6068
0.387527
79.5465
0.370219
79.4823
0.352718
79.4141
0.335034
79.3419
0.317179
79.2657
0.299167
79.1856
0.281009
79.1013
0.262718
79.013
0.244305
78.9204
0.225785
78.8236
0.20717
78.7223
0.188473
78.6166
0.169707
78.5062
0.150887
78.391
0.132024
78.2708
0.113134
78.1454
0.0942297
78.0146
0.0753258
77.8782
0.056436
77.7359
0.0375755
77.5873
0.0187585
77.4322
0
77.2701
-0.0186848
77.1007
-0.0372805
76.9236
-0.0557714
76.7382
-0.0741411
76.544
-0.0923747
76.3405
-0.110454
76.1269
-0.128362
75.9026
-0.146082
75.6667
-0.163596
75.4183
-0.180885
75.1564
-0.197929
74.88
-0.214708
74.5877
-0.231201
74.2781
-0.247386
73.9495
-0.26324
73.6
-0.278737
73.2276
-0.293849
72.8292
-0.308549
72.4013
-0.322802
71.9416
-0.336568
71.4503
-0.349814
70.917
-0.362517
70.3005
-0.374599
69.5802
-0.385801
68.9337
-0.395946
68.6708
-0.406037
68.1269
-0.418076
64.355
-0.428114
54.9356
-0.416531
43.1284
-0.364948
34.628
-0.293504
30.7229
-0.241939
29.4366
-0.220563
29.1594
-0.2167
29.2202
-0.219676
29.3994
-0.224945
29.6124
-0.231061
29.8754
-0.237226
-0.244196
30.0609
77.7339
0.806651
-77.7189
77.7436
0.791712
77.7482
0.776319
77.7477
0.760482
77.7425
0.744211
77.7326
0.727517
77.7182
0.710412
77.6994
0.692906
77.6764
0.675012
77.6493
0.65674
77.6182
0.638104
77.5833
0.619113
77.5445
0.599783
77.502
0.580124
77.4558
0.56015
77.4061
0.539874
77.3529
0.519309
77.2962
0.498469
77.236
0.477367
77.1724
0.456017
77.1055
0.434433
77.0351
0.41263
76.9613
0.390621
76.8842
0.368422
76.8035
0.346047
76.7194
0.323511
76.6317
0.30083
76.5405
0.278019
76.4455
0.255094
76.3467
0.232069
76.2441
0.208962
76.1374
0.185788
76.0265
0.162564
75.9114
0.139306
75.7917
0.116031
75.6673
0.0927559
75.538
0.0694981
75.4036
0.0462742
75.2637
0.0231021
75.1181
0
74.9664
-0.0230142
74.8084
-0.0459225
74.6435
-0.0687058
74.4714
-0.0913448
74.2917
-0.113821
74.1037
-0.136114
73.907
-0.158204
73.7008
-0.18007
73.4846
-0.201691
73.2575
-0.223045
73.0186
-0.244109
72.767
-0.26486
72.5017
-0.285273
72.2214
-0.305323
71.9247
-0.324984
71.61
-0.344225
71.2756
-0.363017
70.9194
-0.381328
70.5386
-0.399121
70.1298
-0.416355
69.6911
-0.432983
69.2228
-0.448965
68.7137
-0.464276
68.122
-0.47881
67.4339
-0.49223
66.8385
-0.504359
66.6287
-0.516592
66.0602
-0.531393
62.163
-0.543005
52.7634
-0.525914
41.3291
-0.458429
33.3116
-0.36799
29.7052
-0.303911
28.5376
-0.277651
28.2942
-0.272948
28.3627
-0.276542
28.5269
-0.283018
28.758
-0.29016
-0.298433
28.9267
75.5749
0.955932
-75.5741
75.5712
0.938069
75.5631
0.91968
75.5507
0.900777
75.5341
0.881373
75.5136
0.861481
75.4892
0.841111
75.4611
0.820279
75.4294
0.798997
75.3942
0.777279
75.3556
0.755138
75.3136
0.732588
75.2684
0.709644
75.2201
0.68632
75.1687
0.662631
75.1142
0.638594
75.0567
0.61422
74.9963
0.589529
74.933
0.564534
74.8667
0.539253
74.7976
0.513701
74.7256
0.487894
74.6507
0.46185
74.5728
0.435585
74.4921
0.409117
74.4084
0.382462
74.3216
0.35564
74.2318
0.328667
74.1388
0.30156
74.0426
0.27434
73.943
0.247023
73.84
0.219629
73.7333
0.192177
73.623
0.164685
73.5088
0.137173
73.3905
0.109659
73.2679
0.0821657
73.1409
0.0547112
73.0092
0.0273156
72.8725
0
72.7305
-0.0272151
72.583
-0.0543087
72.4295
-0.0812591
72.2697
-0.108045
72.1033
-0.134644
71.9296
-0.161034
71.7484
-0.187191
71.5589
-0.213093
71.3606
-0.238715
71.1528
-0.264032
70.9349
-0.28902
70.7059
-0.313652
70.4649
-0.3379
70.211
-0.361737
69.9429
-0.385132
69.6594
-0.408055
69.3589
-0.430471
69.0398
-0.452347
68.7001
-0.473644
68.3372
-0.49432
67.9477
-0.514328
67.5302
-0.533612
67.0851
-0.552129
66.6006
-0.569849
66.0357
-0.586644
65.3804
-0.602099
64.8278
-0.616039
64.659
-0.630232
64.102
-0.647611
60.2171
-0.660784
50.9734
-0.638591
39.8808
-0.555681
32.2005
-0.445798
28.7823
-0.368003
27.6841
-0.335959
27.4619
-0.329943
27.5216
-0.334061
27.7038
-0.341247
-0.350421
27.8513
73.4617
1.10124
-73.4733
73.4463
1.0805
73.4271
1.05915
73.4043
1.03724
73.3779
1.01475
73.3482
0.991719
73.3152
0.968149
73.279
0.944058
73.2398
0.91946
73.1976
0.89437
73.1525
0.868804
73.1046
0.842778
73.054
0.816308
73.0007
0.78941
72.9448
0.762102
72.8863
0.734399
72.8253
0.706319
72.7619
0.677881
72.6959
0.6491
72.6276
0.619996
72.5568
0.590587
72.4836
0.560892
72.408
0.530929
72.3299
0.500718
72.2493
0.470276
72.1663
0.439626
72.0806
0.408785
71.9924
0.377774
71.9015
0.346614
71.8079
0.315325
71.7114
0.283927
71.6119
0.252442
71.5094
0.22089
71.4038
0.189293
71.2948
0.157674
71.1823
0.126052
71.0661
0.0944518
70.9461
0.0628944
70.822
0.031403
70.6936
0
70.5607
-0.0312911
70.423
-0.0624465
70.2801
-0.093443
70.1317
-0.124256
69.9776
-0.154861
69.8172
-0.185233
69.6501
-0.215346
69.4759
-0.245177
69.2941
-0.274695
69.104
-0.303876
68.9051
-0.332692
68.6966
-0.361113
68.4777
-0.38911
68.2476
-0.416653
68.0053
-0.443709
67.7498
-0.470246
67.4797
-0.496227
67.1936
-0.521616
66.89
-0.546373
66.567
-0.570456
66.2221
-0.593817
65.8522
-0.616404
65.456
-0.638152
65.034
-0.659016
64.575
-0.678964
64.0388
-0.697847
63.4164
-0.715184
62.8967
-0.730776
62.7571
-0.746706
62.2556
-0.766435
58.5317
-0.781458
49.578
-0.755552
38.7832
-0.658657
31.2891
-0.528782
27.9488
-0.435224
26.8774
-0.395756
26.6507
-0.387816
26.7277
-0.391755
-0.400666
26.8395
71.3947
1.24263
-71.417
71.3692
1.21904
71.3404
1.19479
71.3086
1.16991
71.2738
1.14441
71.2361
1.1183
71.1956
1.09159
71.1525
1.06431
71.1068
1.03647
71.0586
1.00809
71.008
0.979176
70.9551
0.949758
70.8999
0.91985
70.8424
0.889469
70.7828
0.858634
70.721
0.827364
70.6572
0.795677
70.5913
0.763594
70.5233
0.731133
70.4534
0.698315
70.3814
0.66516
70.3074
0.631687
70.2314
0.59792
70.1534
0.563877
70.0733
0.529581
69.9911
0.495053
69.9068
0.460315
69.8203
0.425389
69.7316
0.390298
69.6405
0.355063
69.5471
0.319709
69.4512
0.284257
69.3527
0.248731
69.2516
0.213156
69.1476
0.177554
69.0406
0.14195
68.9305
0.106367
68.8171
0.0708316
68.7003
0.0353674
68.5797
0
68.4552
-0.0352454
68.3266
-0.0703432
68.1936
-0.105267
68.0558
-0.139991
67.913
-0.174488
67.7648
-0.208731
67.6108
-0.242693
67.4507
-0.276344
67.2839
-0.309657
67.11
-0.342603
66.9284
-0.375151
66.7386
-0.40727
66.5398
-0.438931
66.3313
-0.470098
66.1123
-0.50074
65.8818
-0.530821
65.6389
-0.560303
65.3823
-0.589148
65.1108
-0.617317
64.8228
-0.644763
64.5166
-0.671442
64.1899
-0.697302
63.8397
-0.722283
63.4648
-0.746318
63.066
-0.769354
62.633
-0.791362
62.1275
-0.81218
61.5377
-0.83127
61.0409
-0.848374
60.918
-0.865781
60.5127
-0.88757
57.0949
-0.904969
48.5657
-0.877656
38.0299
-0.769295
30.5736
-0.619058
27.2065
-0.506804
26.1075
-0.457631
25.8872
-0.446235
-0.450647
25.9153
69.3744
1.38013
-69.4059
69.3401
1.35375
69.3031
1.32666
69.2635
1.29887
69.2213
1.2704
69.1768
1.24128
69.13
1.21151
69.081
1.18111
69.0298
1.1501
68.9765
1.1185
68.9213
1.08633
68.8641
1.0536
68.805
1.02034
68.7441
0.986571
68.6814
0.952303
68.617
0.917562
68.5508
0.882367
68.483
0.84674
68.4135
0.810702
68.3424
0.774275
68.2696
0.737481
68.1952
0.700342
68.1191
0.662881
68.0414
0.625121
67.962
0.587085
67.8809
0.548796
67.7981
0.510278
67.7135
0.471555
67.627
0.432652
67.5386
0.393593
67.4482
0.354402
67.3558
0.315106
67.2612
0.275728
67.1644
0.236295
67.0652
0.196832
66.9635
0.157367
66.8591
0.117924
66.752
0.0785304
66.6419
0.0392134
66.5287
0
66.4122
-0.0390824
66.292
-0.0780062
66.1681
-0.116743
66.0402
-0.155265
65.9079
-0.193543
65.771
-0.231548
65.6291
-0.26925
65.4819
-0.30662
65.3289
-0.343626
65.1698
-0.380239
65.0041
-0.416425
64.8312
-0.452154
64.6506
-0.487391
64.4616
-0.522101
64.2636
-0.556251
64.0558
-0.589803
63.8373
-0.622719
63.6071
-0.65496
63.3642
-0.686484
63.1072
-0.717247
62.8349
-0.747201
62.5456
-0.776297
62.237
-0.80448
61.9065
-0.831686
61.5528
-0.85784
61.177
-0.882887
60.7703
-0.906798
60.297
-0.929413
59.7401
-0.950153
59.2574
-0.968656
59.137
-0.987257
58.8563
-1.01072
55.8737
-1.0311
47.9122
-1.00542
37.6195
-0.889423
30.0654
-0.719033
26.5524
-0.584632
25.3945
-0.521945
-0.505907
25.1711
67.4009
1.51382
-67.4404
67.359
1.48469
67.3149
1.45481
67.2686
1.42417
67.2203
1.39281
67.17
1.36073
67.1177
1.32796
67.0636
1.29452
67.0078
1.26042
66.9503
1.22569
66.8911
1.19033
66.8304
1.15439
66.7681
1.11786
66.7044
1.08079
66.6393
1.04318
66.5727
1.00506
66.5048
0.966458
66.4355
0.927388
66.3649
0.887875
66.293
0.847943
66.2198
0.807616
66.1453
0.766918
66.0694
0.725873
65.9923
0.684505
65.9138
0.642841
65.8339
0.600904
65.7527
0.55872
65.67
0.516316
65.5858
0.473717
65.5001
0.430949
65.4127
0.38804
65.3237
0.345016
65.2329
0.301904
65.1403
0.258732
65.0456
0.215527
64.949
0.172318
64.8501
0.129132
64.7489
0.0859975
64.6452
0.0429438
64.5388
0
64.4297
-0.0428049
64.3175
-0.0854417
64.2021
-0.12788
64.0832
-0.170089
63.9607
-0.21204
63.8342
-0.253701
63.7034
-0.29504
63.568
-0.336027
63.4278
-0.376628
63.2822
-0.416812
63.131
-0.456544
62.9736
-0.495791
62.8095
-0.534518
62.6383
-0.572689
62.4593
-0.610269
62.2719
-0.647219
62.0753
-0.6835
61.8687
-0.719072
61.6513
-0.753893
61.422
-0.787918
61.1796
-0.8211
60.9229
-0.85339
60.6503
-0.884733
60.3599
-0.915074
60.049
-0.944344
59.7164
-0.972464
59.3631
-0.999372
58.9828
-1.02504
58.5428
-1.04933
58.0197
-1.07164
57.5448
-1.09145
57.4105
-1.11097
57.2626
-1.13563
54.8187
-1.15942
47.5804
-1.13887
37.5612
-1.02046
29.782
-0.831623
25.9953
-0.671094
-0.587771
24.9594
65.4742
1.64374
-65.5207
65.4259
1.61193
65.3758
1.57931
65.3238
1.54589
65.2702
1.51169
65.2149
1.47674
65.158
1.44104
65.0997
1.40463
65.04
1.36751
64.9789
1.32972
64.9166
1.29127
64.853
1.25218
64.7881
1.21249
64.7221
1.1722
64.655
1.13134
64.5868
1.08994
64.5176
1.04802
64.4473
1.00561
64.3759
0.962718
64.3036
0.919383
64.2303
0.875626
64.1559
0.831474
64.0806
0.786951
64.0042
0.742084
63.9268
0.6969
63.8483
0.651425
63.7687
0.605687
63.688
0.559714
63.6062
0.513531
63.5231
0.467169
63.4387
0.420655
63.353
0.374018
63.2659
0.327286
63.1773
0.280489
63.0871
0.233656
62.9952
0.186817
62.9014
0.140002
62.8058
0.0932403
62.7081
0.0465627
62.6082
0
62.506
-0.0464168
62.4012
-0.0926567
62.2937
-0.138687
62.1833
-0.184478
62.0698
-0.229996
61.9529
-0.275209
61.8323
-0.320085
61.7079
-0.364588
61.5793
-0.408687
61.4461
-0.452347
61.3081
-0.495533
61.1648
-0.53821
61.0158
-0.580342
60.8607
-0.621892
60.6989
-0.662823
60.5299
-0.703096
60.353
-0.742671
60.1677
-0.781507
59.9731
-0.819563
59.7684
-0.856792
59.5526
-0.893149
59.3247
-0.928585
59.0834
-0.963046
58.8274
-0.996478
58.555
-1.02882
58.2635
-1.06001
57.9517
-1.08995
57.6206
-1.11858
57.2661
-1.14588
56.86
-1.17172
56.3725
-1.19552
55.9028
-1.21661
55.7375
-1.23682
55.7068
-1.26206
53.8646
-1.28932
47.518
-1.27732
37.8693
-1.16305
29.6773
-0.961388
-0.756569
26.4886
63.5943
1.76997
-63.6466
63.5406
1.73553
63.4852
1.70024
63.4285
1.6641
63.3703
1.62713
63.3109
1.58936
63.2503
1.55081
63.1884
1.5115
63.1255
1.47145
63.0615
1.43068
62.9965
1.38921
62.9306
1.34707
62.8637
1.30428
62.796
1.26087
62.7274
1.21686
62.658
1.17227
62.5878
1.12713
62.5168
1.08146
62.4451
1.0353
62.3726
0.988658
62.2994
0.941573
62.2255
0.894068
62.1508
0.846172
62.0753
0.79791
61.9992
0.749313
61.9222
0.700408
61.8444
0.651223
61.7657
0.601789
61.6862
0.552133
61.6058
0.502286
61.5243
0.452278
61.4419
0.402138
61.3583
0.351898
61.2736
0.301587
61.1876
0.251237
61.1002
0.200879
61.0114
0.150544
60.9211
0.100265
60.829
0.0500728
60.7352
0
60.6394
-0.0499209
60.5415
-0.0996571
60.4414
-0.149176
60.3388
-0.198443
60.2337
-0.247426
60.1256
-0.296091
60.0145
-0.344402
59.9002
-0.392326
59.7822
-0.439828
59.6604
-0.486871
59.5345
-0.533421
59.4041
-0.57944
59.2688
-0.624892
59.1282
-0.669738
58.982
-0.713942
58.8297
-0.757462
58.6706
-0.800259
58.5043
-0.842292
58.3302
-0.883516
58.1474
-0.923889
57.9553
-0.963364
57.7529
-1.00189
57.5393
-1.03942
57.3133
-1.0759
57.0737
-1.11127
56.8189
-1.14547
56.5467
-1.17843
56.2553
-1.21006
55.9459
-1.24029
55.6164
-1.26909
55.2441
-1.29637
54.7943
-1.32161
54.3314
-1.34397
54.1205
-1.36474
54.1685
-1.38988
52.9304
-1.42029
47.6962
-1.41798
38.1904
-1.32479
-1.06761
32.3697
61.7609
1.89257
-61.8181
61.7025
1.85557
61.6428
1.81766
61.5821
1.77886
61.5202
1.7392
61.4574
1.69869
61.3935
1.65735
61.3288
1.61522
61.2633
1.5723
61.197
1.52863
61.1299
1.48423
61.0621
1.43912
60.9937
1.39333
60.9246
1.34688
60.8549
1.2998
60.7847
1.25211
60.7139
1.20384
60.6426
1.15502
60.5708
1.10567
60.4984
1.05583
60.4256
1.00551
60.3523
0.954759
60.2785
0.903589
60.2041
0.852036
60.1293
0.800129
60.0539
0.747897
59.9779
0.695372
59.9014
0.642582
59.8242
0.589559
59.7464
0.536334
59.6678
0.482939
59.5885
0.429404
59.5084
0.375762
59.4274
0.322045
59.3454
0.268285
59.2624
0.214516
59.1782
0.160769
59.0928
0.107079
59.0061
0.0534777
58.918
0
58.8282
-0.0533206
58.7368
-0.10645
58.6435
-0.159354
58.5482
-0.211997
58.4508
-0.264345
58.351
-0.316362
58.2486
-0.368013
58.1435
-0.419262
58.0353
-0.470074
57.924
-0.520409
57.8091
-0.570234
57.6904
-0.619509
57.5676
-0.668197
57.4403
-0.716259
57.3083
-0.763656
57.1709
-0.810348
57.0279
-0.856294
56.8788
-0.901452
56.7229
-0.945781
56.5598
-0.989233
56.3888
-1.03177
56.2091
-1.07333
56.0199
-1.11388
55.8203
-1.15335
55.6094
-1.1917
55.3859
-1.22887
55.1485
-1.26479
54.8951
-1.29939
54.6239
-1.33259
54.3355
-1.3643
54.0299
-1.39449
53.6902
-1.4231
53.2807
-1.4497
52.8295
-1.47339
52.5713
-1.49452
52.6031
-1.51997
52.1275
-1.54737
47.1118
-1.57871
-1.42258
42.3484
59.9736
2.01162
-60.0349
59.9113
1.97211
59.8481
1.93165
59.784
1.89026
59.7191
1.84796
59.6534
1.80478
59.587
1.76074
59.52
1.71585
59.4524
1.67016
59.3842
1.62367
59.3155
1.57641
59.2463
1.52841
59.1768
1.4797
59.1068
1.4303
59.0364
1.38024
58.9656
1.32954
58.8946
1.27823
58.8232
1.22635
58.7515
1.17392
58.6796
1.12096
58.6073
1.06751
58.5348
1.0136
58.462
0.959257
58.3889
0.904512
58.3155
0.849395
58.2417
0.793939
58.1677
0.738174
58.0932
0.682131
58.0184
0.625844
57.9432
0.569345
57.8674
0.512666
57.7912
0.455841
57.7144
0.398902
57.6369
0.341883
57.5588
0.284818
57.4799
0.227741
57.4001
0.170686
57.3195
0.113687
57.2378
0.0567805
57.1549
0
57.0709
-0.0566189
56.9855
-0.113041
56.8986
-0.16923
56.81
-0.225151
56.7197
-0.280766
56.6275
-0.336041
56.5332
-0.390937
56.4366
-0.445419
56.3375
-0.499448
56.2356
-0.552988
56.1309
-0.606
56.0229
-0.658446
55.9115
-0.710286
55.7963
-0.761483
55.677
-0.811995
55.5533
-0.861783
55.4248
-0.910805
55.2911
-0.959019
55.1517
-1.00638
55.0062
-1.05285
54.854
-1.09838
54.6944
-1.14292
54.5269
-1.18643
54.3507
-1.22885
54.1649
-1.27013
53.9687
-1.31021
53.761
-1.34904
53.5405
-1.38655
53.3055
-1.42267
53.054
-1.45731
52.7862
-1.4904
52.503
-1.52187
52.1948
-1.55169
51.8226
-1.57968
51.4129
-1.60421
51.0163
-1.62806
51.3455
-1.64463
50.27
-1.69883
-1.66591
48.7397
58.2319
2.12719
-58.2967
58.1665
2.08524
58.1003
2.04229
58.0335
1.99838
57.9661
1.95351
57.8981
1.90773
57.8297
1.86105
57.7609
1.81349
57.6917
1.76508
57.6221
1.71585
57.5522
1.66582
57.4821
1.61501
57.4117
1.56346
57.3411
1.5112
57.2703
1.45824
57.1994
1.40462
57.1283
1.35037
57.0572
1.29551
56.9859
1.24008
56.9145
1.18411
56.843
1.12762
56.7714
1.07065
56.6997
1.01323
56.6279
0.955387
56.5561
0.897159
56.4841
0.838576
56.4119
0.77967
56.3396
0.720475
56.2671
0.661024
56.1944
0.601351
56.1214
0.54149
56.0482
0.481474
55.9746
0.42134
55.9006
0.36112
55.8261
0.30085
55.7511
0.240566
55.6755
0.180304
55.5993
0.120097
55.5223
0.0599843
55.4445
0
55.3657
-0.059819
55.2859
-0.119436
55.205
-0.178814
55.1227
-0.237916
55.0391
-0.296705
54.9539
-0.355144
54.8669
-0.413193
54.7782
-0.470817
54.6873
-0.527976
54.5943
-0.584632
54.4988
-0.640745
54.4006
-0.696278
54.2995
-0.75119
54.1953
-0.805441
54.0877
-0.858991
53.9763
-0.911799
53.8609
-0.963823
53.7411
-1.01502
53.6166
-1.06535
53.4868
-1.11477
53.3514
-1.16323
53.2099
-1.21069
53.0616
-1.25709
52.906
-1.3024
52.7425
-1.34655
52.5702
-1.3895
52.3883
-1.43118
52.1959
-1.47154
51.9919
-1.51052
51.7747
-1.54805
51.5426
-1.58403
51.2944
-1.6184
51.0344
-1.65101
50.7462
-1.68216
50.4442
-1.71056
49.9734
-1.73901
49.7805
-1.75616
49.5632
-1.79077
-1.80462
49.3203
56.5354
2.23936
-56.603
56.4673
2.19502
56.3988
2.14965
56.3298
2.10328
56.2605
2.05592
56.1908
2.00761
56.1208
1.95836
56.0506
1.9082
55.9802
1.85716
55.9096
1.80526
55.8389
1.75253
55.7681
1.699
55.6973
1.64469
55.6264
1.58964
55.5555
1.53387
55.4847
1.47742
55.4138
1.42031
55.343
1.36257
55.2723
1.30423
55.2017
1.24533
55.1311
1.18589
55.0606
1.12596
54.9901
1.06555
54.9198
1.00471
54.8495
0.943464
54.7793
0.881849
54.7091
0.8199
54.6389
0.757649
54.5687
0.695132
54.4985
0.632383
54.4282
0.569436
54.3579
0.506329
54.2873
0.443096
54.2166
0.379774
54.1457
0.316398
54.0744
0.253005
54.0028
0.189632
53.9308
0.126315
53.8582
0.063092
53.7851
0
53.7113
-0.0629235
53.6367
-0.125641
53.5613
-0.188114
53.4849
-0.250305
53.4074
-0.312175
53.3286
-0.373687
53.2486
-0.4348
53.167
-0.495477
53.0838
-0.555678
52.9988
-0.615365
52.9118
-0.674496
52.8225
-0.733033
52.7309
-0.790935
52.6367
-0.848162
52.5397
-0.904673
52.4395
-0.960426
52.3359
-1.01538
52.2287
-1.06949
52.1175
-1.12272
52.0019
-1.17502
51.8815
-1.22635
51.756
-1.27666
51.6249
-1.3259
51.4877
-1.37403
51.3438
-1.421
51.1926
-1.46675
51.0334
-1.51124
50.8655
-1.5544
50.6879
-1.59618
50.4998
-1.63651
50.3001
-1.67532
50.0859
-1.71256
49.8601
-1.74803
49.6116
-1.782
49.3717
-1.81343
49.0556
-1.84486
48.7151
-1.87014
48.3898
-1.897
-1.91652
48.236
54.8834
2.34821
-54.9532
54.8133
2.30155
54.7429
2.25382
54.6722
2.20505
54.6013
2.15527
54.5303
2.10449
54.4592
2.05274
54.388
2.00005
54.3168
1.94645
54.2456
1.89196
54.1744
1.83662
54.1033
1.78044
54.0323
1.72346
53.9614
1.6657
53.8906
1.60721
53.8201
1.548
53.7497
1.48811
53.6795
1.42758
53.6095
1.36642
53.5397
1.30468
53.4702
1.24239
53.4008
1.17957
53.3318
1.11627
53.2629
1.05252
53.1943
0.988354
53.1258
0.923802
53.0576
0.858903
52.9895
0.79369
52.9217
0.7282
52.8539
0.662469
52.7862
0.596533
52.7187
0.530429
52.6511
0.464193
52.5835
0.397862
52.5159
0.331475
52.4482
0.265068
52.3804
0.198678
52.3123
0.132345
52.2439
0.0661066
52.1752
0
52.106
-0.0659355
52.0363
-0.131661
51.966
-0.197138
51.8951
-0.262327
51.8233
-0.327189
51.7506
-0.391685
51.6768
-0.455775
51.6019
-0.519419
51.5257
-0.582578
51.448
-0.645211
51.3688
-0.707278
51.2878
-0.768739
51.2048
-0.829552
51.1197
-0.889677
51.0322
-0.949072
50.9422
-1.0077
50.8494
-1.06551
50.7535
-1.12246
50.6543
-1.17852
50.5514
-1.23363
50.4446
-1.28776
50.3334
-1.34086
50.2176
-1.39288
50.0967
-1.44377
49.9701
-1.4935
49.8375
-1.542
49.6983
-1.58923
49.5518
-1.63513
49.3974
-1.67965
49.2342
-1.72272
49.0617
-1.76429
48.8778
-1.80431
48.6838
-1.84262
48.4719
-1.87937
48.2532
-1.91391
48.0187
-1.94726
47.7598
-1.9778
47.4184
-2.00764
-2.02845
47.2407
53.2752
2.45381
-53.3467
53.2035
2.40489
53.1317
2.35487
53.0598
2.30377
52.9879
2.25162
52.9159
2.19845
52.844
2.14428
52.7722
2.08914
52.7005
2.03305
52.6289
1.97604
52.5576
1.91815
52.4864
1.8594
52.4154
1.79983
52.3448
1.73945
52.2744
1.67831
52.2043
1.61643
52.1345
1.55385
52.065
1.4906
51.9959
1.42671
51.9272
1.36222
51.8588
1.29715
51.7907
1.23155
51.7231
1.16545
51.6558
1.09888
51.5888
1.03187
51.5222
0.964474
51.4559
0.896714
51.39
0.828631
51.3243
0.76026
51.259
0.691639
51.1939
0.622805
51.129
0.553796
51.0643
0.484649
50.9998
0.415403
50.9354
0.346096
50.871
0.276766
50.8067
0.207453
50.7424
0.138195
50.6779
0.0690306
50.6133
0
50.5485
-0.0688575
50.4834
-0.137502
50.4179
-0.205894
50.352
-0.273994
50.2855
-0.341761
50.2183
-0.409155
50.1504
-0.476137
50.0816
-0.542664
50.0118
-0.608697
49.941
-0.674195
49.8688
-0.739117
49.7953
-0.803422
49.7202
-0.867069
49.6434
-0.930015
49.5646
-0.99222
49.4838
-1.05364
49.4007
-1.11424
49.3151
-1.17396
49.2267
-1.23278
49.1353
-1.29064
49.0406
-1.34751
48.9423
-1.40333
48.8401
-1.45806
48.7337
-1.51166
48.6226
-1.56407
48.5065
-1.61526
48.3849
-1.66517
48.2572
-1.71375
48.123
-1.76095
47.9815
-1.80672
47.8324
-1.85098
47.6741
-1.8937
47.5071
-1.93476
47.3286
-1.97421
47.1383
-2.01176
46.9331
-2.04764
46.7326
-2.08103
46.4554
-2.1146
-2.13892
46.3069
51.7102
2.55625
-51.783
51.6373
2.50513
51.5645
2.45288
51.4917
2.39952
51.4191
2.34507
51.3465
2.28957
51.2742
2.23305
51.202
2.17552
51.1301
2.11701
51.0585
2.05757
50.9872
1.99721
50.9162
1.93596
50.8455
1.87387
50.7753
1.81095
50.7054
1.74724
50.636
1.68277
50.567
1.61758
50.4984
1.5517
50.4303
1.48516
50.3627
1.418
50.2955
1.35025
50.2288
1.28194
50.1626
1.21312
50.0969
1.14381
50.0317
1.07406
49.9669
1.0039
49.9026
0.933372
49.8387
0.862506
49.7753
0.791343
49.7123
0.719921
49.6497
0.648278
49.5874
0.576453
49.5255
0.504485
49.4638
0.432413
49.4025
0.360275
49.3413
0.288112
49.2804
0.215963
49.2196
0.143868
49.1588
0.0718668
49.0981
0
49.0374
-0.0716922
48.9765
-0.14317
48.9155
-0.214391
48.8542
-0.285315
48.7926
-0.355903
48.7306
-0.426112
48.6681
-0.495901
48.605
-0.56523
48.5411
-0.634057
48.4764
-0.70234
48.4108
-0.770038
48.3441
-0.83711
48.2762
-0.903513
48.207
-0.969206
48.1362
-1.03415
48.0637
-1.09829
47.9894
-1.1616
47.9131
-1.22403
47.8344
-1.28554
47.7533
-1.34608
47.6696
-1.40561
47.5828
-1.46409
47.4928
-1.52147
47.3993
-1.57771
47.302
-1.63276
47.2005
-1.68658
47.0944
-1.73911
46.9833
-1.79031
46.8668
-1.84012
46.7444
-1.88851
46.6155
-1.9354
46.4795
-1.98075
46.3357
-2.02449
46.1833
-2.06658
46.0226
-2.10688
45.8455
-2.14558
45.6739
-2.18167
45.4451
-2.21798
-2.24588
45.3295
50.1875
2.6556
-50.2613
50.1139
2.60234
50.0404
2.54792
49.9671
2.49236
49.8941
2.43569
49.8212
2.37793
49.7487
2.31912
49.6765
2.25927
49.6047
2.19842
49.5332
2.13661
49.4621
2.07385
49.3915
2.01019
49.3214
1.94565
49.2517
1.88026
49.1825
1.81406
49.1139
1.74708
49.0458
1.67936
48.9782
1.61093
48.9112
1.54182
48.8448
1.47207
48.779
1.40171
48.7137
1.33079
48.649
1.25933
48.585
1.18738
48.5214
1.11496
48.4585
1.04213
48.3962
0.96891
48.3343
0.895348
48.2731
0.821479
48.2124
0.747342
48.1521
0.672977
48.0924
0.598423
48.0331
0.523719
47.9742
0.448907
47.9158
0.374025
47.8577
0.299115
47.7999
0.224217
47.7424
0.149371
47.6852
0.0746181
47.6281
0
47.5712
-0.0744424
47.5143
-0.148668
47.4575
-0.222635
47.4006
-0.296302
47.3435
-0.369627
47.2863
-0.442569
47.2287
-0.515086
47.1708
-0.587136
47.1124
-0.658678
47.0534
-0.729668
46.9938
-0.800065
46.9334
-0.869828
46.872
-0.938912
46.8096
-1.00728
46.7461
-1.07488
46.6812
-1.14168
46.6149
-1.20763
46.5469
-1.2727
46.4771
-1.33683
46.4053
-1.39998
46.3313
-1.46212
46.2549
-1.52319
46.1759
-1.58316
46.094
-1.64197
46.0088
-1.69959
45.9203
-1.75597
45.828
-1.81106
45.7316
-1.86482
45.6307
-1.91719
45.5249
-1.96813
45.4138
-2.01759
45.2969
-2.06551
45.1737
-2.11184
45.043
-2.15654
44.9064
-2.19945
44.7567
-2.24083
44.6105
-2.27969
44.4159
-2.31859
-2.34965
44.3224
48.7065
2.75194
-48.7808
48.6325
2.69661
48.5586
2.64008
48.4851
2.58239
48.4119
2.52355
48.339
2.4636
48.2666
2.40256
48.1946
2.34047
48.123
2.27735
48.0519
2.21323
47.9813
2.14815
47.9113
2.08214
47.8418
2.01523
47.7728
1.94745
47.7045
1.87884
47.6368
1.80943
47.5697
1.73925
47.5032
1.66834
47.4375
1.59674
47.3723
1.52448
47.3079
1.4516
47.2441
1.37814
47.1809
1.30413
47.1185
1.2296
47.0567
1.15461
46.9956
1.07918
46.9352
1.00336
46.8754
0.927188
46.8163
0.850696
46.7578
0.773928
46.6999
0.696924
46.6426
0.619725
46.5858
0.542371
46.5296
0.464902
46.474
0.38736
46.4188
0.309786
46.364
0.232222
46.3097
0.154708
46.2557
0.0772868
46.202
0
46.1487
-0.0771105
46.0955
-0.154003
46.0426
-0.230634
45.9897
-0.306962
45.9369
-0.382946
45.884
-0.458542
45.8311
-0.533708
45.778
-0.608402
45.7246
-0.68258
45.6709
-0.756202
45.6167
-0.829223
45.562
-0.901601
45.5067
-0.973295
45.4506
-1.04426
45.3936
-1.11446
45.3356
-1.18384
45.2765
-1.25236
45.2161
-1.31999
45.1543
-1.38668
45.0909
-1.45238
45.0257
-1.51705
44.9586
-1.58065
44.8894
-1.64314
44.8177
-1.70447
44.7436
-1.7646
44.6665
-1.82348
44.5864
-1.88106
44.503
-1.93731
44.4158
-1.99218
44.3247
-2.04562
44.2292
-2.09757
44.1289
-2.148
44.0235
-2.19684
43.912
-2.24407
43.7956
-2.28955
43.6686
-2.33348
43.5455
-2.375
43.3803
-2.41646
-2.45051
43.3049
47.2663
2.84535
-47.3409
47.1921
2.78801
47.1182
2.72944
47.0447
2.66967
46.9716
2.60873
46.899
2.54665
46.8268
2.48346
46.7551
2.41918
46.684
2.35386
46.6135
2.28751
46.5435
2.22018
46.4742
2.15189
46.4055
2.08268
46.3375
2.01258
46.2701
1.94163
46.2034
1.86985
46.1374
1.7973
46.0722
1.724
46.0076
1.64998
45.9439
1.57529
45.8808
1.49997
45.8185
1.42404
45.757
1.34755
45.6962
1.27054
45.6362
1.19305
45.5769
1.11511
45.5184
1.03676
45.4606
0.958056
45.4035
0.879023
45.3472
0.799704
45.2915
0.720143
45.2366
0.64038
45.1823
0.560456
45.1286
0.480412
45.0756
0.400292
45.0231
0.320135
44.9712
0.239986
44.9199
0.159885
44.869
0.0798754
44.8186
0
44.7685
-0.0796988
44.7189
-0.159178
44.6695
-0.238395
44.6204
-0.317307
44.5715
-0.395871
44.5227
-0.474044
44.474