/*--------------------------------*- C++ -*----------------------------------*\
| =========                 |                                                 |
| \\      /  F ield         | OpenFOAM: The Open Source CFD Toolbox           |
|  \\    /   O peration     | Version:  2312                                  |
|   \\  /    A nd           | Website:  www.openfoam.com                      |
|    \\/     M anipulation  |                                                 |
\*---------------------------------------------------------------------------*/
FoamFile
{
    version     2.0;
    format      ascii;
    arch        "LSB;label=32;scalar=64";
    class       volVectorField;
    location    "0.427";
    object      U;
}
// * * * * * * * * * * * * * * * * * * * * * * * * * * * * * * * * * * * * * //

dimensions      [0 1 -1 0 0 0 0];

internalField   nonuniform List<vector> 
31205
(
(282.494 0 0)
(281.292 0 0)
(280.043 0 0)
(278.746 0 0)
(277.4 0 0)
(276.002 0 0)
(274.553 0 0)
(273.048 0 0)
(271.488 0 0)
(269.869 0 0)
(268.189 0 0)
(266.445 0 0)
(264.636 0 0)
(262.756 0 0)
(260.804 0 0)
(258.775 0 0)
(256.665 0 0)
(254.468 0 0)
(252.18 0 0)
(249.794 0 0)
(247.303 0 0)
(244.698 0 0)
(241.971 0 0)
(239.109 0 0)
(236.101 0 0)
(232.929 0 0)
(229.576 0 0)
(226.017 0 0)
(222.224 0 0)
(218.158 0 0)
(213.768 0 0)
(208.988 0 0)
(203.73 0 0)
(197.856 0 0)
(191.067 0 0)
(182.736 0 0)
(172.01 0 0)
(158.641 0 0)
(143.951 0 0)
(130.412 0 0)
(119.913 0 0)
(112.81 0 0)
(108.439 0 0)
(105.933 0 0)
(104.611 0 0)
(104.031 0 0)
(103.923 0 0)
(104.125 0 0)
(104.541 0 0)
(105.107 0 0)
(105.784 0 0)
(106.545 0 0)
(107.371 0 0)
(108.248 0 0)
(109.166 0 0)
(110.117 0 0)
(111.096 0 0)
(112.097 0 0)
(113.116 0 0)
(114.152 0 0)
(115.2 0 0)
(116.26 0 0)
(117.329 0 0)
(118.405 0 0)
(119.488 0 0)
(120.577 0 0)
(121.67 0 0)
(122.767 0 0)
(123.866 0 0)
(124.968 0 0)
(126.072 0 0)
(127.177 0 0)
(128.283 0 0)
(129.388 0 0)
(130.498 0 0)
(131.592 0 0)
(132.738 0 0)
(133.719 0 0)
(135.203 0 0)
(281.407 0 0)
(280.197 0 0)
(278.941 0 0)
(277.639 0 0)
(276.288 0 0)
(274.888 0 0)
(273.437 0 0)
(271.932 0 0)
(270.372 0 0)
(268.756 0 0)
(267.08 0 0)
(265.341 0 0)
(263.538 0 0)
(261.667 0 0)
(259.724 0 0)
(257.707 0 0)
(255.609 0 0)
(253.427 0 0)
(251.156 0 0)
(248.788 0 0)
(246.318 0 0)
(243.736 0 0)
(241.034 0 0)
(238.2 0 0)
(235.223 0 0)
(232.086 0 0)
(228.77 0 0)
(225.254 0 0)
(221.507 0 0)
(217.494 0 0)
(213.165 0 0)
(208.455 0 0)
(203.277 0 0)
(197.5 0 0)
(190.841 0 0)
(182.702 0 0)
(172.253 0 0)
(159.191 0 0)
(144.704 0 0)
(131.177 0 0)
(120.541 0 0)
(113.253 0 0)
(108.715 0 0)
(106.077 0 0)
(104.654 0 0)
(103.995 0 0)
(103.822 0 0)
(103.969 0 0)
(104.335 0 0)
(104.856 0 0)
(105.491 0 0)
(106.211 0 0)
(106.998 0 0)
(107.837 0 0)
(108.718 0 0)
(109.633 0 0)
(110.576 0 0)
(111.542 0 0)
(112.528 0 0)
(113.529 0 0)
(114.545 0 0)
(115.571 0 0)
(116.608 0 0)
(117.652 0 0)
(118.703 0 0)
(119.76 0 0)
(120.821 0 0)
(121.887 0 0)
(122.955 0 0)
(124.026 0 0)
(125.1 0 0)
(126.174 0 0)
(127.25 0 0)
(128.325 0 0)
(129.405 0 0)
(130.469 0 0)
(131.584 0 0)
(132.541 0 0)
(133.979 0 0)
(280.256 0 0)
(279.038 0 0)
(277.775 0 0)
(276.467 0 0)
(275.112 0 0)
(273.709 0 0)
(272.255 0 0)
(270.75 0 0)
(269.191 0 0)
(267.576 0 0)
(265.903 0 0)
(264.169 0 0)
(262.371 0 0)
(260.507 0 0)
(258.573 0 0)
(256.565 0 0)
(254.479 0 0)
(252.31 0 0)
(250.053 0 0)
(247.702 0 0)
(245.249 0 0)
(242.688 0 0)
(240.008 0 0)
(237.199 0 0)
(234.249 0 0)
(231.142 0 0)
(227.859 0 0)
(224.379 0 0)
(220.673 0 0)
(216.705 0 0)
(212.427 0 0)
(207.775 0 0)
(202.664 0 0)
(196.966 0 0)
(190.406 0 0)
(182.41 0 0)
(172.174 0 0)
(159.371 0 0)
(145.099 0 0)
(131.658 0 0)
(120.979 0 0)
(113.585 0 0)
(108.933 0 0)
(106.196 0 0)
(104.692 0 0)
(103.965 0 0)
(103.736 0 0)
(103.832 0 0)
(104.152 0 0)
(104.63 0 0)
(105.224 0 0)
(105.906 0 0)
(106.655 0 0)
(107.458 0 0)
(108.303 0 0)
(109.183 0 0)
(110.092 0 0)
(111.024 0 0)
(111.976 0 0)
(112.945 0 0)
(113.928 0 0)
(114.923 0 0)
(115.927 0 0)
(116.94 0 0)
(117.96 0 0)
(118.986 0 0)
(120.017 0 0)
(121.052 0 0)
(122.09 0 0)
(123.131 0 0)
(124.175 0 0)
(125.219 0 0)
(126.266 0 0)
(127.311 0 0)
(128.363 0 0)
(129.398 0 0)
(130.482 0 0)
(131.416 0 0)
(132.808 0 0)
(279.072 0 0)
(277.846 0 0)
(276.577 0 0)
(275.264 0 0)
(273.905 0 0)
(272.499 0 0)
(271.043 0 0)
(269.537 0 0)
(267.978 0 0)
(266.365 0 0)
(264.694 0 0)
(262.964 0 0)
(261.172 0 0)
(259.314 0 0)
(257.388 0 0)
(255.389 0 0)
(253.313 0 0)
(251.156 0 0)
(248.912 0 0)
(246.575 0 0)
(244.139 0 0)
(241.596 0 0)
(238.936 0 0)
(236.149 0 0)
(233.223 0 0)
(230.142 0 0)
(226.889 0 0)
(223.441 0 0)
(219.77 0 0)
(215.841 0 0)
(211.607 0 0)
(207.003 0 0)
(201.948 0 0)
(196.313 0 0)
(189.828 0 0)
(181.937 0 0)
(171.858 0 0)
(159.266 0 0)
(145.204 0 0)
(131.894 0 0)
(121.245 0 0)
(113.812 0 0)
(109.093 0 0)
(106.288 0 0)
(104.722 0 0)
(103.941 0 0)
(103.662 0 0)
(103.714 0 0)
(103.992 0 0)
(104.43 0 0)
(104.986 0 0)
(105.631 0 0)
(106.344 0 0)
(107.112 0 0)
(107.923 0 0)
(108.769 0 0)
(109.645 0 0)
(110.545 0 0)
(111.465 0 0)
(112.402 0 0)
(113.353 0 0)
(114.316 0 0)
(115.29 0 0)
(116.272 0 0)
(117.262 0 0)
(118.258 0 0)
(119.259 0 0)
(120.264 0 0)
(121.273 0 0)
(122.285 0 0)
(123.299 0 0)
(124.315 0 0)
(125.332 0 0)
(126.349 0 0)
(127.372 0 0)
(128.38 0 0)
(129.434 0 0)
(130.345 0 0)
(131.694 0 0)
(277.873 0 0)
(276.64 0 0)
(275.366 0 0)
(274.048 0 0)
(272.686 0 0)
(271.277 0 0)
(269.82 0 0)
(268.314 0 0)
(266.756 0 0)
(265.144 0 0)
(263.476 0 0)
(261.75 0 0)
(259.963 0 0)
(258.111 0 0)
(256.192 0 0)
(254.202 0 0)
(252.136 0 0)
(249.99 0 0)
(247.759 0 0)
(245.437 0 0)
(243.016 0 0)
(240.49 0 0)
(237.849 0 0)
(235.083 0 0)
(232.179 0 0)
(229.123 0 0)
(225.897 0 0)
(222.479 0 0)
(218.84 0 0)
(214.947 0 0)
(210.753 0 0)
(206.194 0 0)
(201.188 0 0)
(195.608 0 0)
(189.187 0 0)
(181.379 0 0)
(171.427 0 0)
(159.019 0 0)
(145.159 0 0)
(132 0 0)
(121.416 0 0)
(113.979 0 0)
(109.221 0 0)
(106.365 0 0)
(104.749 0 0)
(103.92 0 0)
(103.597 0 0)
(103.608 0 0)
(103.847 0 0)
(104.248 0 0)
(104.767 0 0)
(105.377 0 0)
(106.056 0 0)
(106.789 0 0)
(107.567 0 0)
(108.381 0 0)
(109.225 0 0)
(110.093 0 0)
(110.981 0 0)
(111.887 0 0)
(112.808 0 0)
(113.741 0 0)
(114.684 0 0)
(115.637 0 0)
(116.597 0 0)
(117.563 0 0)
(118.535 0 0)
(119.512 0 0)
(120.492 0 0)
(121.475 0 0)
(122.461 0 0)
(123.448 0 0)
(124.438 0 0)
(125.427 0 0)
(126.422 0 0)
(127.402 0 0)
(128.427 0 0)
(129.315 0 0)
(130.625 0 0)
(276.666 0 0)
(275.429 0 0)
(274.15 0 0)
(272.829 0 0)
(271.463 0 0)
(270.053 0 0)
(268.596 0 0)
(267.09 0 0)
(265.533 0 0)
(263.924 0 0)
(262.259 0 0)
(260.538 0 0)
(258.756 0 0)
(256.911 0 0)
(255 0 0)
(253.018 0 0)
(250.962 0 0)
(248.828 0 0)
(246.609 0 0)
(244.301 0 0)
(241.896 0 0)
(239.386 0 0)
(236.764 0 0)
(234.018 0 0)
(231.136 0 0)
(228.104 0 0)
(224.904 0 0)
(221.514 0 0)
(217.907 0 0)
(214.048 0 0)
(209.891 0 0)
(205.374 0 0)
(200.415 0 0)
(194.886 0 0)
(188.522 0 0)
(180.788 0 0)
(170.951 0 0)
(158.712 0 0)
(145.048 0 0)
(132.047 0 0)
(121.543 0 0)
(114.117 0 0)
(109.333 0 0)
(106.436 0 0)
(104.775 0 0)
(103.903 0 0)
(103.539 0 0)
(103.511 0 0)
(103.713 0 0)
(104.078 0 0)
(104.562 0 0)
(105.138 0 0)
(105.783 0 0)
(106.484 0 0)
(107.23 0 0)
(108.012 0 0)
(108.825 0 0)
(109.662 0 0)
(110.52 0 0)
(111.396 0 0)
(112.287 0 0)
(113.19 0 0)
(114.104 0 0)
(115.028 0 0)
(115.959 0 0)
(116.897 0 0)
(117.84 0 0)
(118.788 0 0)
(119.74 0 0)
(120.696 0 0)
(121.654 0 0)
(122.614 0 0)
(123.576 0 0)
(124.537 0 0)
(125.505 0 0)
(126.458 0 0)
(127.455 0 0)
(128.32 0 0)
(129.591 0 0)
(275.458 0 0)
(274.216 0 0)
(272.933 0 0)
(271.61 0 0)
(270.243 0 0)
(268.832 0 0)
(267.375 0 0)
(265.87 0 0)
(264.315 0 0)
(262.709 0 0)
(261.048 0 0)
(259.332 0 0)
(257.556 0 0)
(255.718 0 0)
(253.815 0 0)
(251.842 0 0)
(249.797 0 0)
(247.674 0 0)
(245.468 0 0)
(243.174 0 0)
(240.784 0 0)
(238.292 0 0)
(235.687 0 0)
(232.962 0 0)
(230.102 0 0)
(227.093 0 0)
(223.919 0 0)
(220.557 0 0)
(216.981 0 0)
(213.155 0 0)
(209.035 0 0)
(204.558 0 0)
(199.644 0 0)
(194.164 0 0)
(187.855 0 0)
(180.191 0 0)
(170.462 0 0)
(158.385 0 0)
(144.911 0 0)
(132.069 0 0)
(121.652 0 0)
(114.245 0 0)
(109.44 0 0)
(106.506 0 0)
(104.804 0 0)
(103.891 0 0)
(103.488 0 0)
(103.422 0 0)
(103.588 0 0)
(103.918 0 0)
(104.369 0 0)
(104.911 0 0)
(105.525 0 0)
(106.194 0 0)
(106.909 0 0)
(107.66 0 0)
(108.442 0 0)
(109.249 0 0)
(110.078 0 0)
(110.924 0 0)
(111.786 0 0)
(112.66 0 0)
(113.546 0 0)
(114.441 0 0)
(115.344 0 0)
(116.254 0 0)
(117.169 0 0)
(118.09 0 0)
(119.015 0 0)
(119.943 0 0)
(120.873 0 0)
(121.806 0 0)
(122.742 0 0)
(123.677 0 0)
(124.617 0 0)
(125.545 0 0)
(126.514 0 0)
(127.356 0 0)
(128.591 0 0)
(274.249 0 0)
(273.003 0 0)
(271.719 0 0)
(270.393 0 0)
(269.026 0 0)
(267.615 0 0)
(266.159 0 0)
(264.656 0 0)
(263.104 0 0)
(261.501 0 0)
(259.845 0 0)
(258.134 0 0)
(256.365 0 0)
(254.535 0 0)
(252.64 0 0)
(250.677 0 0)
(248.642 0 0)
(246.531 0 0)
(244.338 0 0)
(242.058 0 0)
(239.684 0 0)
(237.209 0 0)
(234.623 0 0)
(231.917 0 0)
(229.079 0 0)
(226.094 0 0)
(222.945 0 0)
(219.611 0 0)
(216.065 0 0)
(212.273 0 0)
(208.188 0 0)
(203.751 0 0)
(198.882 0 0)
(193.45 0 0)
(187.195 0 0)
(179.599 0 0)
(169.974 0 0)
(158.055 0 0)
(144.768 0 0)
(132.084 0 0)
(121.754 0 0)
(114.369 0 0)
(109.547 0 0)
(106.578 0 0)
(104.837 0 0)
(103.885 0 0)
(103.444 0 0)
(103.342 0 0)
(103.472 0 0)
(103.768 0 0)
(104.187 0 0)
(104.697 0 0)
(105.279 0 0)
(105.917 0 0)
(106.601 0 0)
(107.323 0 0)
(108.075 0 0)
(108.853 0 0)
(109.652 0 0)
(110.47 0 0)
(111.303 0 0)
(112.15 0 0)
(113.008 0 0)
(113.875 0 0)
(114.75 0 0)
(115.633 0 0)
(116.521 0 0)
(117.415 0 0)
(118.313 0 0)
(119.214 0 0)
(120.119 0 0)
(121.025 0 0)
(121.934 0 0)
(122.843 0 0)
(123.757 0 0)
(124.659 0 0)
(125.602 0 0)
(126.421 0 0)
(127.62 0 0)
(273.041 0 0)
(271.793 0 0)
(270.507 0 0)
(269.181 0 0)
(267.814 0 0)
(266.404 0 0)
(264.949 0 0)
(263.449 0 0)
(261.901 0 0)
(260.302 0 0)
(258.652 0 0)
(256.947 0 0)
(255.184 0 0)
(253.362 0 0)
(251.476 0 0)
(249.524 0 0)
(247.5 0 0)
(245.401 0 0)
(243.221 0 0)
(240.956 0 0)
(238.597 0 0)
(236.139 0 0)
(233.572 0 0)
(230.886 0 0)
(228.07 0 0)
(225.108 0 0)
(221.985 0 0)
(218.678 0 0)
(215.162 0 0)
(211.402 0 0)
(207.353 0 0)
(202.956 0 0)
(198.13 0 0)
(192.746 0 0)
(186.543 0 0)
(179.014 0 0)
(169.493 0 0)
(157.728 0 0)
(144.625 0 0)
(132.097 0 0)
(121.856 0 0)
(114.494 0 0)
(109.656 0 0)
(106.654 0 0)
(104.875 0 0)
(103.885 0 0)
(103.406 0 0)
(103.269 0 0)
(103.365 0 0)
(103.628 0 0)
(104.014 0 0)
(104.493 0 0)
(105.045 0 0)
(105.653 0 0)
(106.307 0 0)
(107 0 0)
(107.723 0 0)
(108.472 0 0)
(109.244 0 0)
(110.033 0 0)
(110.839 0 0)
(111.658 0 0)
(112.488 0 0)
(113.329 0 0)
(114.177 0 0)
(115.033 0 0)
(115.895 0 0)
(116.763 0 0)
(117.634 0 0)
(118.51 0 0)
(119.388 0 0)
(120.269 0 0)
(121.152 0 0)
(122.036 0 0)
(122.924 0 0)
(123.801 0 0)
(124.717 0 0)
(125.515 0 0)
(126.679 0 0)
(271.835 0 0)
(270.586 0 0)
(269.299 0 0)
(267.973 0 0)
(266.607 0 0)
(265.199 0 0)
(263.747 0 0)
(262.25 0 0)
(260.706 0 0)
(259.112 0 0)
(257.468 0 0)
(255.769 0 0)
(254.015 0 0)
(252.201 0 0)
(250.324 0 0)
(248.382 0 0)
(246.37 0 0)
(244.283 0 0)
(242.117 0 0)
(239.866 0 0)
(237.524 0 0)
(235.083 0 0)
(232.534 0 0)
(229.868 0 0)
(227.074 0 0)
(224.136 0 0)
(221.037 0 0)
(217.758 0 0)
(214.272 0 0)
(210.544 0 0)
(206.531 0 0)
(202.172 0 0)
(197.389 0 0)
(192.052 0 0)
(185.901 0 0)
(178.439 0 0)
(169.019 0 0)
(157.407 0 0)
(144.484 0 0)
(132.11 0 0)
(121.957 0 0)
(114.621 0 0)
(109.768 0 0)
(106.734 0 0)
(104.918 0 0)
(103.89 0 0)
(103.376 0 0)
(103.203 0 0)
(103.267 0 0)
(103.498 0 0)
(103.852 0 0)
(104.301 0 0)
(104.822 0 0)
(105.401 0 0)
(106.026 0 0)
(106.69 0 0)
(107.385 0 0)
(108.107 0 0)
(108.851 0 0)
(109.613 0 0)
(110.392 0 0)
(111.184 0 0)
(111.988 0 0)
(112.802 0 0)
(113.624 0 0)
(114.454 0 0)
(115.29 0 0)
(116.132 0 0)
(116.978 0 0)
(117.828 0 0)
(118.681 0 0)
(119.537 0 0)
(120.395 0 0)
(121.254 0 0)
(122.117 0 0)
(122.97 0 0)
(123.86 0 0)
(124.637 0 0)
(125.766 0 0)
(270.632 0 0)
(269.382 0 0)
(268.096 0 0)
(266.771 0 0)
(265.407 0 0)
(264.001 0 0)
(262.552 0 0)
(261.059 0 0)
(259.52 0 0)
(257.932 0 0)
(256.293 0 0)
(254.602 0 0)
(252.856 0 0)
(251.05 0 0)
(249.184 0 0)
(247.252 0 0)
(245.252 0 0)
(243.178 0 0)
(241.026 0 0)
(238.789 0 0)
(236.463 0 0)
(234.039 0 0)
(231.51 0 0)
(228.864 0 0)
(226.091 0 0)
(223.176 0 0)
(220.103 0 0)
(216.851 0 0)
(213.394 0 0)
(209.699 0 0)
(205.72 0 0)
(201.4 0 0)
(196.659 0 0)
(191.368 0 0)
(185.269 0 0)
(177.872 0 0)
(168.554 0 0)
(157.091 0 0)
(144.346 0 0)
(132.124 0 0)
(122.059 0 0)
(114.749 0 0)
(109.883 0 0)
(106.819 0 0)
(104.966 0 0)
(103.902 0 0)
(103.352 0 0)
(103.146 0 0)
(103.176 0 0)
(103.376 0 0)
(103.7 0 0)
(104.119 0 0)
(104.611 0 0)
(105.161 0 0)
(105.758 0 0)
(106.394 0 0)
(107.062 0 0)
(107.756 0 0)
(108.473 0 0)
(109.209 0 0)
(109.961 0 0)
(110.727 0 0)
(111.505 0 0)
(112.293 0 0)
(113.09 0 0)
(113.895 0 0)
(114.706 0 0)
(115.522 0 0)
(116.343 0 0)
(117.169 0 0)
(117.997 0 0)
(118.828 0 0)
(119.662 0 0)
(120.497 0 0)
(121.336 0 0)
(122.165 0 0)
(123.03 0 0)
(123.786 0 0)
(124.882 0 0)
(269.432 0 0)
(268.183 0 0)
(266.898 0 0)
(265.575 0 0)
(264.213 0 0)
(262.81 0 0)
(261.366 0 0)
(259.877 0 0)
(258.343 0 0)
(256.761 0 0)
(255.13 0 0)
(253.446 0 0)
(251.708 0 0)
(249.912 0 0)
(248.055 0 0)
(246.135 0 0)
(244.146 0 0)
(242.085 0 0)
(239.947 0 0)
(237.726 0 0)
(235.416 0 0)
(233.01 0 0)
(230.498 0 0)
(227.873 0 0)
(225.121 0 0)
(222.23 0 0)
(219.182 0 0)
(215.957 0 0)
(212.529 0 0)
(208.865 0 0)
(204.922 0 0)
(200.64 0 0)
(195.94 0 0)
(190.695 0 0)
(184.646 0 0)
(177.315 0 0)
(168.096 0 0)
(156.781 0 0)
(144.211 0 0)
(132.139 0 0)
(122.162 0 0)
(114.878 0 0)
(110 0 0)
(106.907 0 0)
(105.019 0 0)
(103.919 0 0)
(103.335 0 0)
(103.095 0 0)
(103.094 0 0)
(103.263 0 0)
(103.557 0 0)
(103.947 0 0)
(104.41 0 0)
(104.933 0 0)
(105.502 0 0)
(106.111 0 0)
(106.752 0 0)
(107.42 0 0)
(108.11 0 0)
(108.82 0 0)
(109.547 0 0)
(110.287 0 0)
(111.04 0 0)
(111.803 0 0)
(112.575 0 0)
(113.355 0 0)
(114.141 0 0)
(114.933 0 0)
(115.73 0 0)
(116.531 0 0)
(117.336 0 0)
(118.143 0 0)
(118.953 0 0)
(119.764 0 0)
(120.579 0 0)
(121.385 0 0)
(122.226 0 0)
(122.961 0 0)
(124.024 0 0)
(268.238 0 0)
(266.99 0 0)
(265.706 0 0)
(264.386 0 0)
(263.027 0 0)
(261.628 0 0)
(260.188 0 0)
(258.704 0 0)
(257.176 0 0)
(255.601 0 0)
(253.976 0 0)
(252.301 0 0)
(250.571 0 0)
(248.785 0 0)
(246.939 0 0)
(245.03 0 0)
(243.053 0 0)
(241.005 0 0)
(238.881 0 0)
(236.676 0 0)
(234.382 0 0)
(231.993 0 0)
(229.501 0 0)
(226.895 0 0)
(224.165 0 0)
(221.297 0 0)
(218.274 0 0)
(215.076 0 0)
(211.677 0 0)
(208.044 0 0)
(204.135 0 0)
(199.89 0 0)
(195.232 0 0)
(190.031 0 0)
(184.032 0 0)
(176.765 0 0)
(167.645 0 0)
(156.475 0 0)
(144.077 0 0)
(132.153 0 0)
(122.264 0 0)
(115.008 0 0)
(110.12 0 0)
(106.998 0 0)
(105.076 0 0)
(103.942 0 0)
(103.324 0 0)
(103.052 0 0)
(103.02 0 0)
(103.159 0 0)
(103.424 0 0)
(103.785 0 0)
(104.221 0 0)
(104.716 0 0)
(105.258 0 0)
(105.841 0 0)
(106.455 0 0)
(107.097 0 0)
(107.762 0 0)
(108.447 0 0)
(109.148 0 0)
(109.864 0 0)
(110.592 0 0)
(111.331 0 0)
(112.079 0 0)
(112.834 0 0)
(113.597 0 0)
(114.365 0 0)
(115.138 0 0)
(115.915 0 0)
(116.696 0 0)
(117.48 0 0)
(118.267 0 0)
(119.054 0 0)
(119.847 0 0)
(120.63 0 0)
(121.447 0 0)
(122.162 0 0)
(123.194 0 0)
(267.048 0 0)
(265.802 0 0)
(264.521 0 0)
(263.204 0 0)
(261.849 0 0)
(260.454 0 0)
(259.019 0 0)
(257.541 0 0)
(256.019 0 0)
(254.451 0 0)
(252.834 0 0)
(251.167 0 0)
(249.446 0 0)
(247.67 0 0)
(245.835 0 0)
(243.937 0 0)
(241.973 0 0)
(239.938 0 0)
(237.829 0 0)
(235.638 0 0)
(233.361 0 0)
(230.989 0 0)
(228.516 0 0)
(225.93 0 0)
(223.222 0 0)
(220.377 0 0)
(217.378 0 0)
(214.207 0 0)
(210.836 0 0)
(207.235 0 0)
(203.359 0 0)
(199.152 0 0)
(194.534 0 0)
(189.377 0 0)
(183.427 0 0)
(176.224 0 0)
(167.201 0 0)
(156.174 0 0)
(143.944 0 0)
(132.168 0 0)
(122.366 0 0)
(115.139 0 0)
(110.242 0 0)
(107.093 0 0)
(105.138 0 0)
(103.97 0 0)
(103.319 0 0)
(103.015 0 0)
(102.953 0 0)
(103.062 0 0)
(103.299 0 0)
(103.633 0 0)
(104.041 0 0)
(104.509 0 0)
(105.026 0 0)
(105.582 0 0)
(106.172 0 0)
(106.788 0 0)
(107.429 0 0)
(108.089 0 0)
(108.766 0 0)
(109.457 0 0)
(110.161 0 0)
(110.876 0 0)
(111.6 0 0)
(112.332 0 0)
(113.071 0 0)
(113.816 0 0)
(114.566 0 0)
(115.32 0 0)
(116.078 0 0)
(116.839 0 0)
(117.603 0 0)
(118.368 0 0)
(119.138 0 0)
(119.899 0 0)
(120.692 0 0)
(121.389 0 0)
(122.389 0 0)
(265.865 0 0)
(264.622 0 0)
(263.344 0 0)
(262.03 0 0)
(260.679 0 0)
(259.289 0 0)
(257.86 0 0)
(256.388 0 0)
(254.872 0 0)
(253.311 0 0)
(251.703 0 0)
(250.044 0 0)
(248.334 0 0)
(246.567 0 0)
(244.743 0 0)
(242.857 0 0)
(240.906 0 0)
(238.885 0 0)
(236.789 0 0)
(234.614 0 0)
(232.353 0 0)
(229.999 0 0)
(227.544 0 0)
(224.979 0 0)
(222.292 0 0)
(219.469 0 0)
(216.496 0 0)
(213.35 0 0)
(210.008 0 0)
(206.438 0 0)
(202.595 0 0)
(198.424 0 0)
(193.846 0 0)
(188.732 0 0)
(182.832 0 0)
(175.692 0 0)
(166.763 0 0)
(155.877 0 0)
(143.814 0 0)
(132.181 0 0)
(122.468 0 0)
(115.271 0 0)
(110.366 0 0)
(107.191 0 0)
(105.204 0 0)
(104.002 0 0)
(103.319 0 0)
(102.985 0 0)
(102.893 0 0)
(102.974 0 0)
(103.183 0 0)
(103.49 0 0)
(103.872 0 0)
(104.314 0 0)
(104.805 0 0)
(105.336 0 0)
(105.901 0 0)
(106.493 0 0)
(107.109 0 0)
(107.745 0 0)
(108.398 0 0)
(109.065 0 0)
(109.746 0 0)
(110.438 0 0)
(111.138 0 0)
(111.848 0 0)
(112.564 0 0)
(113.286 0 0)
(114.014 0 0)
(114.746 0 0)
(115.481 0 0)
(116.22 0 0)
(116.962 0 0)
(117.705 0 0)
(118.452 0 0)
(119.192 0 0)
(119.962 0 0)
(120.64 0 0)
(121.61 0 0)
(264.689 0 0)
(263.449 0 0)
(262.175 0 0)
(260.865 0 0)
(259.519 0 0)
(258.134 0 0)
(256.71 0 0)
(255.245 0 0)
(253.737 0 0)
(252.184 0 0)
(250.583 0 0)
(248.934 0 0)
(247.233 0 0)
(245.477 0 0)
(243.664 0 0)
(241.79 0 0)
(239.851 0 0)
(237.844 0 0)
(235.763 0 0)
(233.603 0 0)
(231.359 0 0)
(229.022 0 0)
(226.586 0 0)
(224.041 0 0)
(221.375 0 0)
(218.575 0 0)
(215.625 0 0)
(212.506 0 0)
(209.192 0 0)
(205.652 0 0)
(201.842 0 0)
(197.707 0 0)
(193.169 0 0)
(188.098 0 0)
(182.245 0 0)
(175.167 0 0)
(166.333 0 0)
(155.584 0 0)
(143.684 0 0)
(132.195 0 0)
(122.569 0 0)
(115.403 0 0)
(110.491 0 0)
(107.292 0 0)
(105.274 0 0)
(104.04 0 0)
(103.326 0 0)
(102.961 0 0)
(102.84 0 0)
(102.894 0 0)
(103.076 0 0)
(103.355 0 0)
(103.712 0 0)
(104.129 0 0)
(104.595 0 0)
(105.101 0 0)
(105.642 0 0)
(106.21 0 0)
(106.802 0 0)
(107.415 0 0)
(108.044 0 0)
(108.689 0 0)
(109.347 0 0)
(110.016 0 0)
(110.694 0 0)
(111.381 0 0)
(112.075 0 0)
(112.775 0 0)
(113.48 0 0)
(114.19 0 0)
(114.904 0 0)
(115.621 0 0)
(116.342 0 0)
(117.063 0 0)
(117.789 0 0)
(118.507 0 0)
(119.256 0 0)
(119.914 0 0)
(120.855 0 0)
(263.521 0 0)
(262.284 0 0)
(261.014 0 0)
(259.709 0 0)
(258.368 0 0)
(256.989 0 0)
(255.572 0 0)
(254.113 0 0)
(252.612 0 0)
(251.067 0 0)
(249.476 0 0)
(247.836 0 0)
(246.144 0 0)
(244.399 0 0)
(242.598 0 0)
(240.736 0 0)
(238.81 0 0)
(236.816 0 0)
(234.75 0 0)
(232.606 0 0)
(230.378 0 0)
(228.059 0 0)
(225.641 0 0)
(223.115 0 0)
(220.471 0 0)
(217.693 0 0)
(214.768 0 0)
(211.675 0 0)
(208.389 0 0)
(204.878 0 0)
(201.101 0 0)
(197.001 0 0)
(192.501 0 0)
(187.472 0 0)
(181.666 0 0)
(174.65 0 0)
(165.909 0 0)
(155.296 0 0)
(143.556 0 0)
(132.208 0 0)
(122.669 0 0)
(115.535 0 0)
(110.618 0 0)
(107.395 0 0)
(105.347 0 0)
(104.082 0 0)
(103.337 0 0)
(102.944 0 0)
(102.794 0 0)
(102.82 0 0)
(102.976 0 0)
(103.23 0 0)
(103.561 0 0)
(103.953 0 0)
(104.395 0 0)
(104.878 0 0)
(105.394 0 0)
(105.939 0 0)
(106.508 0 0)
(107.098 0 0)
(107.705 0 0)
(108.328 0 0)
(108.963 0 0)
(109.61 0 0)
(110.266 0 0)
(110.931 0 0)
(111.603 0 0)
(112.282 0 0)
(112.966 0 0)
(113.654 0 0)
(114.347 0 0)
(115.043 0 0)
(115.742 0 0)
(116.443 0 0)
(117.148 0 0)
(117.845 0 0)
(118.572 0 0)
(119.213 0 0)
(120.125 0 0)
(262.36 0 0)
(261.128 0 0)
(259.862 0 0)
(258.563 0 0)
(257.227 0 0)
(255.855 0 0)
(254.444 0 0)
(252.993 0 0)
(251.5 0 0)
(249.963 0 0)
(248.38 0 0)
(246.75 0 0)
(245.069 0 0)
(243.334 0 0)
(241.544 0 0)
(239.694 0 0)
(237.782 0 0)
(235.802 0 0)
(233.75 0 0)
(231.621 0 0)
(229.41 0 0)
(227.108 0 0)
(224.709 0 0)
(222.203 0 0)
(219.58 0 0)
(216.825 0 0)
(213.923 0 0)
(210.855 0 0)
(207.597 0 0)
(204.115 0 0)
(200.37 0 0)
(196.306 0 0)
(191.844 0 0)
(186.856 0 0)
(181.097 0 0)
(174.141 0 0)
(165.492 0 0)
(155.012 0 0)
(143.43 0 0)
(132.221 0 0)
(122.769 0 0)
(115.667 0 0)
(110.746 0 0)
(107.502 0 0)
(105.424 0 0)
(104.129 0 0)
(103.354 0 0)
(102.932 0 0)
(102.755 0 0)
(102.754 0 0)
(102.884 0 0)
(103.113 0 0)
(103.42 0 0)
(103.788 0 0)
(104.206 0 0)
(104.665 0 0)
(105.159 0 0)
(105.681 0 0)
(106.227 0 0)
(106.795 0 0)
(107.38 0 0)
(107.98 0 0)
(108.594 0 0)
(109.219 0 0)
(109.854 0 0)
(110.498 0 0)
(111.149 0 0)
(111.806 0 0)
(112.469 0 0)
(113.137 0 0)
(113.809 0 0)
(114.484 0 0)
(115.163 0 0)
(115.843 0 0)
(116.528 0 0)
(117.205 0 0)
(117.911 0 0)
(118.534 0 0)
(119.418 0 0)
(261.209 0 0)
(259.981 0 0)
(258.721 0 0)
(257.426 0 0)
(256.097 0 0)
(254.731 0 0)
(253.327 0 0)
(251.884 0 0)
(250.399 0 0)
(248.87 0 0)
(247.297 0 0)
(245.676 0 0)
(244.006 0 0)
(242.282 0 0)
(240.504 0 0)
(238.667 0 0)
(236.767 0 0)
(234.801 0 0)
(232.764 0 0)
(230.651 0 0)
(228.455 0 0)
(226.171 0 0)
(223.791 0 0)
(221.304 0 0)
(218.701 0 0)
(215.969 0 0)
(213.091 0 0)
(210.048 0 0)
(206.817 0 0)
(203.365 0 0)
(199.651 0 0)
(195.621 0 0)
(191.196 0 0)
(186.249 0 0)
(180.536 0 0)
(173.64 0 0)
(165.081 0 0)
(154.733 0 0)
(143.306 0 0)
(132.233 0 0)
(122.868 0 0)
(115.8 0 0)
(110.876 0 0)
(107.61 0 0)
(105.505 0 0)
(104.18 0 0)
(103.376 0 0)
(102.925 0 0)
(102.722 0 0)
(102.695 0 0)
(102.8 0 0)
(103.004 0 0)
(103.287 0 0)
(103.631 0 0)
(104.026 0 0)
(104.463 0 0)
(104.934 0 0)
(105.434 0 0)
(105.959 0 0)
(106.504 0 0)
(107.068 0 0)
(107.647 0 0)
(108.239 0 0)
(108.843 0 0)
(109.457 0 0)
(110.08 0 0)
(110.711 0 0)
(111.348 0 0)
(111.99 0 0)
(112.638 0 0)
(113.29 0 0)
(113.945 0 0)
(114.603 0 0)
(115.263 0 0)
(115.928 0 0)
(116.586 0 0)
(117.271 0 0)
(117.877 0 0)
(118.733 0 0)
(260.066 0 0)
(258.843 0 0)
(257.589 0 0)
(256.301 0 0)
(254.978 0 0)
(253.619 0 0)
(252.222 0 0)
(250.786 0 0)
(249.31 0 0)
(247.79 0 0)
(246.226 0 0)
(244.616 0 0)
(242.955 0 0)
(241.243 0 0)
(239.477 0 0)
(237.652 0 0)
(235.765 0 0)
(233.813 0 0)
(231.791 0 0)
(229.693 0 0)
(227.514 0 0)
(225.248 0 0)
(222.886 0 0)
(220.419 0 0)
(217.836 0 0)
(215.126 0 0)
(212.271 0 0)
(209.253 0 0)
(206.049 0 0)
(202.625 0 0)
(198.943 0 0)
(194.946 0 0)
(190.559 0 0)
(185.651 0 0)
(179.983 0 0)
(173.147 0 0)
(164.677 0 0)
(154.458 0 0)
(143.182 0 0)
(132.246 0 0)
(122.966 0 0)
(115.932 0 0)
(111.007 0 0)
(107.721 0 0)
(105.588 0 0)
(104.234 0 0)
(103.402 0 0)
(102.924 0 0)
(102.694 0 0)
(102.642 0 0)
(102.722 0 0)
(102.903 0 0)
(103.162 0 0)
(103.484 0 0)
(103.857 0 0)
(104.271 0 0)
(104.72 0 0)
(105.198 0 0)
(105.702 0 0)
(106.226 0 0)
(106.769 0 0)
(107.327 0 0)
(107.899 0 0)
(108.482 0 0)
(109.076 0 0)
(109.679 0 0)
(110.289 0 0)
(110.906 0 0)
(111.529 0 0)
(112.157 0 0)
(112.789 0 0)
(113.424 0 0)
(114.063 0 0)
(114.704 0 0)
(115.349 0 0)
(115.988 0 0)
(116.653 0 0)
(117.242 0 0)
(118.072 0 0)
(258.934 0 0)
(257.716 0 0)
(256.467 0 0)
(255.186 0 0)
(253.869 0 0)
(252.518 0 0)
(251.129 0 0)
(249.701 0 0)
(248.233 0 0)
(246.723 0 0)
(245.168 0 0)
(243.568 0 0)
(241.918 0 0)
(240.218 0 0)
(238.463 0 0)
(236.65 0 0)
(234.777 0 0)
(232.839 0 0)
(230.831 0 0)
(228.749 0 0)
(226.587 0 0)
(224.337 0 0)
(221.993 0 0)
(219.546 0 0)
(216.984 0 0)
(214.295 0 0)
(211.464 0 0)
(208.471 0 0)
(205.292 0 0)
(201.897 0 0)
(198.246 0 0)
(194.282 0 0)
(189.931 0 0)
(185.063 0 0)
(179.44 0 0)
(172.662 0 0)
(164.279 0 0)
(154.187 0 0)
(143.061 0 0)
(132.257 0 0)
(123.064 0 0)
(116.065 0 0)
(111.139 0 0)
(107.833 0 0)
(105.675 0 0)
(104.293 0 0)
(103.433 0 0)
(102.928 0 0)
(102.673 0 0)
(102.596 0 0)
(102.652 0 0)
(102.809 0 0)
(103.046 0 0)
(103.345 0 0)
(103.696 0 0)
(104.089 0 0)
(104.516 0 0)
(104.974 0 0)
(105.456 0 0)
(105.96 0 0)
(106.482 0 0)
(107.02 0 0)
(107.572 0 0)
(108.135 0 0)
(108.709 0 0)
(109.292 0 0)
(109.883 0 0)
(110.48 0 0)
(111.084 0 0)
(111.692 0 0)
(112.305 0 0)
(112.922 0 0)
(113.541 0 0)
(114.163 0 0)
(114.789 0 0)
(115.41 0 0)
(116.055 0 0)
(116.628 0 0)
(117.431 0 0)
(257.811 0 0)
(256.6 0 0)
(255.357 0 0)
(254.082 0 0)
(252.773 0 0)
(251.428 0 0)
(250.047 0 0)
(248.628 0 0)
(247.169 0 0)
(245.668 0 0)
(244.123 0 0)
(242.533 0 0)
(240.894 0 0)
(239.205 0 0)
(237.462 0 0)
(235.662 0 0)
(233.802 0 0)
(231.878 0 0)
(229.885 0 0)
(227.819 0 0)
(225.673 0 0)
(223.44 0 0)
(221.115 0 0)
(218.686 0 0)
(216.144 0 0)
(213.477 0 0)
(210.668 0 0)
(207.7 0 0)
(204.548 0 0)
(201.181 0 0)
(197.559 0 0)
(193.629 0 0)
(189.313 0 0)
(184.484 0 0)
(178.904 0 0)
(172.184 0 0)
(163.888 0 0)
(153.92 0 0)
(142.941 0 0)
(132.269 0 0)
(123.161 0 0)
(116.197 0 0)
(111.271 0 0)
(107.948 0 0)
(105.764 0 0)
(104.355 0 0)
(103.468 0 0)
(102.937 0 0)
(102.656 0 0)
(102.556 0 0)
(102.588 0 0)
(102.723 0 0)
(102.937 0 0)
(103.215 0 0)
(103.544 0 0)
(103.916 0 0)
(104.323 0 0)
(104.76 0 0)
(105.222 0 0)
(105.705 0 0)
(106.207 0 0)
(106.726 0 0)
(107.258 0 0)
(107.802 0 0)
(108.356 0 0)
(108.92 0 0)
(109.492 0 0)
(110.07 0 0)
(110.655 0 0)
(111.245 0 0)
(111.839 0 0)
(112.437 0 0)
(113.038 0 0)
(113.641 0 0)
(114.249 0 0)
(114.851 0 0)
(115.477 0 0)
(116.034 0 0)
(116.812 0 0)
(256.699 0 0)
(255.494 0 0)
(254.258 0 0)
(252.989 0 0)
(251.688 0 0)
(250.351 0 0)
(248.978 0 0)
(247.567 0 0)
(246.117 0 0)
(244.626 0 0)
(243.091 0 0)
(241.511 0 0)
(239.884 0 0)
(238.206 0 0)
(236.475 0 0)
(234.688 0 0)
(232.841 0 0)
(230.931 0 0)
(228.953 0 0)
(226.901 0 0)
(224.772 0 0)
(222.556 0 0)
(220.249 0 0)
(217.839 0 0)
(215.318 0 0)
(212.672 0 0)
(209.886 0 0)
(206.941 0 0)
(203.815 0 0)
(200.475 0 0)
(196.884 0 0)
(192.986 0 0)
(188.705 0 0)
(183.914 0 0)
(178.377 0 0)
(171.714 0 0)
(163.504 0 0)
(153.658 0 0)
(142.823 0 0)
(132.28 0 0)
(123.257 0 0)
(116.329 0 0)
(111.405 0 0)
(108.065 0 0)
(105.856 0 0)
(104.42 0 0)
(103.507 0 0)
(102.951 0 0)
(102.646 0 0)
(102.521 0 0)
(102.531 0 0)
(102.644 0 0)
(102.836 0 0)
(103.093 0 0)
(103.401 0 0)
(103.752 0 0)
(104.139 0 0)
(104.556 0 0)
(104.998 0 0)
(105.462 0 0)
(105.945 0 0)
(106.444 0 0)
(106.957 0 0)
(107.482 0 0)
(108.018 0 0)
(108.563 0 0)
(109.116 0 0)
(109.676 0 0)
(110.242 0 0)
(110.813 0 0)
(111.389 0 0)
(111.969 0 0)
(112.552 0 0)
(113.137 0 0)
(113.727 0 0)
(114.311 0 0)
(114.919 0 0)
(115.46 0 0)
(116.214 0 0)
(255.598 0 0)
(254.399 0 0)
(253.17 0 0)
(251.909 0 0)
(250.615 0 0)
(249.286 0 0)
(247.921 0 0)
(246.519 0 0)
(245.078 0 0)
(243.597 0 0)
(242.072 0 0)
(240.503 0 0)
(238.886 0 0)
(237.22 0 0)
(235.501 0 0)
(233.727 0 0)
(231.894 0 0)
(229.997 0 0)
(228.034 0 0)
(225.998 0 0)
(223.884 0 0)
(221.686 0 0)
(219.396 0 0)
(217.005 0 0)
(214.504 0 0)
(211.879 0 0)
(209.115 0 0)
(206.194 0 0)
(203.093 0 0)
(199.781 0 0)
(196.219 0 0)
(192.352 0 0)
(188.106 0 0)
(183.352 0 0)
(177.859 0 0)
(171.252 0 0)
(163.126 0 0)
(153.4 0 0)
(142.706 0 0)
(132.291 0 0)
(123.352 0 0)
(116.461 0 0)
(111.539 0 0)
(108.183 0 0)
(105.95 0 0)
(104.489 0 0)
(103.55 0 0)
(102.969 0 0)
(102.64 0 0)
(102.493 0 0)
(102.48 0 0)
(102.571 0 0)
(102.743 0 0)
(102.978 0 0)
(103.266 0 0)
(103.598 0 0)
(103.964 0 0)
(104.362 0 0)
(104.785 0 0)
(105.23 0 0)
(105.693 0 0)
(106.174 0 0)
(106.668 0 0)
(107.175 0 0)
(107.692 0 0)
(108.219 0 0)
(108.754 0 0)
(109.296 0 0)
(109.844 0 0)
(110.397 0 0)
(110.956 0 0)
(111.517 0 0)
(112.083 0 0)
(112.651 0 0)
(113.223 0 0)
(113.79 0 0)
(114.379 0 0)
(114.905 0 0)
(115.635 0 0)
(254.508 0 0)
(253.316 0 0)
(252.094 0 0)
(250.84 0 0)
(249.554 0 0)
(248.233 0 0)
(246.877 0 0)
(245.484 0 0)
(244.053 0 0)
(242.581 0 0)
(241.066 0 0)
(239.508 0 0)
(237.902 0 0)
(236.248 0 0)
(234.541 0 0)
(232.779 0 0)
(230.959 0 0)
(229.077 0 0)
(227.128 0 0)
(225.107 0 0)
(223.01 0 0)
(220.828 0 0)
(218.556 0 0)
(216.184 0 0)
(213.702 0 0)
(211.098 0 0)
(208.357 0 0)
(205.459 0 0)
(202.383 0 0)
(199.098 0 0)
(195.564 0 0)
(191.73 0 0)
(187.517 0 0)
(182.8 0 0)
(177.349 0 0)
(170.797 0 0)
(162.754 0 0)
(153.146 0 0)
(142.591 0 0)
(132.301 0 0)
(123.446 0 0)
(116.592 0 0)
(111.673 0 0)
(108.302 0 0)
(106.047 0 0)
(104.56 0 0)
(103.596 0 0)
(102.991 0 0)
(102.639 0 0)
(102.469 0 0)
(102.435 0 0)
(102.505 0 0)
(102.656 0 0)
(102.872 0 0)
(103.14 0 0)
(103.451 0 0)
(103.799 0 0)
(104.177 0 0)
(104.581 0 0)
(105.008 0 0)
(105.453 0 0)
(105.915 0 0)
(106.391 0 0)
(106.88 0 0)
(107.379 0 0)
(107.889 0 0)
(108.406 0 0)
(108.93 0 0)
(109.461 0 0)
(109.997 0 0)
(110.538 0 0)
(111.082 0 0)
(111.631 0 0)
(112.181 0 0)
(112.736 0 0)
(113.287 0 0)
(113.858 0 0)
(114.37 0 0)
(115.076 0 0)
(253.43 0 0)
(252.245 0 0)
(251.03 0 0)
(249.784 0 0)
(248.506 0 0)
(247.194 0 0)
(245.846 0 0)
(244.462 0 0)
(243.04 0 0)
(241.578 0 0)
(240.074 0 0)
(238.526 0 0)
(236.932 0 0)
(235.289 0 0)
(233.594 0 0)
(231.845 0 0)
(230.039 0 0)
(228.17 0 0)
(226.236 0 0)
(224.23 0 0)
(222.148 0 0)
(219.984 0 0)
(217.729 0 0)
(215.376 0 0)
(212.913 0 0)
(210.33 0 0)
(207.61 0 0)
(204.736 0 0)
(201.685 0 0)
(198.426 0 0)
(194.921 0 0)
(191.117 0 0)
(186.937 0 0)
(182.256 0 0)
(176.847 0 0)
(170.35 0 0)
(162.388 0 0)
(152.896 0 0)
(142.478 0 0)
(132.311 0 0)
(123.539 0 0)
(116.722 0 0)
(111.808 0 0)
(108.423 0 0)
(106.146 0 0)
(104.635 0 0)
(103.646 0 0)
(103.018 0 0)
(102.643 0 0)
(102.451 0 0)
(102.396 0 0)
(102.445 0 0)
(102.576 0 0)
(102.772 0 0)
(103.021 0 0)
(103.313 0 0)
(103.642 0 0)
(104.002 0 0)
(104.388 0 0)
(104.796 0 0)
(105.224 0 0)
(105.668 0 0)
(106.126 0 0)
(106.597 0 0)
(107.08 0 0)
(107.571 0 0)
(108.071 0 0)
(108.579 0 0)
(109.092 0 0)
(109.611 0 0)
(110.135 0 0)
(110.663 0 0)
(111.195 0 0)
(111.729 0 0)
(112.267 0 0)
(112.801 0 0)
(113.355 0 0)
(113.852 0 0)
(114.536 0 0)
(252.363 0 0)
(251.186 0 0)
(249.978 0 0)
(248.74 0 0)
(247.47 0 0)
(246.166 0 0)
(244.828 0 0)
(243.453 0 0)
(242.041 0 0)
(240.589 0 0)
(239.095 0 0)
(237.558 0 0)
(235.975 0 0)
(234.343 0 0)
(232.661 0 0)
(230.925 0 0)
(229.132 0 0)
(227.277 0 0)
(225.357 0 0)
(223.366 0 0)
(221.301 0 0)
(219.153 0 0)
(216.915 0 0)
(214.58 0 0)
(212.137 0 0)
(209.574 0 0)
(206.876 0 0)
(204.025 0 0)
(200.997 0 0)
(197.765 0 0)
(194.288 0 0)
(190.514 0 0)
(186.367 0 0)
(181.722 0 0)
(176.353 0 0)
(169.911 0 0)
(162.029 0 0)
(152.651 0 0)
(142.366 0 0)
(132.321 0 0)