/*--------------------------------*- C++ -*----------------------------------*\
| =========                 |                                                 |
| \\      /  F ield         | OpenFOAM: The Open Source CFD Toolbox           |
|  \\    /   O peration     | Version:  2312                                  |
|   \\  /    A nd           | Website:  www.openfoam.com                      |
|    \\/     M anipulation  |                                                 |
\*---------------------------------------------------------------------------*/
FoamFile
{
    version     2.0;
    format      ascii;
    arch        "LSB;label=32;scalar=64";
    class       volVectorField;
    location    "0.271";
    object      U;
}
// * * * * * * * * * * * * * * * * * * * * * * * * * * * * * * * * * * * * * //

dimensions      [0 1 -1 0 0 0 0];

internalField   nonuniform List<vector> 
31205
(
(198.263 0 0)
(195.205 0 0)
(192.049 0 0)
(188.789 0 0)
(185.416 0 0)
(181.922 0 0)
(178.299 0 0)
(174.535 0 0)
(170.62 0 0)
(166.541 0 0)
(162.285 0 0)
(157.84 0 0)
(153.194 0 0)
(148.342 0 0)
(143.289 0 0)
(138.065 0 0)
(132.741 0 0)
(127.44 0 0)
(122.337 0 0)
(117.626 0 0)
(113.483 0 0)
(110.022 0 0)
(107.279 0 0)
(105.227 0 0)
(103.793 0 0)
(102.887 0 0)
(102.419 0 0)
(102.305 0 0)
(102.477 0 0)
(102.877 0 0)
(103.46 0 0)
(104.189 0 0)
(105.036 0 0)
(105.979 0 0)
(106.999 0 0)
(108.082 0 0)
(109.218 0 0)
(110.396 0 0)
(111.61 0 0)
(112.852 0 0)
(114.119 0 0)
(115.406 0 0)
(116.709 0 0)
(118.025 0 0)
(119.352 0 0)
(120.688 0 0)
(122.031 0 0)
(123.379 0 0)
(124.732 0 0)
(126.087 0 0)
(127.445 0 0)
(128.803 0 0)
(130.162 0 0)
(131.52 0 0)
(132.878 0 0)
(134.234 0 0)
(135.589 0 0)
(136.941 0 0)
(138.291 0 0)
(139.637 0 0)
(140.981 0 0)
(142.322 0 0)
(143.658 0 0)
(144.991 0 0)
(146.321 0 0)
(147.646 0 0)
(148.967 0 0)
(150.283 0 0)
(151.595 0 0)
(152.903 0 0)
(154.206 0 0)
(155.505 0 0)
(156.799 0 0)
(158.087 0 0)
(159.376 0 0)
(160.641 0 0)
(161.961 0 0)
(163.091 0 0)
(164.785 0 0)
(195.013 0 0)
(191.948 0 0)
(188.785 0 0)
(185.515 0 0)
(182.133 0 0)
(178.628 0 0)
(174.993 0 0)
(171.216 0 0)
(167.286 0 0)
(163.192 0 0)
(158.921 0 0)
(154.464 0 0)
(149.812 0 0)
(144.966 0 0)
(139.946 0 0)
(134.798 0 0)
(129.617 0 0)
(124.544 0 0)
(119.757 0 0)
(115.432 0 0)
(111.708 0 0)
(108.656 0 0)
(106.282 0 0)
(104.538 0 0)
(103.348 0 0)
(102.628 0 0)
(102.294 0 0)
(102.273 0 0)
(102.506 0 0)
(102.942 0 0)
(103.542 0 0)
(104.274 0 0)
(105.113 0 0)
(106.039 0 0)
(107.036 0 0)
(108.093 0 0)
(109.197 0 0)
(110.342 0 0)
(111.52 0 0)
(112.725 0 0)
(113.954 0 0)
(115.201 0 0)
(116.464 0 0)
(117.74 0 0)
(119.026 0 0)
(120.321 0 0)
(121.623 0 0)
(122.931 0 0)
(124.242 0 0)
(125.557 0 0)
(126.874 0 0)
(128.192 0 0)
(129.511 0 0)
(130.829 0 0)
(132.147 0 0)
(133.464 0 0)
(134.78 0 0)
(136.093 0 0)
(137.404 0 0)
(138.713 0 0)
(140.019 0 0)
(141.321 0 0)
(142.621 0 0)
(143.917 0 0)
(145.209 0 0)
(146.498 0 0)
(147.783 0 0)
(149.064 0 0)
(150.34 0 0)
(151.613 0 0)
(152.881 0 0)
(154.145 0 0)
(155.405 0 0)
(156.658 0 0)
(157.914 0 0)
(159.145 0 0)
(160.43 0 0)
(161.533 0 0)
(163.177 0 0)
(191.59 0 0)
(188.514 0 0)
(185.339 0 0)
(182.056 0 0)
(178.658 0 0)
(175.137 0 0)
(171.484 0 0)
(167.687 0 0)
(163.737 0 0)
(159.623 0 0)
(155.333 0 0)
(150.862 0 0)
(146.207 0 0)
(141.38 0 0)
(136.415 0 0)
(131.383 0 0)
(126.399 0 0)
(121.617 0 0)
(117.203 0 0)
(113.307 0 0)
(110.023 0 0)
(107.385 0 0)
(105.372 0 0)
(103.926 0 0)
(102.969 0 0)
(102.424 0 0)
(102.216 0 0)
(102.284 0 0)
(102.574 0 0)
(103.045 0 0)
(103.661 0 0)
(104.395 0 0)
(105.227 0 0)
(106.138 0 0)
(107.114 0 0)
(108.144 0 0)
(109.219 0 0)
(110.331 0 0)
(111.474 0 0)
(112.644 0 0)
(113.835 0 0)
(115.044 0 0)
(116.268 0 0)
(117.505 0 0)
(118.751 0 0)
(120.007 0 0)
(121.269 0 0)
(122.536 0 0)
(123.808 0 0)
(125.083 0 0)
(126.36 0 0)
(127.639 0 0)
(128.919 0 0)
(130.198 0 0)
(131.477 0 0)
(132.756 0 0)
(134.033 0 0)
(135.308 0 0)
(136.582 0 0)
(137.853 0 0)
(139.122 0 0)
(140.388 0 0)
(141.65 0 0)
(142.91 0 0)
(144.167 0 0)
(145.419 0 0)
(146.669 0 0)
(147.914 0 0)
(149.156 0 0)
(150.394 0 0)
(151.628 0 0)
(152.858 0 0)
(154.084 0 0)
(155.304 0 0)
(156.525 0 0)
(157.725 0 0)
(158.975 0 0)
(160.051 0 0)
(161.645 0 0)
(188.086 0 0)
(184.996 0 0)
(181.804 0 0)
(178.505 0 0)
(175.088 0 0)
(171.547 0 0)
(167.872 0 0)
(164.053 0 0)
(160.079 0 0)
(155.943 0 0)
(151.635 0 0)
(147.154 0 0)
(142.507 0 0)
(137.719 0 0)
(132.845 0 0)
(127.977 0 0)
(123.246 0 0)
(118.806 0 0)
(114.803 0 0)
(111.349 0 0)
(108.5 0 0)
(106.256 0 0)
(104.58 0 0)
(103.405 0 0)
(102.659 0 0)
(102.271 0 0)
(102.178 0 0)
(102.325 0 0)
(102.667 0 0)
(103.169 0 0)
(103.799 0 0)
(104.536 0 0)
(105.36 0 0)
(106.256 0 0)
(107.212 0 0)
(108.217 0 0)
(109.264 0 0)
(110.345 0 0)
(111.456 0 0)
(112.59 0 0)
(113.745 0 0)
(114.918 0 0)
(116.105 0 0)
(117.303 0 0)
(118.512 0 0)
(119.729 0 0)
(120.952 0 0)
(122.181 0 0)
(123.414 0 0)
(124.651 0 0)
(125.889 0 0)
(127.13 0 0)
(128.371 0 0)
(129.613 0 0)
(130.854 0 0)
(132.095 0 0)
(133.335 0 0)
(134.573 0 0)
(135.81 0 0)
(137.044 0 0)
(138.277 0 0)
(139.506 0 0)
(140.734 0 0)
(141.958 0 0)
(143.179 0 0)
(144.397 0 0)
(145.611 0 0)
(146.823 0 0)
(148.03 0 0)
(149.234 0 0)
(150.434 0 0)
(151.63 0 0)
(152.823 0 0)
(154.01 0 0)
(155.199 0 0)
(156.366 0 0)
(157.583 0 0)
(158.631 0 0)
(160.179 0 0)
(184.539 0 0)
(181.433 0 0)
(178.224 0 0)
(174.906 0 0)
(171.469 0 0)
(167.906 0 0)
(164.207 0 0)
(160.364 0 0)
(156.368 0 0)
(152.211 0 0)
(147.891 0 0)
(143.412 0 0)
(138.793 0 0)
(134.077 0 0)
(129.339 0 0)
(124.689 0 0)
(120.264 0 0)
(116.205 0 0)
(112.63 0 0)
(109.612 0 0)
(107.173 0 0)
(105.291 0 0)
(103.914 0 0)
(102.979 0 0)
(102.418 0 0)
(102.168 0 0)
(102.174 0 0)
(102.39 0 0)
(102.777 0 0)
(103.304 0 0)
(103.946 0 0)
(104.684 0 0)
(105.5 0 0)
(106.381 0 0)
(107.316 0 0)
(108.297 0 0)
(109.317 0 0)
(110.368 0 0)
(111.447 0 0)
(112.548 0 0)
(113.669 0 0)
(114.806 0 0)
(115.956 0 0)
(117.118 0 0)
(118.29 0 0)
(119.47 0 0)
(120.656 0 0)
(121.847 0 0)
(123.043 0 0)
(124.242 0 0)
(125.443 0 0)
(126.646 0 0)
(127.851 0 0)
(129.055 0 0)
(130.26 0 0)
(131.464 0 0)
(132.668 0 0)
(133.87 0 0)
(135.071 0 0)
(136.27 0 0)
(137.466 0 0)
(138.661 0 0)
(139.853 0 0)
(141.043 0 0)
(142.229 0 0)
(143.413 0 0)
(144.594 0 0)
(145.771 0 0)
(146.945 0 0)
(148.116 0 0)
(149.283 0 0)
(150.446 0 0)
(151.606 0 0)
(152.761 0 0)
(153.918 0 0)
(155.054 0 0)
(156.237 0 0)
(157.258 0 0)
(158.763 0 0)
(180.965 0 0)
(177.842 0 0)
(174.615 0 0)
(171.276 0 0)
(167.818 0 0)
(164.232 0 0)
(160.51 0 0)
(156.644 0 0)
(152.627 0 0)
(148.457 0 0)
(144.135 0 0)
(139.677 0 0)
(135.116 0 0)
(130.514 0 0)
(125.963 0 0)
(121.585 0 0)
(117.51 0 0)
(113.857 0 0)
(110.709 0 0)
(108.107 0 0)
(106.044 0 0)
(104.484 0 0)
(103.371 0 0)
(102.644 0 0)
(102.242 0 0)
(102.11 0 0)
(102.201 0 0)
(102.474 0 0)
(102.898 0 0)
(103.447 0 0)
(104.097 0 0)
(104.833 0 0)
(105.64 0 0)
(106.506 0 0)
(107.421 0 0)
(108.378 0 0)
(109.371 0 0)
(110.393 0 0)
(111.441 0 0)
(112.51 0 0)
(113.597 0 0)
(114.7 0 0)
(115.816 0 0)
(116.943 0 0)
(118.078 0 0)
(119.222 0 0)
(120.372 0 0)
(121.527 0 0)
(122.686 0 0)
(123.849 0 0)
(125.014 0 0)
(126.181 0 0)
(127.349 0 0)
(128.518 0 0)
(129.687 0 0)
(130.856 0 0)
(132.024 0 0)
(133.191 0 0)
(134.357 0 0)
(135.521 0 0)
(136.683 0 0)
(137.843 0 0)
(139.001 0 0)
(140.157 0 0)
(141.31 0 0)
(142.46 0 0)
(143.608 0 0)
(144.752 0 0)
(145.893 0 0)
(147.031 0 0)
(148.166 0 0)
(149.297 0 0)
(150.426 0 0)
(151.549 0 0)
(152.674 0 0)
(153.779 0 0)
(154.93 0 0)
(155.924 0 0)
(157.387 0 0)
(177.369 0 0)
(174.227 0 0)
(170.98 0 0)
(167.621 0 0)
(164.14 0 0)
(160.531 0 0)
(156.787 0 0)
(152.902 0 0)
(148.871 0 0)
(144.697 0 0)
(140.392 0 0)
(135.982 0 0)
(131.518 0 0)
(127.078 0 0)
(122.769 0 0)
(118.708 0 0)
(115.013 0 0)
(111.773 0 0)
(109.039 0 0)
(106.822 0 0)
(105.097 0 0)
(103.822 0 0)
(102.938 0 0)
(102.39 0 0)
(102.123 0 0)
(102.091 0 0)
(102.253 0 0)
(102.575 0 0)
(103.03 0 0)
(103.594 0 0)
(104.25 0 0)
(104.983 0 0)
(105.779 0 0)
(106.629 0 0)
(107.524 0 0)
(108.458 0 0)
(109.425 0 0)
(110.419 0 0)
(111.436 0 0)
(112.474 0 0)
(113.529 0 0)
(114.599 0 0)
(115.68 0 0)
(116.773 0 0)
(117.874 0 0)
(118.983 0 0)
(120.098 0 0)
(121.218 0 0)
(122.342 0 0)
(123.469 0 0)
(124.599 0 0)
(125.731 0 0)
(126.864 0 0)
(127.998 0 0)
(129.132 0 0)
(130.266 0 0)
(131.4 0 0)
(132.532 0 0)
(133.664 0 0)
(134.794 0 0)
(135.923 0 0)
(137.05 0 0)
(138.175 0 0)
(139.297 0 0)
(140.417 0 0)
(141.535 0 0)
(142.65 0 0)
(143.762 0 0)
(144.871 0 0)
(145.977 0 0)
(147.081 0 0)
(148.18 0 0)
(149.278 0 0)
(150.37 0 0)
(151.464 0 0)
(152.539 0 0)
(153.658 0 0)
(154.626 0 0)
(156.047 0 0)
(173.749 0 0)
(170.588 0 0)
(167.321 0 0)
(163.94 0 0)
(160.438 0 0)
(156.808 0 0)
(153.045 0 0)
(149.145 0 0)
(145.11 0 0)
(140.949 0 0)
(136.684 0 0)
(132.358 0 0)
(128.037 0 0)
(123.812 0 0)
(119.792 0 0)
(116.086 0 0)
(112.786 0 0)
(109.952 0 0)
(107.606 0 0)
(105.739 0 0)
(104.315 0 0)
(103.287 0 0)
(102.601 0 0)
(102.205 0 0)
(102.054 0 0)
(102.106 0 0)
(102.328 0 0)
(102.69 0 0)
(103.169 0 0)
(103.746 0 0)
(104.404 0 0)
(105.132 0 0)
(105.916 0 0)
(106.75 0 0)
(107.626 0 0)
(108.536 0 0)
(109.477 0 0)
(110.444 0 0)
(111.432 0 0)
(112.44 0 0)
(113.463 0 0)
(114.5 0 0)
(115.549 0 0)
(116.609 0 0)
(117.676 0 0)
(118.751 0 0)
(119.832 0 0)
(120.918 0 0)
(122.008 0 0)
(123.101 0 0)
(124.196 0 0)
(125.294 0 0)
(126.393 0 0)
(127.493 0 0)
(128.594 0 0)
(129.694 0 0)
(130.794 0 0)
(131.893 0 0)
(132.992 0 0)
(134.089 0 0)
(135.185 0 0)
(136.279 0 0)
(137.372 0 0)
(138.462 0 0)
(139.55 0 0)
(140.636 0 0)
(141.719 0 0)
(142.8 0 0)
(143.877 0 0)
(144.953 0 0)
(146.025 0 0)
(147.094 0 0)
(148.161 0 0)
(149.223 0 0)
(150.286 0 0)
(151.332 0 0)
(152.42 0 0)
(153.362 0 0)
(154.743 0 0)
(170.105 0 0)
(166.925 0 0)
(163.637 0 0)
(160.235 0 0)
(156.712 0 0)
(153.064 0 0)
(149.287 0 0)
(145.383 0 0)
(141.359 0 0)
(137.233 0 0)
(133.042 0 0)
(128.843 0 0)
(124.715 0 0)
(120.754 0 0)
(117.063 0 0)
(113.732 0 0)
(110.827 0 0)
(108.381 0 0)
(106.392 0 0)
(104.838 0 0)
(103.678 0 0)
(102.863 0 0)
(102.346 0 0)
(102.08 0 0)
(102.027 0 0)
(102.15 0 0)
(102.422 0 0)
(102.817 0 0)
(103.316 0 0)
(103.901 0 0)
(104.559 0 0)
(105.28 0 0)
(106.052 0 0)
(106.87 0 0)
(107.725 0 0)
(108.613 0 0)
(109.528 0 0)
(110.468 0 0)
(111.428 0 0)
(112.406 0 0)
(113.399 0 0)
(114.405 0 0)
(115.423 0 0)
(116.45 0 0)
(117.485 0 0)
(118.527 0 0)
(119.574 0 0)
(120.627 0 0)
(121.684 0 0)
(122.744 0 0)
(123.806 0 0)
(124.871 0 0)
(125.937 0 0)
(127.004 0 0)
(128.071 0 0)
(129.139 0 0)
(130.206 0 0)
(131.273 0 0)
(132.34 0 0)
(133.405 0 0)
(134.469 0 0)
(135.531 0 0)
(136.592 0 0)
(137.65 0 0)
(138.707 0 0)
(139.762 0 0)
(140.814 0 0)
(141.864 0 0)
(142.912 0 0)
(143.956 0 0)
(144.998 0 0)
(146.038 0 0)
(147.074 0 0)
(148.107 0 0)
(149.141 0 0)
(150.157 0 0)
(151.215 0 0)
(152.132 0 0)
(153.474 0 0)
(166.435 0 0)
(163.236 0 0)
(159.928 0 0)
(156.506 0 0)
(152.966 0 0)
(149.305 0 0)
(145.524 0 0)
(141.629 0 0)
(137.636 0 0)
(133.577 0 0)
(129.501 0 0)
(125.476 0 0)
(121.589 0 0)
(117.934 0 0)
(114.599 0 0)
(111.65 0 0)
(109.128 0 0)
(107.041 0 0)
(105.375 0 0)
(104.097 0 0)
(103.165 0 0)
(102.534 0 0)
(102.161 0 0)
(102.006 0 0)
(102.035 0 0)
(102.219 0 0)
(102.532 0 0)
(102.954 0 0)
(103.467 0 0)
(104.058 0 0)
(104.714 0 0)
(105.427 0 0)
(106.187 0 0)
(106.987 0 0)
(107.822 0 0)
(108.688 0 0)
(109.579 0 0)
(110.492 0 0)
(111.425 0 0)
(112.374 0 0)
(113.337 0 0)
(114.313 0 0)
(115.3 0 0)
(116.296 0 0)
(117.299 0 0)
(118.309 0 0)
(119.325 0 0)
(120.346 0 0)
(121.37 0 0)
(122.398 0 0)
(123.428 0 0)
(124.46 0 0)
(125.494 0 0)
(126.529 0 0)
(127.565 0 0)
(128.601 0 0)
(129.636 0 0)
(130.672 0 0)
(131.707 0 0)
(132.74 0 0)
(133.773 0 0)
(134.804 0 0)
(135.834 0 0)
(136.862 0 0)
(137.889 0 0)
(138.913 0 0)
(139.935 0 0)
(140.955 0 0)
(141.973 0 0)
(142.988 0 0)
(144 0 0)
(145.01 0 0)
(146.018 0 0)
(147.021 0 0)
(148.026 0 0)
(149.015 0 0)
(150.043 0 0)
(150.934 0 0)
(152.238 0 0)
(162.74 0 0)
(159.521 0 0)
(156.195 0 0)
(152.757 0 0)
(149.205 0 0)
(145.54 0 0)
(141.767 0 0)
(137.902 0 0)
(133.97 0 0)
(130.016 0 0)
(126.099 0 0)
(122.297 0 0)
(118.695 0 0)
(115.376 0 0)
(112.407 0 0)
(109.833 0 0)
(107.671 0 0)
(105.912 0 0)
(104.533 0 0)
(103.496 0 0)
(102.761 0 0)
(102.287 0 0)
(102.037 0 0)
(101.976 0 0)
(102.074 0 0)
(102.308 0 0)
(102.655 0 0)
(103.098 0 0)
(103.623 0 0)
(104.217 0 0)
(104.869 0 0)
(105.572 0 0)
(106.319 0 0)
(107.102 0 0)
(107.918 0 0)
(108.761 0 0)
(109.628 0 0)
(110.516 0 0)
(111.422 0 0)
(112.343 0 0)
(113.278 0 0)
(114.224 0 0)
(115.181 0 0)
(116.146 0 0)
(117.119 0 0)
(118.099 0 0)
(119.083 0 0)
(120.073 0 0)
(121.066 0 0)
(122.063 0 0)
(123.062 0 0)
(124.063 0 0)
(125.065 0 0)
(126.069 0 0)
(127.074 0 0)
(128.079 0 0)
(129.083 0 0)
(130.088 0 0)
(131.092 0 0)
(132.096 0 0)
(133.098 0 0)
(134.099 0 0)
(135.099 0 0)
(136.097 0 0)
(137.094 0 0)
(138.089 0 0)
(139.081 0 0)
(140.072 0 0)
(141.06 0 0)
(142.047 0 0)
(143.03 0 0)
(144.012 0 0)
(144.991 0 0)
(145.966 0 0)
(146.943 0 0)
(147.903 0 0)
(148.903 0 0)
(149.77 0 0)
(151.036 0 0)
(159.02 0 0)
(155.784 0 0)
(152.442 0 0)
(148.993 0 0)
(145.437 0 0)
(141.781 0 0)
(138.037 0 0)
(134.228 0 0)
(130.394 0 0)
(126.588 0 0)
(122.877 0 0)
(119.341 0 0)
(116.057 0 0)
(113.09 0 0)
(110.486 0 0)
(108.269 0 0)
(106.437 0 0)
(104.972 0 0)
(103.844 0 0)
(103.015 0 0)
(102.45 0 0)
(102.11 0 0)
(101.964 0 0)
(101.982 0 0)
(102.139 0 0)
(102.414 0 0)
(102.789 0 0)
(103.249 0 0)
(103.781 0 0)
(104.376 0 0)
(105.023 0 0)
(105.717 0 0)
(106.449 0 0)
(107.216 0 0)
(108.012 0 0)
(108.833 0 0)
(109.677 0 0)
(110.539 0 0)
(111.419 0 0)
(112.313 0 0)
(113.22 0 0)
(114.138 0 0)
(115.066 0 0)
(116.002 0 0)
(116.945 0 0)
(117.895 0 0)
(118.849 0 0)
(119.809 0 0)
(120.772 0 0)
(121.738 0 0)
(122.707 0 0)
(123.677 0 0)
(124.65 0 0)
(125.623 0 0)
(126.598 0 0)
(127.572 0 0)
(128.547 0 0)
(129.522 0 0)
(130.496 0 0)
(131.47 0 0)
(132.443 0 0)
(133.415 0 0)
(134.385 0 0)
(135.354 0 0)
(136.322 0 0)
(137.288 0 0)
(138.252 0 0)
(139.214 0 0)
(140.174 0 0)
(141.132 0 0)
(142.088 0 0)
(143.041 0 0)
(143.992 0 0)
(144.939 0 0)
(145.889 0 0)
(146.822 0 0)
(147.793 0 0)
(148.636 0 0)
(149.866 0 0)
(155.277 0 0)
(152.026 0 0)
(148.675 0 0)
(145.223 0 0)
(141.677 0 0)
(138.048 0 0)
(134.359 0 0)
(130.642 0 0)
(126.947 0 0)
(123.334 0 0)
(119.874 0 0)
(116.638 0 0)
(113.69 0 0)
(111.077 0 0)
(108.825 0 0)
(106.938 0 0)
(105.404 0 0)
(104.198 0 0)
(103.288 0 0)
(102.639 0 0)
(102.218 0 0)
(101.992 0 0)
(101.934 0 0)
(102.018 0 0)
(102.224 0 0)
(102.534 0 0)
(102.931 0 0)
(103.404 0 0)
(103.942 0 0)
(104.535 0 0)
(105.176 0 0)
(105.859 0 0)
(106.577 0 0)
(107.327 0 0)
(108.103 0 0)
(108.903 0 0)
(109.724 0 0)
(110.562 0 0)
(111.417 0 0)
(112.285 0 0)
(113.165 0 0)
(114.055 0 0)
(114.955 0 0)
(115.863 0 0)
(116.777 0 0)
(117.697 0 0)
(118.623 0 0)
(119.553 0 0)
(120.486 0 0)
(121.423 0 0)
(122.362 0 0)
(123.304 0 0)
(124.247 0 0)
(125.191 0 0)
(126.136 0 0)
(127.081 0 0)
(128.027 0 0)
(128.973 0 0)
(129.918 0 0)
(130.863 0 0)
(131.807 0 0)
(132.75 0 0)
(133.692 0 0)
(134.633 0 0)
(135.572 0 0)
(136.51 0 0)
(137.446 0 0)
(138.38 0 0)
(139.313 0 0)
(140.243 0 0)
(141.171 0 0)
(142.097 0 0)
(143.021 0 0)
(143.942 0 0)
(144.864 0 0)
(145.771 0 0)
(146.714 0 0)
(147.534 0 0)
(148.727 0 0)
(151.514 0 0)
(148.255 0 0)
(144.902 0 0)
(141.461 0 0)
(137.943 0 0)
(134.368 0 0)
(130.766 0 0)
(127.182 0 0)
(123.669 0 0)
(120.293 0 0)
(117.118 0 0)
(114.205 0 0)
(111.599 0 0)
(109.33 0 0)
(107.405 0 0)
(105.818 0 0)
(104.548 0 0)
(103.568 0 0)
(102.847 0 0)
(102.352 0 0)
(102.053 0 0)
(101.924 0 0)
(101.941 0 0)
(102.081 0 0)
(102.328 0 0)
(102.665 0 0)
(103.081 0 0)
(103.564 0 0)
(104.104 0 0)
(104.695 0 0)
(105.328 0 0)
(105.999 0 0)
(106.703 0 0)
(107.436 0 0)
(108.193 0 0)
(108.972 0 0)
(109.77 0 0)
(110.585 0 0)
(111.415 0 0)
(112.257 0 0)
(113.111 0 0)
(113.975 0 0)
(114.847 0 0)
(115.727 0 0)
(116.614 0 0)
(117.506 0 0)
(118.404 0 0)
(119.305 0 0)
(120.21 0 0)
(121.118 0 0)
(122.029 0 0)
(122.942 0 0)
(123.856 0 0)
(124.772 0 0)
(125.688 0 0)
(126.605 0 0)
(127.523 0 0)
(128.44 0 0)
(129.357 0 0)
(130.274 0 0)
(131.19 0 0)
(132.106 0 0)
(133.02 0 0)
(133.933 0 0)
(134.845 0 0)
(135.755 0 0)
(136.664 0 0)
(137.571 0 0)
(138.476 0 0)
(139.38 0 0)
(140.281 0 0)
(141.18 0 0)
(142.078 0 0)
(142.972 0 0)
(143.868 0 0)
(144.749 0 0)
(145.665 0 0)
(146.462 0 0)
(147.62 0 0)
(147.739 0 0)
(144.481 0 0)
(141.14 0 0)
(137.728 0 0)
(134.263 0 0)
(130.773 0 0)
(127.298 0 0)
(123.888 0 0)
(120.601 0 0)
(117.496 0 0)
(114.63 0 0)
(112.047 0 0)
(109.777 0 0)
(107.831 0 0)
(106.207 0 0)
(104.887 0 0)
(103.849 0 0)
(103.065 0 0)
(102.504 0 0)
(102.141 0 0)
(101.947 0 0)
(101.899 0 0)
(101.978 0 0)
(102.165 0 0)
(102.446 0 0)
(102.806 0 0)
(103.236 0 0)
(103.726 0 0)
(104.267 0 0)
(104.853 0 0)
(105.478 0 0)
(106.138 0 0)
(106.827 0 0)
(107.542 0 0)
(108.281 0 0)
(109.039 0 0)
(109.816 0 0)
(110.607 0 0)
(111.413 0 0)
(112.231 0 0)
(113.059 0 0)
(113.897 0 0)
(114.743 0 0)
(115.597 0 0)
(116.456 0 0)
(117.321 0 0)
(118.191 0 0)
(119.065 0 0)
(119.943 0 0)
(120.823 0 0)
(121.706 0 0)
(122.591 0 0)
(123.478 0 0)
(124.366 0 0)
(125.254 0 0)
(126.144 0 0)
(127.034 0 0)
(127.924 0 0)
(128.813 0 0)
(129.703 0 0)
(130.592 0 0)
(131.48 0 0)
(132.367 0 0)
(133.253 0 0)
(134.138 0 0)
(135.022 0 0)
(135.904 0 0)
(136.785 0 0)
(137.664 0 0)
(138.541 0 0)
(139.416 0 0)
(140.29 0 0)
(141.161 0 0)
(142.03 0 0)
(142.899 0 0)
(143.755 0 0)
(144.645 0 0)
(145.42 0 0)
(146.544 0 0)
(143.963 0 0)
(140.718 0 0)
(137.407 0 0)
(134.049 0 0)
(130.669 0 0)
(127.303 0 0)
(123.996 0 0)
(120.802 0 0)
(117.774 0 0)
(114.966 0 0)
(112.419 0 0)
(110.163 0 0)
(108.21 0 0)
(106.562 0 0)
(105.206 0 0)
(104.122 0 0)
(103.285 0 0)
(102.669 0 0)
(102.247 0 0)
(101.994 0 0)
(101.889 0 0)
(101.91 0 0)
(102.042 0 0)
(102.268 0 0)
(102.576 0 0)
(102.955 0 0)
(103.396 0 0)
(103.889 0 0)
(104.429 0 0)
(105.01 0 0)
(105.626 0 0)
(106.274 0 0)
(106.948 0 0)
(107.647 0 0)
(108.367 0 0)
(109.105 0 0)
(109.86 0 0)
(110.629 0 0)
(111.412 0 0)
(112.206 0 0)
(113.009 0 0)
(113.822 0 0)
(114.643 0 0)
(115.47 0 0)
(116.304 0 0)
(117.142 0 0)
(117.986 0 0)
(118.833 0 0)
(119.684 0 0)
(120.537 0 0)
(121.393 0 0)
(122.251 0 0)
(123.111 0 0)
(123.972 0 0)
(124.834 0 0)
(125.697 0 0)
(126.56 0 0)
(127.423 0 0)
(128.286 0 0)
(129.149 0 0)
(130.011 0 0)
(130.873 0 0)
(131.734 0 0)
(132.594 0 0)
(133.453 0 0)
(134.31 0 0)
(135.167 0 0)
(136.022 0 0)
(136.875 0 0)
(137.726 0 0)
(138.576 0 0)
(139.424 0 0)
(140.27 0 0)
(141.114 0 0)
(141.958 0 0)
(142.79 0 0)
(143.654 0 0)
(144.407 0 0)
(145.497 0 0)
(140.2 0 0)
(136.988 0 0)
(133.733 0 0)
(130.459 0 0)
(127.201 0 0)
(123.998 0 0)
(120.9 0 0)
(117.955 0 0)
(115.213 0 0)
(112.713 0 0)
(110.483 0 0)
(108.538 0 0)
(106.88 0 0)
(105.5 0 0)
(104.381 0 0)
(103.502 0 0)
(102.838 0 0)
(102.365 0 0)
(102.061 0 0)
(101.902 0 0)
(101.872 0 0)
(101.951 0 0)
(102.127 0 0)
(102.386 0 0)
(102.716 0 0)
(103.11 0 0)
(103.558 0 0)
(104.054 0 0)
(104.592 0 0)
(105.166 0 0)
(105.772 0 0)
(106.407 0 0)
(107.067 0 0)
(107.749 0 0)
(108.45 0 0)
(109.169 0 0)
(109.903 0 0)
(110.651 0 0)
(111.411 0 0)
(112.181 0 0)
(112.961 0 0)
(113.75 0 0)
(114.545 0 0)
(115.348 0 0)
(116.156 0 0)
(116.969 0 0)
(117.786 0 0)
(118.608 0 0)
(119.433 0 0)
(120.26 0 0)
(121.09 0 0)
(121.922 0 0)
(122.756 0 0)
(123.59 0 0)
(124.426 0 0)
(125.263 0 0)
(126.1 0 0)
(126.937 0 0)
(127.774 0 0)
(128.611 0 0)
(129.448 0 0)
(130.284 0 0)
(131.12 0 0)
(131.954 0 0)
(132.787 0 0)
(133.62 0 0)
(134.451 0 0)
(135.281 0 0)
(136.109 0 0)
(136.935 0 0)
(137.76 0 0)
(138.583 0 0)
(139.405 0 0)
(140.224 0 0)
(141.044 0 0)
(141.851 0 0)
(142.69 0 0)
(143.422 0 0)
(144.479 0 0)
(136.474 0 0)
(133.319 0 0)
(130.15 0 0)
(126.998 0 0)
(123.899 0 0)
(120.899 0 0)
(118.043 0 0)
(115.374 0 0)
(112.929 0 0)
(110.736 0 0)
(108.81 0 0)
(107.154 0 0)
(105.762 0 0)
(104.62 0 0)
(103.709 0 0)
(103.006 0 0)
(102.491 0 0)
(102.141 0 0)
(101.936 0 0)
(101.857 0 0)
(101.89 0 0)
(102.018 0 0)
(102.23 0 0)
(102.516 0 0)
(102.865 0 0)
(103.269 0 0)
(103.723 0 0)
(104.219 0 0)
(104.753 0 0)
(105.32 0 0)
(105.916 0 0)
(106.538 0 0)
(107.184 0 0)
(107.849 0 0)
(108.532 0 0)
(109.232 0 0)
(109.946 0 0)
(110.672 0 0)
(111.41 0 0)
(112.158 0 0)
(112.915 0 0)
(113.679 0 0)
(114.451 0 0)
(115.229 0 0)
(116.013 0 0)
(116.801 0 0)
(117.594 0 0)
(118.39 0 0)
(119.189 0 0)
(119.992 0 0)
(120.796 0 0)
(121.603 0 0)
(122.411 0 0)
(123.221 0 0)
(124.031 0 0)
(124.842 0 0)
(125.654 0 0)
(126.466 0 0)
(127.278 0 0)
(128.09 0 0)
(128.902 0 0)
(129.713 0 0)
(130.523 0 0)
(131.333 0 0)
(132.142 0 0)
(132.949 0 0)
(133.756 0 0)
(134.561 0 0)
(135.365 0 0)
(136.167 0 0)
(136.968 0 0)
(137.767 0 0)
(138.565 0 0)
(139.359 0 0)
(140.155 0 0)
(140.939 0 0)
(141.753 0 0)
(142.465 0 0)
(143.49 0 0)
(132.815 0 0)
(129.748 0 0)
(126.7 0 0)
(123.706 0 0)
(120.805 0 0)
(118.04 0 0)
(115.45 0 0)
(113.069 0 0)
(110.922 0 0)
(109.026 0 0)
(107.383 0 0)
(105.99 0 0)
(104.835 0 0)
(103.901 0 0)
(103.169 0 0)
(102.618 0 0)
(102.229 0 0)
(101.983 0 0)
(101.862 0 0)
(101.851 0 0)
(101.937 0 0)
(102.106 0 0)
(102.349 0 0)
(102.656 0 0)
(103.019 0 0)
(103.432 0 0)
(103.889 0 0)
(104.384 0 0)
(104.913 0 0)
(105.472 0 0)
(106.058 0 0)
(106.667 0 0)
(107.298 0 0)
(107.947 0 0)
(108.612 0 0)
(109.293 0 0)
(109.987 0 0)
(110.693 0 0)
(111.409 0 0)
(112.135 0 0)
(112.87 0 0)
(113.611 0 0)
(114.36 0 0)
(115.114 0 0)
(115.874 0 0)
(116.638 0 0)
(117.407 0 0)
(118.179 0 0)
(118.954 0 0)
(119.732 0 0)
(120.512 0 0)
(121.294 0 0)
(122.077 0 0)
(122.862 0 0)
(123.648 0 0)
(124.435 0 0)
(125.222 0 0)
(126.01 0 0)
(126.797 0 0)
(127.585 0 0)
(128.372 0 0)
(129.159 0 0)
(129.945 0 0)
(130.731 0 0)
(131.515 0 0)
(132.299 0 0)
(133.081 0 0)
(133.863 0 0)
(134.643 0 0)
(135.421 0 0)
(136.198 0 0)
(136.974 0 0)
(137.748 0 0)
(138.519 0 0)
(139.292 0 0)
(140.053 0 0)
(140.843 0 0)
(141.534 0 0)
(142.528 0 0)
(129.257 0 0)
(126.313 0 0)
(123.423 0 0)
(120.623 0 0)
(117.952 0 0)
(115.445 0 0)
(113.134 0 0)
(111.042 0 0)
(109.184 0 0)
(107.564 0 0)
(106.18 0 0)
(105.021 0 0)
(104.074 0 0)
(103.32 0 0)
(102.742 0 0)
(102.321 0 0)
(102.04 0 0)
(101.882 0 0)
(101.833 0 0)
(101.879 0 0)
(102.009 0 0)
(102.212 0 0)
(102.48 0 0)
(102.804 0 0)
(103.179 0 0)
(103.598 0 0)
(104.056 0 0)
(104.548 0 0)
(105.072 0 0)
(105.622 0 0)
(106.197 0 0)
(106.793 0 0)
(107.409 0 0)
(108.042 0 0)
(108.691 0 0)
(109.353 0 0)
(110.027 0 0)
(110.713 0 0)
(111.409 0 0)
(112.114 0 0)
(112.826 0 0)
(113.546 0 0)
(114.272 0 0)
(115.003 0 0)
(115.74 0 0)
(116.481 0 0)
(117.226 0 0)
(117.974 0 0)
(118.726 0 0)
(119.48 0 0)
(120.236 0 0)
(120.994 0 0)
(121.754 0 0)
(122.515 0 0)
(123.277 0 0)
(124.04 0 0)
(124.803 0 0)
(125.567 0 0)
(126.331 0 0)
(127.095 0 0)
(127.858 0 0)
(128.621 0 0)
(129.384 0 0)
(130.146 0 0)
(130.907 0 0)
(131.667 0 0)
(132.427 0 0)
(133.185 0 0)
(133.942 0 0)
(134.697 0 0)
(135.451 0 0)
(136.204 0 0)
(136.955 0 0)
(137.704 0 0)
(138.454 0 0)
(139.192 0 0)
(139.959 0 0)
(140.63 0 0)
(141.593 0 0)
(125.843 0 0)
(123.056 0 0)
(120.359 0 0)
(117.784 0 0)
(115.364 0 0)
(113.128 0 0)
(111.098 0 0)
(109.286 0 0)
(107.697 0 0)
(106.33 0 0)
(105.177 0 0)
(104.225 0 0)
(103.457 0 0)
(102.859 0 0)
(102.413 0 0)
(102.102 0 0)
(101.912 0 0)
(101.829 0 0)
(101.84 0 0)
(101.934 0 0)
(102.101 0 0)
(102.332 0 0)
(102.621 0 0)
(102.959 0 0)
(103.342 0 0)
(103.765 0 0)
(104.223 0 0)
(104.712 0 0)
(105.228 0 0)
(105.77 0 0)
(106.333 0 0)
(106.917 0 0)
(107.518 0 0)
(108.135 0 0)
(108.767 0 0)
(109.411 0 0)
(110.067 0 0)
(110.733 0 0)
(111.409 0 0)
(112.093 0 0)
(112.784 0 0)
(113.482 0 0)
(114.186 0 0)
(114.896 0 0)
(115.61 0 0)
(116.329 0 0)
(117.051 0 0)
(117.776 0 0)
(118.505 0 0)
(119.236 0 0)
(119.969 0 0)
(120.704 0 0)
(121.441 0 0)
(122.179 0 0)
(122.918 0 0)
(123.657 0 0)
(124.397 0 0)
(125.138 0 0)
(125.879 0 0)
(126.619 0 0)
(127.36 0 0)
(128.1 0 0)
(128.84 0 0)
(129.579 0 0)
(130.317 0 0)
(131.055 0 0)
(131.791 0 0)
(132.527 0 0)
(133.261 0 0)
(133.994 0 0)
(134.726 0 0)
(135.456 0 0)
(136.185 0 0)
(136.912 0 0)
(137.639 0 0)
(138.356 0 0)
(139.1 0 0)
(139.752 0 0)
(140.685 0 0)
(122.613 0 0)
(120.017 0 0)
(117.54 0 0)
(115.211 0 0)
(113.055 0 0)
(111.091 0 0)
(109.332 0 0)
(107.782 0 0)
(106.441 0 0)
(105.301 0 0)
(104.351 0 0)
(103.578 0 0)
(102.966 0 0)
(102.501 0 0)
(102.167 0 0)
(101.95 0 0)
(101.837 0 0)
(101.817 0 0)
(101.879 0 0)
(102.012 0 0)
(102.21 0 0)
(102.465 0 0)
(102.77 0 0)
(103.119 0 0)
(103.509 0 0)
(103.933 0 0)
(104.389 0 0)
(104.874 0 0)
(105.383 0 0)
(105.915 0 0)
(106.467 0 0)
(107.038 0 0)
(107.625 0 0)
(108.226 0 0)
(108.841 0 0)
(109.468 0 0)
(110.105 0 0)
(110.753 0 0)
(111.409 0 0)
(112.073 0 0)
(112.743 0 0)
(113.421 0 0)
(114.104 0 0)
(114.792 0 0)
(115.484 0 0)
(116.181 0 0)
(116.881 0 0)
(117.585 0 0)
(118.291 0 0)
(119 0 0)
(119.711 0 0)
(120.423 0 0)
(121.137 0 0)
(121.853 0 0)
(122.569 0 0)
(123.286 0 0)
(124.004 0 0)
(124.722 0 0)
(125.44 0 0)
(126.159 0 0)
(126.877 0 0)
(127.595 0 0)
(128.312 0 0)
(129.029 0 0)
(129.745 0 0)
(130.461 0 0)
(131.175 0 0)
(131.889 0 0)
(132.601 0 0)
(133.312 0 0)
(134.022 0 0)
(134.73 0 0)
(135.438 0 0)
(136.142 0 0)
(136.848 0 0)
(137.544 0 0)
(138.265 0 0)
(138.899 0 0)
(139.803 0 0)
(119.605 0 0)
(117.228 0 0)
(114.991 0 0)
(112.918 0 0)
(111.025 0 0)
(109.324 0 0)
(107.82 0 0)
(106.511 0 0)
(105.391 0 0)
(104.451 0 0)
(103.678 0 0)
(103.06 0 0)
(102.581 0 0)
(102.229 0 0)
(101.991 0 0)
(101.853 0 0)
(101.806 0 0)
(101.839 0 0)
(101.943 0 0)
(102.11 0 0)
(102.334 0 0)
(102.608 0 0)
(102.926 0 0)
(103.283 0 0)
(103.677 0 0)
(104.102 0 0)
(104.555 0 0)
(105.034 0 0)
(105.535 0 0)
(106.058 0 0)
(106.599 0 0)
(107.156 0 0)
(107.729 0 0)
(108.315 0 0)
(108.914 0 0)
(109.523 0 0)
(110.143 0 0)
(110.772 0 0)
(111.409 0 0)
(112.053 0 0)
(112.704 0 0)
(113.361 0 0)
(114.024 0 0)
(114.691 0 0)
(115.363 0 0)
(116.038 0 0)
(116.717 0 0)
(117.399 0 0)
(118.084 0 0)
(118.771 0 0)
(119.46 0 0)
(120.151 0 0)
(120.843 0 0)
(121.537 0 0)
(122.231 0 0)
(122.927 0 0)
(123.623 0 0)
(124.319 0 0)
(125.015 0 0)
(125.712 0 0)
(126.408 0 0)
(127.105 0 0)
(127.8 0 0)
(128.496 0 0)
(129.19 0 0)
(129.884 0 0)
(130.577 0 0)
(131.269 0 0)
(131.96 0 0)
(132.65 0 0)
(133.339 0 0)
(134.026 0 0)
(134.712 0 0)
(135.396 0 0)
(136.08 0 0)
(136.755 0 0)
(137.455 0 0)
(138.07 0 0)
(138.946 0 0)
(116.851 0 0)
(114.709 0 0)
(112.721 0 0)
(110.904 0 0)
(109.266 0 0)
(107.812 0 0)
(106.541 0 0)
(105.448 0 0)
(104.524 0 0)
(103.758 0 0)
(103.139 0 0)
(102.653 0 0)
(102.288 0 0)
(102.032 0 0)
(101.875 0 0)
(101.804 0 0)
(101.812 0 0)
(101.89 0 0)
(102.03 0 0)
(102.225 0 0)
(102.469 0 0)
(102.758 0 0)
(103.086 0 0)
(103.45 0 0)
(103.846 0 0)
(104.27 0 0)
(104.719 0 0)
(105.192 0 0)
(105.686 0 0)
(106.198 0 0)
(106.727 0 0)
(107.272 0 0)
(107.831 0 0)
(108.402 0 0)
(108.984 0 0)
(109.577 0 0)
(110.18 0 0)
(110.791 0 0)
(111.409 0 0)
(112.035 0 0)
(112.666 0 0)
(113.304 0 0)
(113.946 0 0)
(114.593 0 0)
(115.245 0 0)
(115.9 0 0)
(116.558 0 0)
(117.219 0 0)
(117.883 0 0)
(118.549 0 0)
(119.217 0 0)
(119.887 0 0)
(120.558 0 0)
(121.231 0 0)
(121.904 0 0)
(122.578 0 0)
(123.253 0 0)
(123.928 0 0)
(124.603 0 0)
(125.279 0 0)
(125.954 0 0)
(126.629 0 0)
(127.304 0 0)
(127.978 0 0)
(128.652 0 0)
(129.325 0 0)
(129.997 0 0)
(130.668 0 0)
(131.338 0 0)
(132.007 0 0)
(132.675 0 0)
(133.342 0 0)
(134.007 0 0)
(134.67 0 0)
(135.335 0 0)
(135.99 0 0)
(136.668 0 0)
(137.265 0 0)
(138.113 0 0)
(114.37 0 0)
(112.471 0 0)
(110.731 0 0)
(109.161 0 0)
(107.762 0 0)
(106.534 0 0)
(105.473 0 0)
(104.57 0 0)
(103.817 0 0)
(103.201 0 0)
(102.713 0 0)
(102.341 0 0)
(102.072 0 0)
(101.898 0 0)
(101.809 0 0)
(101.795 0 0)
(101.85 0 0)
(101.965 0 0)
(102.134 0 0)
(102.352 0 0)
(102.614 0 0)
(102.915 0 0)
(103.251 0 0)
(103.619 0 0)
(104.015 0 0)
(104.437 0 0)
(104.882 0 0)
(105.348 0 0)
(105.833 0 0)
(106.335 0 0)
(106.853 0 0)
(107.385 0 0)
(107.93 0 0)
(108.486 0 0)
(109.053 0 0)
(109.63 0 0)
(110.216 0 0)
(110.809 0 0)
(111.41 0 0)
(112.017 0 0)
(112.63 0 0)
(113.248 0 0)
(113.871 0 0)
(114.499 0 0)
(115.131 0 0)
(115.766 0 0)
(116.404 0 0)
(117.045 0 0)
(117.689 0 0)
(118.335 0 0)
(118.982 0 0)
(119.632 0 0)
(120.282 0 0)
(120.934 0 0)
(121.587 0 0)
(122.241 0 0)
(122.895 0 0)
(123.549 0 0)
(124.204 0 0)
(124.859 0 0)
(125.514 0 0)
(126.168 0 0)
(126.823 0 0)
(127.477 0 0)
(128.13 0 0)
(128.782 0 0)
(129.434 0 0)
(130.085 0 0)
(130.735 0 0)
(131.384 0 0)
(132.032 0 0)
(132.678 0 0)
(133.323 0 0)
(133.967 0 0)
(134.611 0 0)
(135.246 0 0)
(135.904 0 0)
(136.483 0 0)
(137.304 0 0)
(112.171 0 0)
(110.512 0 0)
(109.011 0 0)
(107.671 0 0)
(106.49 0 0)
(105.465 0 0)
(104.589 0 0)
(103.853 0 0)
(103.247 0 0)
(102.761 0 0)
(102.385 0 0)
(102.109 0 0)
(101.923 0 0)
(101.818 0 0)
(101.786 0 0)
(101.82 0 0)
(101.914 0 0)
(102.06 0 0)
(102.254 0 0)
(102.491 0 0)
(102.766 0 0)
(103.077 0 0)
(103.419 0 0)
(103.789 0 0)
(104.184 0 0)
(104.603 0 0)
(105.043 0 0)
(105.502 0 0)
(105.978 0 0)
(106.47 0 0)
(106.976 0 0)
(107.496 0 0)
(108.027 0 0)
(108.569 0 0)
(109.121 0 0)
(109.681 0 0)
(110.25 0 0)
(110.827 0 0)
(111.41 0 0)
(111.999 0 0)
(112.594 0 0)
(113.194 0 0)
(113.799 0 0)
(114.408 0 0)
(115.02 0 0)
(115.636 0 0)
(116.255 0 0)
(116.877 0 0)
(117.501 0 0)
(118.127 0 0)
(118.755 0 0)
(119.384 0 0)
(120.015 0 0)
(120.647 0 0)
(121.28 0 0)
(121.913 0 0)
(122.548 0 0)
(123.182 0 0)
(123.817 0 0)
(124.452 0 0)
(125.087 0 0)
(125.722 0 0)
(126.356 0 0)
(126.99 0 0)
(127.623 0 0)
(128.256 0 0)
(128.888 0 0)
(129.519 0 0)
(130.15 0 0)
(130.779 0 0)
(131.407 0 0)
(132.034 0 0)
(132.66 0 0)
(133.283 0 0)
(133.908 0 0)
(134.524 0 0)
(135.162 0 0)
(135.724 0 0)
(136.519 0 0)
(110.25 0 0)
(108.821 0 0)
(107.542 0 0)
(106.412 0 0)
(105.428 0 0)
(104.582 0 0)
(103.868 0 0)
(103.275 0 0)
(102.796 0 0)
(102.421 0 0)
(102.14 0 0)
(101.946 0 0)
(101.829 0 0)
(101.782 0 0)
(101.8 0 0)
(101.874 0 0)
(102 0 0)
(102.172 0 0)
(102.386 0 0)
(102.639 0 0)
(102.925 0 0)
(103.242 0 0)
(103.588 0 0)
(103.959 0 0)
(104.353 0 0)
(104.768 0 0)
(105.202 0 0)
(105.653 0 0)
(106.12 0 0)
(106.602 0 0)
(107.097 0 0)
(107.604 0 0)
(108.121 0 0)
(108.649 0 0)
(109.186 0 0)
(109.731 0 0)
(110.284 0 0)
(110.844 0 0)
(111.411 0 0)
(111.983 0 0)
(112.56 0 0)