/*--------------------------------*- C++ -*----------------------------------*\
| =========                 |                                                 |
| \\      /  F ield         | OpenFOAM: The Open Source CFD Toolbox           |
|  \\    /   O peration     | Version:  2312                                  |
|   \\  /    A nd           | Website:  www.openfoam.com                      |
|    \\/     M anipulation  |                                                 |
\*---------------------------------------------------------------------------*/
FoamFile
{
    version     2.0;
    format      ascii;
    arch        "LSB;label=32;scalar=64";
    class       volVectorField;
    location    "0.2";
    object      flux;
}
// * * * * * * * * * * * * * * * * * * * * * * * * * * * * * * * * * * * * * //

dimensions      [0 1 -1 1 0 0 0];

internalField   nonuniform List<vector> 
100
(
(-5.83166 0 0)
(-5.70847 0 0)
(-5.57946 0 0)
(-5.44543 0 0)
(-5.30716 0 0)
(-5.16535 0 0)
(-5.02069 0 0)
(-4.87382 0 0)
(-4.72533 0 0)
(-4.57577 0 0)
(-4.42567 0 0)
(-4.2755 0 0)
(-4.12572 0 0)
(-3.97672 0 0)
(-3.82889 0 0)
(-3.68257 0 0)
(-3.53808 0 0)
(-3.39569 0 0)
(-3.25566 0 0)
(-3.11823 0 0)
(-2.98359 0 0)
(-2.85191 0 0)
(-2.72337 0 0)
(-2.59808 0 0)
(-2.47616 0 0)
(-2.35771 0 0)
(-2.24278 0 0)
(-2.13145 0 0)
(-2.02375 0 0)
(-1.9197 0 0)
(-1.81932 0 0)
(-1.72261 0 0)
(-1.62954 0 0)
(-1.5401 0 0)
(-1.45425 0 0)
(-1.37195 0 0)
(-1.29315 0 0)
(-1.21778 0 0)
(-1.14577 0 0)
(-1.07707 0 0)
(-1.01159 0 0)
(-0.949249 0 0)
(-0.889963 0 0)
(-0.833644 0 0)
(-0.780202 0 0)
(-0.729546 0 0)
(-0.68158 0 0)
(-0.636209 0 0)
(-0.59334 0 0)
(-0.552875 0 0)
(-0.51472 0 0)
(-0.47878 0 0)
(-0.444961 0 0)
(-0.413169 0 0)
(-0.383315 0 0)
(-0.355308 0 0)
(-0.329059 0 0)
(-0.304484 0 0)
(-0.281498 0 0)
(-0.26002 0 0)
(-0.23997 0 0)
(-0.221272 0 0)
(-0.203852 0 0)
(-0.187638 0 0)
(-0.172561 0 0)
(-0.158555 0 0)
(-0.145556 0 0)
(-0.133503 0 0)
(-0.122337 0 0)
(-0.112003 0 0)
(-0.102448 0 0)
(-0.0936201 0 0)
(-0.0854718 0 0)
(-0.0779571 0 0)
(-0.0710324 0 0)
(-0.0646564 0 0)
(-0.0587899 0 0)
(-0.0533961 0 0)
(-0.0484401 0 0)
(-0.0438887 0 0)
(-0.0397109 0 0)
(-0.0358774 0 0)
(-0.0323605 0 0)
(-0.0291342 0 0)
(-0.0261738 0 0)
(-0.0234564 0 0)
(-0.02096 0 0)
(-0.0186641 0 0)
(-0.0165494 0 0)
(-0.0145975 0 0)
(-0.0127909 0 0)
(-0.0111133 0 0)
(-0.00954893 0 0)
(-0.00808276 0 0)
(-0.00670049 0 0)
(-0.00538828 0 0)
(-0.00413278 0 0)
(-0.002921 0 0)
(-0.00174025 0 0)
(-0.000578029 0 0)
)
;

boundaryField
{
    movingWall
    {
        type            calculated;
        value           uniform (-5.89169 0 0);
    }
    fixedWalls
    {
        type            calculated;
        value           nonuniform List<vector> 
201
(
(-5.83166 0 0)
(-5.70847 0 0)
(-5.57946 0 0)
(-5.44543 0 0)
(-5.30716 0 0)
(-5.16535 0 0)
(-5.02069 0 0)
(-4.87382 0 0)
(-4.72533 0 0)
(-4.57577 0 0)
(-4.42567 0 0)
(-4.2755 0 0)
(-4.12572 0 0)
(-3.97672 0 0)
(-3.82889 0 0)
(-3.68257 0 0)
(-3.53808 0 0)
(-3.39569 0 0)
(-3.25566 0 0)
(-3.11823 0 0)
(-2.98359 0 0)
(-2.85191 0 0)
(-2.72337 0 0)
(-2.59808 0 0)
(-2.47616 0 0)
(-2.35771 0 0)
(-2.24278 0 0)
(-2.13145 0 0)
(-2.02375 0 0)
(-1.9197 0 0)
(-1.81932 0 0)
(-1.72261 0 0)
(-1.62954 0 0)
(-1.5401 0 0)
(-1.45425 0 0)
(-1.37195 0 0)
(-1.29315 0 0)
(-1.21778 0 0)
(-1.14577 0 0)
(-1.07707 0 0)
(-1.01159 0 0)
(-0.949249 0 0)
(-0.889963 0 0)
(-0.833644 0 0)
(-0.780202 0 0)
(-0.729546 0 0)
(-0.68158 0 0)
(-0.636209 0 0)
(-0.59334 0 0)
(-0.552875 0 0)
(-0.51472 0 0)
(-0.47878 0 0)
(-0.444961 0 0)
(-0.413169 0 0)
(-0.383315 0 0)
(-0.355308 0 0)
(-0.329059 0 0)
(-0.304484 0 0)
(-0.281498 0 0)
(-0.26002 0 0)
(-0.23997 0 0)
(-0.221272 0 0)
(-0.203852 0 0)
(-0.187638 0 0)
(-0.172561 0 0)
(-0.158555 0 0)
(-0.145556 0 0)
(-0.133503 0 0)
(-0.122337 0 0)
(-0.112003 0 0)
(-0.102448 0 0)
(-0.0936201 0 0)
(-0.0854718 0 0)
(-0.0779571 0 0)
(-0.0710324 0 0)
(-0.0646564 0 0)
(-0.0587899 0 0)
(-0.0533961 0 0)
(-0.0484401 0 0)
(-0.0438887 0 0)
(-0.0397109 0 0)
(-0.0358774 0 0)
(-0.0323605 0 0)
(-0.0291342 0 0)
(-0.0261738 0 0)
(-0.0234564 0 0)
(-0.02096 0 0)
(-0.0186641 0 0)
(-0.0165494 0 0)
(-0.0145975 0 0)
(-0.0127909 0 0)
(-0.0111133 0 0)
(-0.00954893 0 0)
(-0.00808276 0 0)
(-0.00670049 0 0)
(-0.00538828 0 0)
(-0.00413278 0 0)
(-0.002921 0 0)
(-0.00174025 0 0)
(-0.000578029 0 0)
(0 0 0)
(-5.83166 0 0)
(-5.70847 0 0)
(-5.57946 0 0)
(-5.44543 0 0)
(-5.30716 0 0)
(-5.16535 0 0)
(-5.02069 0 0)
(-4.87382 0 0)
(-4.72533 0 0)
(-4.57577 0 0)
(-4.42567 0 0)
(-4.2755 0 0)
(-4.12572 0 0)
(-3.97672 0 0)
(-3.82889 0 0)
(-3.68257 0 0)
(-3.53808 0 0)
(-3.39569 0 0)
(-3.25566 0 0)
(-3.11823 0 0)
(-2.98359 0 0)
(-2.85191 0 0)
(-2.72337 0 0)
(-2.59808 0 0)
(-2.47616 0 0)
(-2.35771 0 0)
(-2.24278 0 0)
(-2.13145 0 0)
(-2.02375 0 0)
(-1.9197 0 0)
(-1.81932 0 0)
(-1.72261 0 0)
(-1.62954 0 0)
(-1.5401 0 0)
(-1.45425 0 0)
(-1.37195 0 0)
(-1.29315 0 0)
(-1.21778 0 0)
(-1.14577 0 0)
(-1.07707 0 0)
(-1.01159 0 0)
(-0.949249 0 0)
(-0.889963 0 0)
(-0.833644 0 0)
(-0.780202 0 0)
(-0.729546 0 0)
(-0.68158 0 0)
(-0.636209 0 0)
(-0.59334 0 0)
(-0.552875 0 0)
(-0.51472 0 0)
(-0.47878 0 0)
(-0.444961 0 0)
(-0.413169 0 0)
(-0.383315 0 0)
(-0.355308 0 0)
(-0.329059 0 0)
(-0.304484 0 0)
(-0.281498 0 0)
(-0.26002 0 0)
(-0.23997 0 0)
(-0.221272 0 0)
(-0.203852 0 0)
(-0.187638 0 0)
(-0.172561 0 0)
(-0.158555 0 0)
(-0.145556 0 0)
(-0.133503 0 0)
(-0.122337 0 0)
(-0.112003 0 0)
(-0.102448 0 0)
(-0.0936201 0 0)
(-0.0854718 0 0)
(-0.0779571 0 0)
(-0.0710324 0 0)
(-0.0646564 0 0)
(-0.0587899 0 0)
(-0.0533961 0 0)
(-0.0484401 0 0)
(-0.0438887 0 0)
(-0.0397109 0 0)
(-0.0358774 0 0)
(-0.0323605 0 0)
(-0.0291342 0 0)
(-0.0261738 0 0)
(-0.0234564 0 0)
(-0.02096 0 0)
(-0.0186641 0 0)
(-0.0165494 0 0)
(-0.0145975 0 0)
(-0.0127909 0 0)
(-0.0111133 0 0)
(-0.00954893 0 0)
(-0.00808276 0 0)
(-0.00670049 0 0)
(-0.00538828 0 0)
(-0.00413278 0 0)
(-0.002921 0 0)
(-0.00174025 0 0)
(-0.000578029 0 0)
)
;
    }
    frontAndBack
    {
        type            empty;
    }
}


// ************************************************************************* //
