/*--------------------------------*- C++ -*----------------------------------*\
| =========                 |                                                 |
| \\      /  F ield         | OpenFOAM: The Open Source CFD Toolbox           |
|  \\    /   O peration     | Version:  2312                                  |
|   \\  /    A nd           | Website:  www.openfoam.com                      |
|    \\/     M anipulation  |                                                 |
\*---------------------------------------------------------------------------*/
FoamFile
{
    version     2.0;
    format      ascii;
    arch        "LSB;label=32;scalar=64";
    class       volScalarField;
    location    "0.2";
    object      gradTx;
}
// * * * * * * * * * * * * * * * * * * * * * * * * * * * * * * * * * * * * * //

dimensions      [0 -1 0 1 0 0 0];

internalField   nonuniform List<scalar> 
100
(
-5.83166
-5.70847
-5.57946
-5.44543
-5.30716
-5.16535
-5.02069
-4.87382
-4.72533
-4.57577
-4.42567
-4.2755
-4.12572
-3.97672
-3.82889
-3.68257
-3.53808
-3.39569
-3.25566
-3.11823
-2.98359
-2.85191
-2.72337
-2.59808
-2.47616
-2.35771
-2.24278
-2.13145
-2.02375
-1.9197
-1.81932
-1.72261
-1.62954
-1.5401
-1.45425
-1.37195
-1.29315
-1.21778
-1.14577
-1.07707
-1.01159
-0.949249
-0.889963
-0.833644
-0.780202
-0.729546
-0.68158
-0.636209
-0.59334
-0.552875
-0.51472
-0.47878
-0.444961
-0.413169
-0.383315
-0.355308
-0.329059
-0.304484
-0.281498
-0.26002
-0.23997
-0.221272
-0.203852
-0.187638
-0.172561
-0.158555
-0.145556
-0.133503
-0.122337
-0.112003
-0.102448
-0.0936201
-0.0854718
-0.0779571
-0.0710324
-0.0646564
-0.0587899
-0.0533961
-0.0484401
-0.0438887
-0.0397109
-0.0358774
-0.0323605
-0.0291342
-0.0261738
-0.0234564
-0.02096
-0.0186641
-0.0165494
-0.0145975
-0.0127909
-0.0111133
-0.00954893
-0.00808276
-0.00670049
-0.00538828
-0.00413278
-0.002921
-0.00174025
-0.000578029
)
;

boundaryField
{
    movingWall
    {
        type            calculated;
        value           uniform -5.89169;
    }
    fixedWalls
    {
        type            calculated;
        value           nonuniform List<scalar> 
201
(
-5.83166
-5.70847
-5.57946
-5.44543
-5.30716
-5.16535
-5.02069
-4.87382
-4.72533
-4.57577
-4.42567
-4.2755
-4.12572
-3.97672
-3.82889
-3.68257
-3.53808
-3.39569
-3.25566
-3.11823
-2.98359
-2.85191
-2.72337
-2.59808
-2.47616
-2.35771
-2.24278
-2.13145
-2.02375
-1.9197
-1.81932
-1.72261
-1.62954
-1.5401
-1.45425
-1.37195
-1.29315
-1.21778
-1.14577
-1.07707
-1.01159
-0.949249
-0.889963
-0.833644
-0.780202
-0.729546
-0.68158
-0.636209
-0.59334
-0.552875
-0.51472
-0.47878
-0.444961
-0.413169
-0.383315
-0.355308
-0.329059
-0.304484
-0.281498
-0.26002
-0.23997
-0.221272
-0.203852
-0.187638
-0.172561
-0.158555
-0.145556
-0.133503
-0.122337
-0.112003
-0.102448
-0.0936201
-0.0854718
-0.0779571
-0.0710324
-0.0646564
-0.0587899
-0.0533961
-0.0484401
-0.0438887
-0.0397109
-0.0358774
-0.0323605
-0.0291342
-0.0261738
-0.0234564
-0.02096
-0.0186641
-0.0165494
-0.0145975
-0.0127909
-0.0111133
-0.00954893
-0.00808276
-0.00670049
-0.00538828
-0.00413278
-0.002921
-0.00174025
-0.000578029
0
-5.83166
-5.70847
-5.57946
-5.44543
-5.30716
-5.16535
-5.02069
-4.87382
-4.72533
-4.57577
-4.42567
-4.2755
-4.12572
-3.97672
-3.82889
-3.68257
-3.53808
-3.39569
-3.25566
-3.11823
-2.98359
-2.85191
-2.72337
-2.59808
-2.47616
-2.35771
-2.24278
-2.13145
-2.02375
-1.9197
-1.81932
-1.72261
-1.62954
-1.5401
-1.45425
-1.37195
-1.29315
-1.21778
-1.14577
-1.07707
-1.01159
-0.949249
-0.889963
-0.833644
-0.780202
-0.729546
-0.68158
-0.636209
-0.59334
-0.552875
-0.51472
-0.47878
-0.444961
-0.413169
-0.383315
-0.355308
-0.329059
-0.304484
-0.281498
-0.26002
-0.23997
-0.221272
-0.203852
-0.187638
-0.172561
-0.158555
-0.145556
-0.133503
-0.122337
-0.112003
-0.102448
-0.0936201
-0.0854718
-0.0779571
-0.0710324
-0.0646564
-0.0587899
-0.0533961
-0.0484401
-0.0438887
-0.0397109
-0.0358774
-0.0323605
-0.0291342
-0.0261738
-0.0234564
-0.02096
-0.0186641
-0.0165494
-0.0145975
-0.0127909
-0.0111133
-0.00954893
-0.00808276
-0.00670049
-0.00538828
-0.00413278
-0.002921
-0.00174025
-0.000578029
)
;
    }
    frontAndBack
    {
        type            empty;
    }
}


// ************************************************************************* //
