/*--------------------------------*- C++ -*----------------------------------*\
| =========                 |                                                 |
| \\      /  F ield         | OpenFOAM: The Open Source CFD Toolbox           |
|  \\    /   O peration     | Version:  2312                                  |
|   \\  /    A nd           | Website:  www.openfoam.com                      |
|    \\/     M anipulation  |                                                 |
\*---------------------------------------------------------------------------*/
FoamFile
{
    version     2.0;
    format      ascii;
    arch        "LSB;label=32;scalar=64";
    class       surfaceScalarField;
    location    "0.718";
    object      phi;
}
// * * * * * * * * * * * * * * * * * * * * * * * * * * * * * * * * * * * * * //

dimensions      [0 3 -1 0 0 0 0];

oriented        oriented;

internalField   nonuniform List<scalar> 
62015
(
76.1183
0.400358
-76.3382
75.8947
0.393023
75.6678
0.385447
75.4381
0.377636
75.206
0.369596
74.972
0.361334
74.7364
0.352855
74.4996
0.344167
74.262
0.335276
74.0239
0.326189
73.7855
0.316912
73.5473
0.307452
73.3094
0.297817
73.0721
0.288013
72.8356
0.278048
72.6002
0.267929
72.366
0.257664
72.1331
0.247259
71.9018
0.236724
71.6721
0.226065
71.4442
0.21529
71.218
0.204408
70.9937
0.193427
70.7713
0.182354
70.5508
0.171199
70.3321
0.15997
70.1152
0.148674
69.9001
0.137322
69.6865
0.125921
69.4745
0.114481
69.2637
0.103011
69.054
0.0915196
68.8451
0.0800174
68.6368
0.0685125
68.4286
0.0570159
68.2203
0.0455363
68.0114
0.0340851
67.8014
0.0226712
67.5898
0.0113059
67.3759
0
67.1591
-0.0112359
66.9387
-0.0223894
66.7136
-0.0334506
66.4831
-0.0444054
66.2459
-0.0552427
66.0008
-0.0659484
65.7465
-0.0765096
65.4814
-0.0869108
65.2036
-0.0971381
64.911
-0.107174
64.6013
-0.117
64.2715
-0.126599
63.9176
-0.13595
63.5361
-0.145025
63.1246
-0.153801
62.6769
-0.162254
62.1661
-0.17035
61.5615
-0.177979
60.9434
-0.18501
60.539
-0.191706
60.0888
-0.198941
57.6704
-0.205741
50.8655
-0.204157
41.0308
-0.183726
32.8407
-0.150737
28.535
-0.125007
26.9518
-0.113837
26.5626
-0.111902
26.6104
-0.113843
26.8173
-0.117199
27.0885
-0.121076
27.3913
-0.125162
27.7134
-0.129346
28.0499
-0.133582
28.397
-0.137857
28.758
-0.142137
29.1168
-0.146487
29.5199
-0.150673
-0.155403
29.8225
73.9824
0.790323
-74.2099
73.7522
0.775706
73.5195
0.760626
73.2848
0.745093
73.0485
0.729121
72.8109
0.71272
72.5725
0.695902
72.3335
0.678681
72.0943
0.661069
71.8551
0.643078
71.6163
0.624722
71.3781
0.606014
71.1407
0.586967
70.9044
0.567595
70.6694
0.547913
70.4359
0.527933
70.204
0.507671
69.9739
0.48714
69.7457
0.466357
69.5195
0.445335
69.2954
0.424091
69.0735
0.402639
68.8539
0.380995
68.6365
0.359175
68.4213
0.337195
68.2083
0.315072
67.9976
0.292821
67.7889
0.270461
67.5822
0.248007
67.3774
0.225477
67.1743
0.202889
66.9728
0.18026
66.7725
0.157609
66.5733
0.134953
66.3747
0.112312
66.1766
0.0897042
65.9785
0.0671492
65.7799
0.0446665
65.5805
0.0222768
65.3795
0
65.1765
-0.0221425
64.9707
-0.0441289
64.7613
-0.0659374
64.5475
-0.0875448
64.3284
-0.108926
64.1028
-0.130059
63.8696
-0.150916
63.6273
-0.17147
63.3743
-0.191693
63.1088
-0.211554
62.8288
-0.231021
62.5319
-0.25006
62.2149
-0.26863
61.8741
-0.28669
61.5064
-0.304189
61.1098
-0.321079
60.674
-0.337318
60.1663
-0.352805
59.5735
-0.367271
59.03
-0.380565
58.7318
-0.393685
58.0551
-0.408254
54.663
-0.419139
46.834
-0.405869
37.2504
-0.353068
30.3318
-0.286224
27.0893
-0.242616
26.0068
-0.226721
25.7996
-0.225711
25.9062
-0.230539
26.1287
-0.237463
26.4002
-0.245162
26.6971
-0.253183
27.0109
-0.261353
27.3362
-0.269618
27.6756
-0.277902
28.0138
-0.286322
28.3934
-0.29444
-0.303573
28.6823
71.9012
1.17007
-72.1351
71.6653
1.14823
71.4277
1.12573
71.1888
1.10258
70.949
1.07878
70.7086
1.05437
70.4679
1.02936
70.2273
1.00376
69.9869
0.977603
69.7472
0.950894
69.5083
0.923657
69.2704
0.89591
69.0339
0.867673
68.7989
0.838966
68.5655
0.809809
68.334
0.780222
68.1045
0.750226
67.8772
0.719842
67.6521
0.689092
67.4294
0.657996
67.2092
0.626578
66.9914
0.59486
66.7762
0.562863
66.5636
0.530612
66.3536
0.498129
66.146
0.465439
65.941
0.432564
65.7385
0.39953
65.5383
0.36636
65.3403
0.33308
65.1443
0.299716
64.9503
0.266293
64.758
0.232836
64.5672
0.199373
64.3775
0.165931
64.1888
0.132536
64.0005
0.0992171
63.8124
0.0660016
63.624
0.0329199
63.4348
0
63.2442
-0.0327272
63.0517
-0.0652302
62.8565
-0.0974776
62.6579
-0.129437
62.455
-0.161074
62.2469
-0.192354
62.0325
-0.22324
61.8105
-0.253694
61.5796
-0.283676
61.3382
-0.313144
61.0844
-0.342052
60.8163
-0.370352
60.5314
-0.397992
60.2266
-0.424914
59.8981
-0.451052
59.5437
-0.476332
59.1607
-0.500687
58.7335
-0.524052
58.2269
-0.54621
57.6572
-0.566703
57.2089
-0.585648
56.9728
-0.605286
55.8683
-0.626873
51.3487
-0.636146
42.7635
-0.597853
33.8341
-0.503844
28.2237
-0.408143
25.8652
-0.355598
25.1587
-0.339977
25.0821
-0.341737
25.2295
-0.34998
25.4615
-0.360532
25.7311
-0.37195
26.022
-0.383728
26.326
-0.395696
26.6445
-0.407717
26.963
-0.41994
27.3203
-0.431747
-0.444975
27.5952
69.8699
1.53971
-70.109
69.6295
1.51074
69.3882
1.48091
69.1462
1.45024
68.9039
1.41875
68.6615
1.38647
68.4194
1.35342
68.1778
1.31961
67.937
1.28508
67.6973
1.24984
67.4588
1.21392
67.2218
1.17735
66.9865
1.14014
66.7531
1.10233
66.5218
1.06394
66.2926
1.025
66.0658
0.985527
65.8414
0.945558
65.6196
0.905116
65.4005
0.864231
65.1841
0.82293
64.9705
0.781242
64.7598
0.739195
64.5519
0.696821
64.3468
0.654148
64.1446
0.611208
63.9451
0.56803
63.7484
0.524646
63.5544
0.481089
63.3628
0.43739
63.1737
0.393581
62.9868
0.349695
62.802
0.305768
62.619
0.261831
62.4376
0.217919
62.2576
0.174069
62.0785
0.130315
61.9
0.0866944
61.7218
0.0432434
61.5434
0
61.3642
-0.0429972
61.1838
-0.0857085
61.0016
-0.128094
60.8167
-0.170111
60.6285
-0.211718
60.4362
-0.25287
60.2387
-0.29352
60.035
-0.333623
59.8239
-0.373125
59.6039
-0.411977
59.3736
-0.450121
59.1311
-0.487497
58.8744
-0.524042
58.601
-0.559686
58.3076
-0.594352
57.9909
-0.62795
57.6494
-0.660383
57.2787
-0.691577
56.8565
-0.721416
56.3516
-0.7495
55.8219
-0.775243
55.484
-0.79952
55.2257
-0.826077
53.4644
-0.853071
47.7658
-0.851136
38.8014
-0.773454
30.8509
-0.635565
26.4783
-0.520402
24.8209
-0.466785
24.3887
-0.454641
24.4041
-0.460146
24.5788
-0.472012
24.8157
-0.486139
25.0822
-0.501121
25.3651
-0.516488
25.6635
-0.531978
25.963
-0.547745
26.2991
-0.563005
-0.580042
26.5601
67.8864
1.89936
-68.1293
67.6429
1.86335
67.3989
1.8263
67.1548
1.78824
66.9109
1.7492
66.6674
1.70919
66.4247
1.66825
66.183
1.62641
65.9424
1.58368
65.7034
1.54011
65.4659
1.49571
65.2303
1.45052
64.9968
1.40457
64.7654
1.35789
64.5364
1.31051
64.3099
1.26246
64.086
1.21377
63.8649
1.16448
63.6466
1.11462
63.4312
1.06422
63.2188
1.01332
63.0094
0.961952
62.8032
0.910152
62.6
0.857955
62.3999
0.805397
62.2029
0.752516
62.0089
0.699348
61.8179
0.645931
61.6298
0.592304
61.4445
0.538505
61.2619
0.484573
61.0818
0.430549
60.9041
0.376472
60.7286
0.322385
60.555
0.268327
60.3831
0.214342
60.2126
0.160473
60.0432
0.106764
59.8745
0.0532572
59.7061
0
59.5375
-0.052962
59.3684
-0.105582
59.198
-0.157811
59.0258
-0.2096
58.8511
-0.260898
58.6732
-0.311652
58.4912
-0.361808
58.3041
-0.411309
58.1109
-0.460097
57.9104
-0.508109
57.7011
-0.555281
57.4816
-0.601544
57.2501
-0.646824
57.0045
-0.69104
56.7423
-0.734108
56.4601
-0.775928
56.1553
-0.816386
55.8266
-0.855373
55.4665
-0.892803
55.0469
-0.928468
54.5488
-0.961725
54.0796
-0.992064
53.8491
-1.02173
53.4424
-1.05555
50.8302
-1.08407
44.0739
-1.058
35.1652
-0.929312
28.3668
-0.751784
25.0581
-0.627667
23.9221
-0.57839
23.6812
-0.571321
23.7585
-0.580922
23.9501
-0.596402
24.1887
-0.613967
24.4497
-0.632359
24.728
-0.651032
25.0092
-0.670085
25.325
-0.688567
-0.709144
25.5724
65.9499
2.24915
-66.1955
65.7043
2.20621
65.4587
2.16206
65.2135
2.11675
64.9689
2.07029
64.7252
2.02271
64.4826
1.97405
64.2415
1.92434
64.0018
1.87361
63.764
1.82189
63.5281
1.76922
63.2944
1.71564
63.0631
1.66116
62.8342
1.60584
62.6079
1.5497
62.3844
1.49279
62.1637
1.43514
61.9461
1.37679
61.7314
1.31778
61.52
1.25814
61.3117
1.19792
61.1067
1.13716
60.905
1.07589
60.7065
1.01416
60.5114
0.952019
60.3196
0.889498
60.131
0.826643
59.9456
0.7635
59.7633
0.700112
59.5841
0.636524
59.4078
0.572781
59.2343
0.508931
59.0634
0.44502
58.895
0.381094
58.7289
0.317203
58.5647
0.253395
58.4023
0.18972
58.2414
0.126228
58.0816
0.0629708
57.9226
0
57.764
-0.0626311
57.6052
-0.124868
57.4459
-0.186656
57.2854
-0.247937
57.1232
-0.308655
56.9586
-0.368747
56.7907
-0.428154
56.6189
-0.48681
56.442
-0.544649
56.2592
-0.601602
56.0691
-0.657596
55.8704
-0.712554
55.6616
-0.766393
55.4409
-0.819026
55.2063
-0.870359
54.9551
-0.920288
54.6841
-0.968692
54.3914
-1.01544
54.0753
-1.0604
53.7241
-1.10349
53.306
-1.14433
52.8242
-1.18203
52.4343
-1.21652
52.2837
-1.25199
51.5792
-1.29281
48.0042
-1.31609
40.4486
-1.25148
31.9791
-1.06565
26.3507
-0.85765
23.895
-0.733608
23.1323
-0.691674
23.0216
-0.690216
23.1392
-0.70391
23.3409
-0.722861
23.5774
-0.743718
23.8354
-0.765229
24.0984
-0.787294
24.3947
-0.808767
-0.832619
24.6288
64.06
2.58922
-64.3071
63.8132
2.53947
63.567
2.48836
63.3215
2.43592
63.077
2.38219
62.8339
2.32721
62.5922
2.271
62.3522
2.21361
62.114
2.15506
61.878
2.0954
61.6442
2.03466
61.4129
1.97289
61.1841
1.91011
60.958
1.84638
60.7348
1.78173
60.5146
1.7162
60.2974
1.64983
60.0834
1.58268
59.8727
1.51477
59.6653
1.44616
59.4613
1.3769
59.2607
1.30702
59.0636
1.23657
58.87
1.1656
58.6798
1.09415
58.4931
1.02228
58.3098
0.950039
58.13
0.877467
57.9534
0.804618
57.7801
0.731543
57.6099
0.658292
57.4427
0.584919
57.2784
0.511476
57.1168
0.438016
56.9578
0.364594
56.801
0.291265
56.6463
0.218084
56.4935
0.145107
56.3421
0.0723934
56.1919
0
56.0425
-0.072013
55.8935
-0.143584
55.7445
-0.214653
55.5949
-0.285156
55.4442
-0.355028
55.2918
-0.424202
55.1371
-0.49261
54.9792
-0.560181
54.8174
-0.626842
54.6507
-0.692518
54.478
-0.757127
54.2982
-0.820587
54.11
-0.882808
53.9118
-0.943697
53.7018
-1.00315
53.4781
-1.06106
53.2378
-1.11731
52.9781
-1.17175
52.6976
-1.22423
52.3939
-1.27464
52.0499
-1.32282
51.6344
-1.36819
51.181
-1.40966
50.8824
-1.44813
50.7602
-1.49001
49.6111
-1.53638
45.0636
-1.5449
37.0356
-1.42825
29.2755
-1.1854
24.7242
-0.958095
22.9224
-0.840544
22.4216
-0.807168
22.3986
-0.81127
22.5424
-0.828856
22.748
-0.851117
22.9838
-0.874962
23.2285
-0.899714
23.5058
-0.923933
-0.950797
23.727
62.2164
2.91974
-62.4642
61.9693
2.8633
61.7232
2.80536
61.4782
2.74595
61.2346
2.68511
60.9926
2.62289
60.7524
2.5593
60.5141
2.4944
60.278
2.42823
60.0443
2.36082
59.813
2.29223
59.5844
2.22248
59.3585
2.15162
59.1356
2.0797
58.9158
2.00677
58.6991
1.93286
58.4856
1.85803
58.2755
1.78232
58.0688
1.70578
57.8656
1.62846
57.666
1.55042
57.4699
1.47169
57.2775
1.39233
57.0886
1.31239
56.9034
1.23193
56.7218
1.151
56.5438
1.06965
56.3694
0.987942
56.1984
0.905923
56.0308
0.823653
55.8666
0.741189
55.7055
0.658587
55.5476
0.575907
55.3925
0.493207
55.2403
0.410547
55.0905
0.327988
54.9432
0.24559
54.7979
0.163418
54.6545
0.0815329
54.5126
0
54.3719
-0.0811156
54.232
-0.161748
54.0925
-0.241828
53.9531
-0.321288
53.8131
-0.400056
53.6721
-0.47806
53.5294
-0.555226
53.3844
-0.631477
53.2363
-0.706735
53.0844
-0.780916
52.9276
-0.853936
52.7651
-0.925705
52.5955
-0.996129
52.4175
-1.06511
52.2297
-1.13254
52.0305
-1.1983
51.8175
-1.26227
51.5881
-1.32432
51.3399
-1.38427
51.0719
-1.44197
50.7798
-1.4973
50.4417
-1.55003
50.0319
-1.59928
49.6199
-1.64395
49.4147
-1.68653
49.2509
-1.73535
47.5376
-1.78421
42.1038
-1.76646
33.9314
-1.58734
27.0251
-1.29293
23.4014
-1.05696
22.087
-0.949679
21.7688
-0.924969
21.8048
-0.934271
21.9639
-0.955514
22.173
-0.98075
22.3981
-1.00773
22.6565
-1.0344
-1.064
22.865
60.4187
3.24087
-60.6663
60.1722
3.17788
59.9269
3.11325
59.6831
3.04702
59.4409
2.97924
59.2006
2.90993
58.9624
2.83915
58.7264
2.76693
58.4927
2.69332
58.2616
2.61837
58.0333
2.54211
57.8077
2.4646
57.5851
2.38588
57.3657
2.306
57.1494
2.22502
56.9365
2.14297
56.7269
2.05991
56.5208
1.9759
56.3183
1.89098
56.1195
1.8052
55.9243
1.71863
55.7328
1.63132
55.545
1.54332
55.361
1.45469
55.1807
1.36549
55.0042
1.27578
54.8314
1.1856
54.6622
1.09503
54.4967
1.00413
54.3347
0.912945
54.1763
0.821551
54.0211
0.730006
53.8693
0.638374
53.7205
0.546718
53.5747
0.455105
53.4317
0.363599
53.2913
0.272267
53.1532
0.181178
53.0173
0.0903989
52.8832
0
52.7506
-0.0899481
52.6193
-0.179373
52.4888
-0.268203
52.3588
-0.356363
52.2287
-0.443776
52.0982
-0.530366
51.9667
-0.616052
51.8335
-0.700752
51.6981
-0.784383
51.5597
-0.866856
51.4175
-0.948083
51.2705
-1.02797
51.1178
-1.10641
50.9583
-1.18331
50.7905
-1.25856
50.6131
-1.33203
50.4244
-1.40361
50.2221
-1.47315
50.0036
-1.54049
49.767
-1.60546
49.5115
-1.66788
49.2303
-1.72764
48.8974
-1.78438
48.4981
-1.83689
48.1392
-1.88437
48.0184
-1.93141
47.7343
-1.98735
45.3821
-2.03389
39.2184
-1.97768
31.1832
-1.73001
25.1679
-1.39286
22.3068
-1.15682
21.3502
-1.06149
21.1593
-1.04492
21.2341
-1.05899
21.4047
-1.08347
21.6067
-1.11182
21.8455
-1.14055
-1.17257
22.0413
58.6666
3.5528
-58.9133
58.4213
3.4834
58.1775
3.41223
57.9354
3.33933
57.6952
3.26476
57.4571
3.18854
57.2213
3.11074
56.9879
3.03138
56.7572
2.95053
56.5291
2.86823
56.3039
2.78452
56.0817
2.69945
55.8627
2.61309
55.6469
2.52547
55.4344
2.43666
55.2254
2.3467
55.0199
2.25566
54.818
2.16358
54.6198
2.07052
54.4253
1.97655
54.2346
1.88171
54.0477
1.78607
53.8646
1.68969
53.6854
1.59263
53.51
1.49496
53.3385
1.39672
53.1708
1.298
53.0069
1.19884
52.8467
1.09932
52.6902
0.999505
52.5373
0.899457
52.3879
0.799244
52.2419
0.698937
52.0992
0.598602
51.9596
0.49831
51.823
0.398132
51.6891
0.298139
51.5579
0.198403
51.429
0.0989989
51.3023
0
51.1774
-0.0985178
51.0541
-0.196478
50.932
-0.293802
50.8107
-0.390412
50.6899
-0.486225
50.5691
-0.58116
50.4479
-0.675133
50.3256
-0.768056
50.2018
-0.859842
50.0758
-0.950397
49.9468
-1.03963
49.8141
-1.12744
49.6768
-1.21372
49.5339
-1.29837
49.3842
-1.38128
49.2265
-1.46232
49.0593
-1.54136
48.881
-1.61828
48.6893
-1.6929
48.4818
-1.76507
48.2569
-1.83457
48.0139
-1.90124
47.7426
-1.96497
47.415
-2.02519
47.032
-2.08041
46.7349
-2.13044
46.6794
-2.18245
46.1987
-2.24511
43.1854
-2.28295
36.4859
-2.17686
28.7982
-1.85918
23.6345
-1.48929
21.3811
-1.2592
20.6854
-1.17598
20.5827
-1.1668
20.6855
-1.18501
20.8554
-1.21282
21.072
-1.24283
-1.27686
21.2546
56.9596
3.85572
-57.2048
56.716
3.78004
56.4742
3.70248
56.2343
3.62308
55.9966
3.54188
55.7612
3.45893
55.5282
3.37427
55.2978
3.28797
55.0702
3.20006
54.8455
3.1106
54.6238
3.01964
54.4052
2.92723
54.1899
2.83343
53.978
2.7383
53.7695
2.64188
53.5645
2.54424
53.3632
2.44544
53.1656
2.34553
52.9717
2.24458
52.7816
2.14265
52.5955
2.03979
52.4132
1.93608
52.2348
1.83158
52.0603
1.72634
51.8898
1.62045
51.7232
1.51396
51.5606
1.40694
51.4017
1.29947
51.2468
1.1916
51.0956
1.08342
50.9481
0.974982
50.8042
0.866371
50.6639
0.757655
50.5269
0.648908
50.3933
0.540205
50.2628
0.43162
50.1352
0.32323
50.0105
0.215111
49.8883
0.107341
49.7685
0
49.6508
-0.106833
49.5349
-0.213076
49.4206
-0.318648
49.3075
-0.423463
49.1953
-0.527438
49.0835
-0.630486
48.9718
-0.732517
48.8596
-0.833442
48.7465
-0.933167
48.6318
-1.0316
48.515
-1.12863
48.3953
-1.22418
48.2719
-1.31812
48.144
-1.41035
48.0107
-1.50075
47.8707
-1.58921
47.7228
-1.67558
47.5658
-1.75974
47.3978
-1.84153
47.2166
-1.92079
47.02
-1.99732
46.807
-2.07091
46.5762
-2.14141
46.3143
-2.20866
45.9928
-2.27185
45.6322
-2.32925
45.4015
-2.38177
45.3846
-2.43928
44.6443
-2.50751
40.9973
-2.5293
33.9623
-2.36398
26.7561
-1.97863
22.3593
-1.58546
20.5801
-1.36479
20.0734
-1.29301
20.0345
-1.29018
20.1493
-1.31244
20.3367
-1.34202
-1.37732
20.5042
55.2971
4.14981
-55.5403
55.0558
4.06801
54.8164
3.98421
54.5792
3.89846
54.3443
3.8108
54.1119
3.72128
53.8821
3.62996
53.6551
3.53688
53.4309
3.44211
53.2097
3.34569
52.9917
3.24768
52.777
3.14813
52.5656
3.04711
52.3576
2.94466
52.1533
2.84086
51.9525
2.73577
51.7554
2.62944
51.5621
2.52193
51.3727
2.41332
51.1871
2.30366
51.0055
2.19303
50.8278
2.08149
50.6541
1.96911
50.4844
1.85595
50.3187
1.74209
50.1569
1.6276
49.9992
1.51255
49.8454
1.39701
49.6955
1.28106
49.5494
1.16476
49.4072
1.0482
49.2686
0.931448
49.1337
0.814584
49.0024
0.697685
48.8744
0.580828
48.7497
0.464095
48.6281
0.347563
48.5095
0.231315
48.3936
0.115433
48.2803
0
48.1694
-0.1149
48.0606
-0.229183
47.9535
-0.34276
47.8481
-0.455546
47.7438
-0.567449
47.6404
-0.678381
47.5374
-0.788249
47.4345
-0.896958
47.3312
-1.00441
47.2269
-1.11051
47.1212
-1.21516
47.0133
-1.31824
46.9027
-1.41966
46.7884
-1.51929
46.6698
-1.61703
46.5458
-1.71275
46.4153
-1.80631
46.2772
-1.89759
46.1301
-1.98642
45.9723
-2.07266
45.8016
-2.15611
45.6159
-2.23658
45.4147
-2.31383
45.1958
-2.38774
44.9428
-2.45809
44.629
-2.52377
44.2963
-2.58294
44.1323
-2.63801
44.1242
-2.70144
43.0819
-2.77334
38.8686
-2.77153
31.6804
-2.54047
25.0208
-2.09242
21.2862
-1.68369
19.8712
-1.47385
19.5039
-1.41212
19.5037
-1.41513
19.6434
-1.43971
-1.47464
19.7907
53.6785
4.43529
-53.9192
53.4399
4.34751
53.2034
4.25762
52.9692
4.16567
52.7375
4.07172
52.5084
3.9758
52.282
3.87799
52.0586
3.77833
51.8381
3.67688
51.6207
3.57368
51.4066
3.46882
51.1958
3.36233
50.9885
3.25429
50.7847
3.14475
50.5845
3.03378
50.388
2.92145
50.1953
2.80781
50.0064
2.69293
49.8214
2.57689
49.6403
2.45975
49.4632
2.34157
49.2901
2.22244
49.1211
2.10242
48.956
1.98158
48.795
1.86
48.6381
1.73776
48.4852
1.61492
48.3362
1.49156
48.1913
1.36777
48.0503
1.24362
47.9131
1.11918
47.7797
0.994541
47.65
0.86978
47.5239
0.744979
47.4014
0.62022
47.2822
0.495587
47.1663
0.371162
47.0535
0.247033
46.9436
0.123283
46.8365
0
46.7319
-0.122728
46.6296
-0.244812
46.5294
-0.366161
46.4311
-0.486686
46.3342
-0.606292
46.2385
-0.724886
46.1437
-0.842372
46.0493
-0.958653
45.955
-1.07363
45.8603
-1.1872
45.7647
-1.29926
45.6676
-1.4097
45.5685
-1.51841
45.4667
-1.62528
45.3614
-1.73019
45.2518
-1.83301
45.1369
-1.93361
45.0158
-2.03187
44.8873
-2.12762
44.7499
-2.22071
44.6022
-2.31097
44.4418
-2.39821
44.2671
-2.4822
44.0777
-2.56273
43.8704
-2.63966
43.626
-2.7127
43.3219
-2.78043
43.0214
-2.84103
42.92
-2.8988
42.8925
-2.96837
41.5306
-3.0415
36.8446
-3.00921
29.6525
-2.709
23.5507
-2.20437
20.3692
-1.78553
19.2335
-1.58615
18.9622
-1.53336
19.0047
-1.5401
-1.5703
19.1182
52.1032
4.71233
-52.3409
51.8676
4.61872
51.6343
4.5229
51.4034
4.42492
51.1752
4.32484
50.9497
4.2227
50.727
4.11857
50.5073
4.0125
50.2907
3.90455
50.0773
3.79478
49.8672
3.68325
49.6606
3.57003
49.4574
3.45517
49.2579
3.33874
49.062
3.22082
48.8698
3.10145
48.6815
2.98073
48.497
2.8587
48.3165
2.73545
48.1399
2.61104
47.9673
2.48556
47.7988
2.35906
47.6343
2.23164
47.4739
2.10336
47.3176
1.9743
47.1653
1.84453
47.0171
1.71415
46.873
1.58322
46.7328
1.45183
46.5966
1.32006
46.4643
1.18799
46.3359
1.05571
46.2113
0.923295
46.0903
0.790836
45.973
0.658418
45.8591
0.526126
45.7486
0.39405
45.6412
0.262277
45.537
0.130897
45.4357
0
45.3371
-0.130322
45.2409
-0.259977
45.1471
-0.388872
45.0553
-0.516911
44.9653
-0.643999
44.8768
-0.770039
44.7895
-0.894931
44.7031
-1.01858
44.617
-1.14087
44.5311
-1.26171
44.4448
-1.38099
44.3575
-1.4986
44.2689
-1.61443
44.1783
-1.72836
44.0851
-1.84028
43.9885
-1.95005
43.8877
-2.05754
43.7818
-2.16263
43.6698
-2.26516
43.5507
-2.36499
43.423
-2.46194
43.2851
-2.55583
43.135
-2.64647
42.9711
-2.7336
42.7935
-2.81702
42.5975
-2.89663
42.3619
-2.97198
42.0694
-3.04134
41.8038
-3.10313
41.7581
-3.16375
41.6882
-3.23943
40.014
-3.31114
34.9609
-3.24293
27.8757
-2.873
22.3034
-2.31791
19.5747
-1.8918
18.6455
-1.70186
18.4573
-1.65519
-1.66818
18.5001
50.5703
4.98116
-50.8049
50.3381
4.88186
50.1082
4.78026
49.881
4.67641
49.6565
4.57036
49.4347
4.46217
49.216
4.35189
49.0003
4.23959
48.7877
4.12533
48.5784
4.00917
48.3725
3.89117
48.1701
3.7714
47.9712
3.64992
47.7759
3.52681
47.5844
3.40213
47.3966
3.27595
47.2127
3.14834
47.0326
3.01938
46.8566
2.88914
46.6845
2.7577
46.5164
2.62512
46.3524
2.49149
46.1925
2.35689
46.0366
2.22139
45.8849
2.08508
45.7372
1.94803
45.5936
1.81033
45.4541
1.67207
45.3186
1.53332
45.1871
1.39417
45.0596
1.2547
44.936
1.11501
44.8162
0.975181
44.7001
0.8353
44.5877
0.695457
44.4789
0.555742
44.3735
0.416247
44.2714
0.277062
44.1725
0.138283
44.0766
0
43.9836
-0.13769
43.8932
-0.274693
43.8054
-0.410911
43.7197
-0.546247
43.6361
-0.680603
43.5543
-0.813877
43.4739
-0.945969
43.3947
-1.07678
43.3163
-1.20619
43.2384
-1.33411
43.1606
-1.46043
43.0824
-1.58502
43.0033
-1.70779
42.9229
-1.82861
42.8406
-1.94736
42.7557
-2.06392
42.6675
-2.17816
42.5753
-2.28994
42.4782
-2.39912
42.3752
-2.50554
42.2652
-2.60906
42.147
-2.70948
42.0188
-2.80664
41.8789
-2.9003
41.7258
-2.99022
41.5598
-3.07619
41.375
-3.15812
41.1484
-3.23544
40.8695
-3.30609
40.6395
-3.36887
40.6408
-3.43247
40.5141
-3.51395
38.5569
-3.58177
33.2432
-3.4742
26.3361
-3.03641
21.2428
-2.43578
18.8714
-2.00347
18.107
-1.8196
-1.77959
17.9773
49.0792
5.24196
-49.3102
48.8506
5.13713
48.6245
5.02991
48.4011
4.92034
48.1804
4.80848
47.9627
4.6944
47.748
4.57815
47.5364
4.4598
47.328
4.33941
47.1229
4.21703
46.9213
4.09275
46.7231
3.96663
46.5286
3.83873
46.3377
3.70913
46.1505
3.57789
45.9672
3.4451
45.7877
3.31082
45.6121
3.17514
45.4404
3.03812
45.2728
2.89984
45.1092
2.76039
44.9496
2.61985
44.7942
2.47829
44.6428
2.3358
44.4956
2.19246
44.3524
2.04835
44.2133
1.90357
44.0784
1.75819
43.9474
1.61231
43.8205
1.46601
43.6975
1.31938
43.5785
1.17251
43.4634
1.02549
43.352
0.878413
43.2443
0.731373
43.1403
0.584462
43.0397
0.437774
42.9426
0.291404
42.8487
0.145447
42.758
-2.91608e-07
42.6703
-0.144839
42.5853
-0.288972
42.503
-0.432299
42.4232
-0.57472
42.3455
-0.716134
42.2698
-0.856437
42.1959
-0.995526
42.1234
-1.1333
42.052
-1.26964
41.9814
-1.40445
41.9114
-1.53761
41.8414
-1.66901
41.771
-1.79854
41.6999
-1.92609
41.6274
-2.05151
41.5531
-2.1747
41.4763
-2.29553
41.3964
-2.41385
41.3126
-2.52953
41.224
-2.64243
41.1297
-2.75238
41.0287
-2.85921
40.9198
-2.96276
40.8013
-3.06282
40.6713
-3.15916
40.529
-3.25153
40.3745
-3.33973
40.2006
-3.42368
39.9837
-3.50264
39.7197
-3.57428
39.5242
-3.6379
39.5637
-3.70448
39.3756
-3.79129
37.1826
-3.85335
31.7063
-3.70541
25.0167
-3.20315
20.3334
-2.56083
18.2428
-2.12019
-1.938
17.6729
47.629
5.49494
-47.8563
47.4042
5.38473
47.1821
5.27203
46.9627
5.1569
46.7461
5.03941
46.5325
4.9196
46.322
4.79755
46.1146
4.67331
45.9105
4.54696
45.7097
4.41856
45.5124
4.28818
45.3186
4.15588
45.1285
4.02175
44.942
3.88585
44.7592
3.74826
44.5803
3.60906
44.4052
3.46831
44.234
3.3261
44.0668
3.18251
43.9036
3.03762
43.7444
2.89151
43.5893
2.74426
43.4382
2.59596
43.2913
2.44669
43.1484
2.29654
43.0096
2.1456
42.875
1.99395
42.7444
1.84168
42.6179
1.68888
42.4953
1.53565
42.3768
1.38208
42.2622
1.22825
42.1515
1.07426
42.0447
0.920216
41.9415
0.766201
41.8421
0.612314
41.7462
0.458652
41.6537
0.305313
41.5646
0.152396
41.4788
0
41.396
-0.151775
41.3161
-0.302827
41.239
-0.453054
41.1645
-0.602354
41.0924
-0.750623
41.0224
-0.897755
40.9544
-1.04364
40.888
-1.18818
40.8231
-1.33126
40.7594
-1.47277
40.6964
-1.6126
40.6339
-1.75064
40.5715
-1.88676
40.5087
-2.02085
40.4452
-2.15279
40.3805
-2.28246
40.3139
-2.40971
40.245
-2.53444
40.1731
-2.65648
40.0974
-2.7757
40.0171
-2.89196
39.9314
-3.00507
39.8392
-3.11488
39.7394
-3.2212
39.6303
-3.32384
39.5102
-3.42253
39.3785
-3.51703
39.2353
-3.60717
39.0723
-3.69284
38.8657
-3.77317
38.6175
-3.84556
38.4539
-3.90988
38.5235
-3.97932
38.2799
-4.07086
35.9098
-4.12629
30.3583
-3.93931
23.8965
-3.37742
19.5314
-2.69611
-2.22944
17.9401
46.219
5.7403
-46.4423
45.9982
5.62485
45.7802
5.50683
45.5649
5.3863
45.3526
5.26332
45.1432
5.13795
44.937
5.01026
44.7339
4.88031
44.5341
4.74818
44.3378
4.61392
44.1448
4.47762
43.9555
4.33935
43.7697
4.19917
43.5876
4.05716
43.4092
3.91341
43.2347
3.76798
43.064
3.62096
42.8972
3.47243
42.7344
3.32247
42.5756
3.17116
42.4208
3.01859
42.27
2.86485
42.1233
2.71001
41.9806
2.55418
41.8421
2.39743
41.7076
2.23986
41.5772
2.08155
41.4509
1.92261
41.3287
1.76311
41.2104
1.60317
41.0962
1.44286
40.9859
1.28229
40.8795
1.12156
40.7769
0.960751
40.6781
0.799973
40.583
0.639323
40.4915
0.4789
40.4035
0.318804
40.3189
0.159137
40.2376
0
40.1595
-0.158503
40.0844
-0.31627
40.0122
-0.473195
39.9426
-0.629174
39.8756
-0.7841
39.811
-0.937865
39.7485
-1.09036
39.6878
-1.24148
39.6289
-1.39111
39.5713
-1.53914
39.5148
-1.68546
39.4592
-1.82995
39.404
-1.97249
39.3489
-2.11297
39.2935
-2.25126
39.2374
-2.38724
39.1801
-2.52079
39.121
-2.65176
39.0598
-2.78002
38.9956
-2.90543
38.9278
-3.02785
38.8556
-3.14712
38.7782
-3.26307
38.6946
-3.37552
38.6037
-3.4843
38.5039
-3.58918
38.3936
-3.68993
38.2723
-3.78628
38.1402
-3.87806
37.9882
-3.9652
37.7926
-4.04664
37.5605
-4.11959
37.4248
-4.18448
37.5179
-4.25646
37.2334
-4.35215
34.7524
-4.40131
29.2084
-4.17821
22.8741
-3.57027
-2.79256
19.6193
44.8483
5.97823
-45.0674
44.6317
5.8577
44.4179
5.73451
44.2069
5.60872
43.9989
5.48042
43.7938
5.34965
43.5919
5.21648
43.3933
5.08099
43.1979
4.94324
43.0059
4.80331
42.8174
4.66126
42.6325
4.51718
42.4511
4.37113
42.2734
4.22321
42.0995
4.07347
41.9293
3.92201
41.763
3.76891
41.6006
3.61425
41.4421
3.45812
41.2876
3.3006
41.1371
3.14177
40.9906
2.98173
40.8481
2.82056
40.7097
2.65836
40.5754
2.49522
40.4451
2.33122
40.3189
2.16647
40.1968
2.00105
40.0787
1.83507
39.9646
1.66862
39.8544
1.50179
39.7483
1.33469
39.646
1.16741
39.5475
1.00005
39.4529
0.832723
39.3619
0.665517
39.2746
0.498538
39.1908
0.33189
39.1105
0.165675
39.0335
0
38.9598
-0.165032
38.8891
-0.329314
38.8215
-0.49274
38.7566
-0.655202
38.6944
-0.816593
38.6346
-0.976802
38.5772
-1.13572
38.5218
-1.29324
38.4683
-1.44924
38.4164
-1.60361
38.3659
-1.75624
38.3165
-1.90701
38.2679
-2.05581
38.2197
-2.20251
38.1717
-2.34699
38.1234
-2.48913
38.0744
-2.62881
38.0243
-2.76588
37.9725
-2.90022
37.9186
-3.03168
37.862
-3.16013
37.8018
-3.28541
37.7376
-3.40737
37.6683
-3.52583
37.593
-3.64061
37.5108
-3.75154
37.4201
-3.85839
37.3194
-3.96091
37.2084
-4.05882
37.0872
-4.152
36.9464
-4.24035
36.7625
-4.32271
36.546
-4.39607
36.4335
-4.46137
36.5459
-4.53533
36.2352
-4.63537
33.7594
-4.6749
27.9911
-4.45085
-3.64615
23.7346
43.516
6.20895
-43.7309
43.3038
6.08346
43.0943
5.95525
42.8877
5.82437
42.684
5.69089
42.4834
5.55487
42.2859
5.4164
42.0917
5.27552
41.9008
5.13233
41.7132
4.98688
41.5291
4.83926
41.3486
4.68955
41.1717
4.53782
40.9984
4.38414
40.8288
4.22861
40.663
4.07131
40.501
3.91232
40.3429
3.75171
40.1887
3.5896
40.0385
3.42605
39.8922
3.26115
39.7499
3.09501
39.6116
2.92771
39.4774
2.75934
39.3472
2.59
39.221
2.41978
39.0988
2.24879
38.9807
2.0771
38.8666
1.90483
38.7565
1.73207
38.6504
1.55892
38.5482
1.38549
38.4498
1.21187
38.3553
1.03817
38.2646
0.86448
38.1777
0.690918
38.0943
0.517583
38.0145
0.344581
37.9383
0.172018
37.8654
0
37.7957
-0.171365
37.7293
-0.34197
37.6659
-0.511706
37.6053
-0.680462
37.5476
-0.84813
37.4924
-1.0146
37.4396
-1.17975
37.3891
-1.34349
37.3406
-1.50568
37.294
-1.66622
37.2489
-1.825
37.2052
-1.98188
37.1626
-2.13677
37.1207
-2.28953
37.0793
-2.44005
37.0381
-2.58819
36.9966
-2.73385
36.9545
-2.87687
36.9113
-3.01714
36.8666
-3.15452
36.8198
-3.28886
36.7704
-3.42002
36.7177
-3.54785
36.6611
-3.67218
36.5997
-3.79285
36.5326
-3.90967
36.4589
-4.02246
36.3771
-4.13099
36.2858
-4.23502
36.1849
-4.33426
36.0744
-4.42859
35.9448
-4.51794
35.7733
-4.60102
35.5712
-4.67478
35.4808
-4.73983
35.5843
-4.81769
35.4052
-4.90825
32.3592
-5.00499
-4.51336
29.2573
42.2214
6.43264
-42.4319
42.0135
6.30235
41.8085
6.16925
41.6063
6.03342
41.407
5.89492
41.2109
5.75382
41.0179
5.61018
40.8281
5.46409
40.6416
5.31561
40.4585
5.16482
40.2789
5.01179
40.1028
4.85662
39.9302
4.69937
39.7613
4.54013
39.5961
4.37898
39.4346
4.21601
39.2769
4.0513
39.1231
3.88494
38.9731
3.71702
38.8271
3.54763
38.6849
3.37687
38.5468
3.20481
38.4126
3.03156
38.2824
2.85722
38.1562
2.68188
38.034
2.50563
37.9158
2.32858
37.8016
2.15082
37.6914
1.97246
37.5852
1.79359
37.4828
1.61432
37.3845
1.43474
37.2899
1.25498
37.1992
1.07512
37.1123
0.895276
37.0291
0.715552
36.9495
0.536054
36.8736
0.356891
36.8011
0.17817
36.732
-2.91683e-07
36.6663
-0.17751
36.6038
-0.35425
36.5443
-0.530109
36.4879
-0.704976
36.4342
-0.878739
36.3833
-1.05129
36.3349
-1.2225
36.2888
-1.39228
36.245
-1.56049
36.2031
-1.72703
36.1631
-1.89178
36.1245
-2.05462
36.0873
-2.21543
36.0512
-2.37409
36.0159
-2.53049
35.981
-2.68449
35.9463
-2.83597
35.9113
-2.98481
35.8758
-3.13086
35.8393
-3.27401
35.8014
-3.4141
35.7615
-3.55101
35.7191
-3.68457
35.6737
-3.81464
35.6244
-3.94106
35.5707
-4.06365
35.5116
-4.18223
35.4462
-4.29661
35.3731
-4.40657
35.291
-4.51186
35.2
-4.61219
35.0999
-4.70747
34.9821
-4.79757
34.8214
-4.88148
34.6436
-4.95439
34.5181
-5.02446
34.8334
-5.08194
33.9893
-5.25391
-5.10383
32.7879
40.9635
6.6495
-41.1696
40.7601
6.51454
40.5595
6.37671
40.3618
6.23607
40.1671
6.0927
39.9754
5.94665
39.7869
5.79801
39.6016
5.64685
39.4195
5.49325
39.2409
5.33728
39.0657
5.17901
38.8939
5.01854
38.7257
4.85595
38.5612
4.69131
38.4003
4.52471
38.2431
4.35625
38.0896
4.186
37.94
4.01406
37.7942
3.84052
37.6522
3.66548
37.5142
3.48901
37.3801
3.31123
37.2499
3.13223
37.1236
2.95209
37.0014
2.77093
36.883
2.58884
36.7687
2.40593
36.6583
2.22228
36.5519
2.03801
36.4494
1.85322
36.3507
1.66802
36.256
1.4825
36.1651
1.29678
36.0781
1.11095
35.9948
0.925139
35.9152
0.739441
35.8392
0.553969
35.7668
0.368831
35.698
0.184138
35.6325
0
35.5705
-0.183471
35.5116
-0.366164
35.4559
-0.547966
35.4032
-0.728765
35.3534
-0.908446
35.3064
-1.0869
35.262
-1.264
35.2201
-1.43964
35.1805
-1.61371
35.1431
-1.78608
35.1076
-1.95664
35.0738
-2.12527
35.0415
-2.29185
35.0106
-2.45626
34.9807
-2.61838
34.9516
-2.77809
34.923
-2.93525
34.8945
-3.08975
34.8659
-3.24145
34.8367
-3.39023
34.8067
-3.53594
34.7753
-3.67845
34.742
-3.81762
34.7064
-3.95329
34.6679
-4.08532
34.6258
-4.21354
34.5795
-4.33777
34.5281
-4.45785
34.4708
-4.57357
34.4063
-4.68473
34.3333
-4.79104
34.2516
-4.89227
34.1627
-4.98818
34.0525
-5.07935
33.9214
-5.1619
33.6975
-5.24203
33.7615
-5.28834
33.6636
-5.41338
-5.43215
33.4255
39.7416