/*--------------------------------*- C++ -*----------------------------------*\
| =========                 |                                                 |
| \\      /  F ield         | OpenFOAM: The Open Source CFD Toolbox           |
|  \\    /   O peration     | Version:  2312                                  |
|   \\  /    A nd           | Website:  www.openfoam.com                      |
|    \\/     M anipulation  |                                                 |
\*---------------------------------------------------------------------------*/
FoamFile
{
    version     2.0;
    format      ascii;
    arch        "LSB;label=32;scalar=64";
    class       volVectorField;
    location    "0.462";
    object      U;
}
// * * * * * * * * * * * * * * * * * * * * * * * * * * * * * * * * * * * * * //

dimensions      [0 1 -1 0 0 0 0];

internalField   nonuniform List<vector> 
31205
(
(252.098 0 0)
(254.001 0 0)
(255.85 0 0)
(257.646 0 0)
(259.393 0 0)
(261.092 0 0)
(262.743 0 0)
(264.349 0 0)
(265.91 0 0)
(267.428 0 0)
(268.904 0 0)
(270.338 0 0)
(271.733 0 0)
(273.088 0 0)
(274.404 0 0)
(275.683 0 0)
(276.924 0 0)
(278.129 0 0)
(279.298 0 0)
(280.432 0 0)
(281.531 0 0)
(282.595 0 0)
(283.626 0 0)
(284.623 0 0)
(285.586 0 0)
(286.517 0 0)
(287.415 0 0)
(288.28 0 0)
(289.113 0 0)
(289.915 0 0)
(290.684 0 0)
(291.422 0 0)
(292.128 0 0)
(292.803 0 0)
(293.446 0 0)
(294.057 0 0)
(294.637 0 0)
(295.185 0 0)
(295.702 0 0)
(296.187 0 0)
(296.64 0 0)
(297.061 0 0)
(297.45 0 0)
(297.806 0 0)
(298.129 0 0)
(298.419 0 0)
(298.675 0 0)
(298.898 0 0)
(299.086 0 0)
(299.24 0 0)
(299.357 0 0)
(299.439 0 0)
(299.485 0 0)
(299.492 0 0)
(299.462 0 0)
(299.393 0 0)
(299.283 0 0)
(299.133 0 0)
(298.94 0 0)
(298.704 0 0)
(298.424 0 0)
(298.097 0 0)
(297.722 0 0)
(297.297 0 0)
(296.821 0 0)
(296.291 0 0)
(295.704 0 0)
(295.058 0 0)
(294.35 0 0)
(293.576 0 0)
(292.73 0 0)
(291.817 0 0)
(290.806 0 0)
(289.757 0 0)
(288.489 0 0)
(287.341 0 0)
(285.927 0 0)
(284.433 0 0)
(282.168 0 0)
(253.827 0 0)
(255.632 0 0)
(257.388 0 0)
(259.097 0 0)
(260.759 0 0)
(262.377 0 0)
(263.951 0 0)
(265.483 0 0)
(266.973 0 0)
(268.424 0 0)
(269.835 0 0)
(271.208 0 0)
(272.543 0 0)
(273.842 0 0)
(275.104 0 0)
(276.331 0 0)
(277.523 0 0)
(278.681 0 0)
(279.805 0 0)
(280.895 0 0)
(281.953 0 0)
(282.978 0 0)
(283.971 0 0)
(284.932 0 0)
(285.862 0 0)
(286.76 0 0)
(287.628 0 0)
(288.465 0 0)
(289.271 0 0)
(290.047 0 0)
(290.793 0 0)
(291.509 0 0)
(292.194 0 0)
(292.85 0 0)
(293.476 0 0)
(294.071 0 0)
(294.637 0 0)
(295.173 0 0)
(295.678 0 0)
(296.154 0 0)
(296.599 0 0)
(297.013 0 0)
(297.397 0 0)
(297.75 0 0)
(298.072 0 0)
(298.363 0 0)
(298.621 0 0)
(298.848 0 0)
(299.042 0 0)
(299.203 0 0)
(299.33 0 0)
(299.424 0 0)
(299.483 0 0)
(299.507 0 0)
(299.494 0 0)
(299.446 0 0)
(299.359 0 0)
(299.235 0 0)
(299.071 0 0)
(298.866 0 0)
(298.62 0 0)
(298.331 0 0)
(297.998 0 0)
(297.619 0 0)
(297.192 0 0)
(296.715 0 0)
(296.187 0 0)
(295.606 0 0)
(294.967 0 0)
(294.27 0 0)
(293.507 0 0)
(292.684 0 0)
(291.778 0 0)
(290.822 0 0)
(289.748 0 0)
(288.607 0 0)
(287.356 0 0)
(286.237 0 0)
(284.1 0 0)
(255.546 0 0)
(257.257 0 0)
(258.923 0 0)
(260.545 0 0)
(262.125 0 0)
(263.665 0 0)
(265.164 0 0)
(266.624 0 0)
(268.045 0 0)
(269.43 0 0)
(270.778 0 0)
(272.09 0 0)
(273.368 0 0)
(274.61 0 0)
(275.819 0 0)
(276.995 0 0)
(278.138 0 0)
(279.249 0 0)
(280.329 0 0)
(281.376 0 0)
(282.393 0 0)
(283.379 0 0)
(284.335 0 0)
(285.261 0 0)
(286.157 0 0)
(287.024 0 0)
(287.861 0 0)
(288.669 0 0)
(289.449 0 0)
(290.199 0 0)
(290.921 0 0)
(291.614 0 0)
(292.279 0 0)
(292.915 0 0)
(293.523 0 0)
(294.102 0 0)
(294.653 0 0)
(295.175 0 0)
(295.669 0 0)
(296.134 0 0)
(296.571 0 0)
(296.978 0 0)
(297.356 0 0)
(297.705 0 0)
(298.024 0 0)
(298.313 0 0)
(298.573 0 0)
(298.801 0 0)
(299 0 0)
(299.166 0 0)
(299.302 0 0)
(299.405 0 0)
(299.475 0 0)
(299.513 0 0)
(299.516 0 0)
(299.485 0 0)
(299.419 0 0)
(299.317 0 0)
(299.178 0 0)
(299.001 0 0)
(298.786 0 0)
(298.53 0 0)
(298.233 0 0)
(297.894 0 0)
(297.511 0 0)
(297.082 0 0)
(296.606 0 0)
(296.081 0 0)
(295.504 0 0)
(294.873 0 0)
(294.184 0 0)
(293.439 0 0)
(292.625 0 0)
(291.751 0 0)
(290.801 0 0)
(289.788 0 0)
(288.607 0 0)
(287.619 0 0)
(285.812 0 0)
(257.208 0 0)
(258.83 0 0)
(260.411 0 0)
(261.953 0 0)
(263.455 0 0)
(264.92 0 0)
(266.347 0 0)
(267.739 0 0)
(269.095 0 0)
(270.416 0 0)
(271.704 0 0)
(272.958 0 0)
(274.18 0 0)
(275.369 0 0)
(276.527 0 0)
(277.654 0 0)
(278.75 0 0)
(279.816 0 0)
(280.852 0 0)
(281.858 0 0)
(282.836 0 0)
(283.784 0 0)
(284.704 0 0)
(285.595 0 0)
(286.459 0 0)
(287.294 0 0)
(288.102 0 0)
(288.882 0 0)
(289.635 0 0)
(290.36 0 0)
(291.059 0 0)
(291.73 0 0)
(292.374 0 0)
(292.991 0 0)
(293.581 0 0)
(294.144 0 0)
(294.679 0 0)
(295.188 0 0)
(295.67 0 0)
(296.124 0 0)
(296.551 0 0)
(296.95 0 0)
(297.322 0 0)
(297.666 0 0)
(297.982 0 0)
(298.269 0 0)
(298.528 0 0)
(298.758 0 0)
(298.959 0 0)
(299.131 0 0)
(299.272 0 0)
(299.383 0 0)
(299.464 0 0)
(299.512 0 0)
(299.53 0 0)
(299.514 0 0)
(299.466 0 0)
(299.384 0 0)
(299.267 0 0)
(299.115 0 0)
(298.926 0 0)
(298.701 0 0)
(298.437 0 0)
(298.133 0 0)
(297.789 0 0)
(297.403 0 0)
(296.973 0 0)
(296.498 0 0)
(295.975 0 0)
(295.404 0 0)
(294.78 0 0)
(294.104 0 0)
(293.369 0 0)
(292.577 0 0)
(291.714 0 0)
(290.811 0 0)
(289.751 0 0)
(288.835 0 0)
(287.232 0 0)
(258.795 0 0)
(260.334 0 0)
(261.836 0 0)
(263.301 0 0)
(264.73 0 0)
(266.125 0 0)
(267.485 0 0)
(268.812 0 0)
(270.106 0 0)
(271.368 0 0)
(272.598 0 0)
(273.797 0 0)
(274.966 0 0)
(276.104 0 0)
(277.214 0 0)
(278.294 0 0)
(279.345 0 0)
(280.368 0 0)
(281.362 0 0)
(282.329 0 0)
(283.269 0 0)
(284.181 0 0)
(285.066 0 0)
(285.925 0 0)
(286.756 0 0)
(287.562 0 0)
(288.341 0 0)
(289.094 0 0)
(289.821 0 0)
(290.522 0 0)
(291.198 0 0)
(291.847 0 0)
(292.471 0 0)
(293.07 0 0)
(293.642 0 0)
(294.189 0 0)
(294.71 0 0)
(295.206 0 0)
(295.675 0 0)
(296.119 0 0)
(296.536 0 0)
(296.928 0 0)
(297.293 0 0)
(297.632 0 0)
(297.944 0 0)
(298.229 0 0)
(298.487 0 0)
(298.717 0 0)
(298.92 0 0)
(299.095 0 0)
(299.242 0 0)
(299.36 0 0)
(299.449 0 0)
(299.508 0 0)
(299.537 0 0)
(299.536 0 0)
(299.503 0 0)
(299.439 0 0)
(299.342 0 0)
(299.212 0 0)
(299.048 0 0)
(298.85 0 0)
(298.615 0 0)
(298.344 0 0)
(298.035 0 0)
(297.687 0 0)
(297.299 0 0)
(296.869 0 0)
(296.396 0 0)
(295.878 0 0)
(295.313 0 0)
(294.699 0 0)
(294.033 0 0)
(293.315 0 0)
(292.532 0 0)
(291.714 0 0)
(290.764 0 0)
(289.934 0 0)
(288.494 0 0)
(260.302 0 0)
(261.764 0 0)
(263.192 0 0)
(264.585 0 0)
(265.946 0 0)
(267.274 0 0)
(268.571 0 0)
(269.837 0 0)
(271.072 0 0)
(272.278 0 0)
(273.454 0 0)
(274.601 0 0)
(275.72 0 0)
(276.811 0 0)
(277.873 0 0)
(278.909 0 0)
(279.918 0 0)
(280.899 0 0)
(281.855 0 0)
(282.784 0 0)
(283.687 0 0)
(284.565 0 0)
(285.417 0 0)
(286.244 0 0)
(287.046 0 0)
(287.822 0 0)
(288.574 0 0)
(289.301 0 0)
(290.004 0 0)
(290.682 0 0)
(291.335 0 0)
(291.964 0 0)
(292.569 0 0)
(293.149 0 0)
(293.704 0 0)
(294.236 0 0)
(294.742 0 0)
(295.225 0 0)
(295.682 0 0)
(296.115 0 0)
(296.524 0 0)
(296.907 0 0)
(297.266 0 0)
(297.599 0 0)
(297.907 0 0)
(298.189 0 0)
(298.446 0 0)
(298.677 0 0)
(298.881 0 0)
(299.059 0 0)
(299.21 0 0)
(299.334 0 0)
(299.431 0 0)
(299.499 0 0)
(299.539 0 0)
(299.55 0 0)
(299.532 0 0)
(299.484 0 0)
(299.406 0 0)
(299.296 0 0)
(299.155 0 0)
(298.981 0 0)
(298.773 0 0)
(298.532 0 0)
(298.255 0 0)
(297.942 0 0)
(297.592 0 0)
(297.204 0 0)
(296.775 0 0)
(296.305 0 0)
(295.792 0 0)
(295.235 0 0)
(294.63 0 0)
(293.98 0 0)
(293.27 0 0)
(292.527 0 0)
(291.669 0 0)
(290.919 0 0)
(289.624 0 0)
(261.731 0 0)
(263.12 0 0)
(264.478 0 0)
(265.805 0 0)
(267.101 0 0)
(268.368 0 0)
(269.605 0 0)
(270.814 0 0)
(271.994 0 0)
(273.146 0 0)
(274.271 0 0)
(275.369 0 0)
(276.441 0 0)
(277.486 0 0)
(278.505 0 0)
(279.498 0 0)
(280.466 0 0)
(281.409 0 0)
(282.327 0 0)
(283.221 0 0)
(284.09 0 0)
(284.934 0 0)
(285.755 0 0)
(286.552 0 0)
(287.325 0 0)
(288.074 0 0)
(288.8 0 0)
(289.502 0 0)
(290.181 0 0)
(290.836 0 0)
(291.468 0 0)
(292.077 0 0)
(292.663 0 0)
(293.226 0 0)
(293.765 0 0)
(294.282 0 0)
(294.774 0 0)
(295.244 0 0)
(295.69 0 0)
(296.113 0 0)
(296.512 0 0)
(296.888 0 0)
(297.24 0 0)
(297.568 0 0)
(297.872 0 0)
(298.151 0 0)
(298.406 0 0)
(298.637 0 0)
(298.842 0 0)
(299.023 0 0)
(299.178 0 0)
(299.307 0 0)
(299.41 0 0)
(299.486 0 0)
(299.536 0 0)
(299.559 0 0)
(299.554 0 0)
(299.521 0 0)
(299.459 0 0)
(299.368 0 0)
(299.247 0 0)
(299.096 0 0)
(298.913 0 0)
(298.699 0 0)
(298.452 0 0)
(298.171 0 0)
(297.856 0 0)
(297.505 0 0)
(297.117 0 0)
(296.691 0 0)
(296.226 0 0)
(295.72 0 0)
(295.171 0 0)
(294.58 0 0)
(293.936 0 0)
(293.262 0 0)
(292.484 0 0)
(291.804 0 0)
(290.638 0 0)
(263.084 0 0)
(264.407 0 0)
(265.7 0 0)
(266.964 0 0)
(268.2 0 0)
(269.408 0 0)
(270.589 0 0)
(271.744 0 0)
(272.872 0 0)
(273.974 0 0)
(275.051 0 0)
(276.102 0 0)
(277.129 0 0)
(278.131 0 0)
(279.108 0 0)
(280.062 0 0)
(280.991 0 0)
(281.897 0 0)
(282.78 0 0)
(283.639 0 0)
(284.476 0 0)
(285.289 0 0)
(286.08 0 0)
(286.847 0 0)
(287.593 0 0)
(288.316 0 0)
(289.017 0 0)
(289.695 0 0)
(290.351 0 0)
(290.985 0 0)
(291.597 0 0)
(292.187 0 0)
(292.755 0 0)
(293.301 0 0)
(293.825 0 0)
(294.326 0 0)
(294.806 0 0)
(295.263 0 0)
(295.698 0 0)
(296.111 0 0)
(296.501 0 0)
(296.869 0 0)
(297.215 0 0)
(297.537 0 0)
(297.837 0 0)
(298.113 0 0)
(298.367 0 0)
(298.597 0 0)
(298.803 0 0)
(298.985 0 0)
(299.143 0 0)
(299.277 0 0)
(299.386 0 0)
(299.471 0 0)
(299.529 0 0)
(299.563 0 0)
(299.57 0 0)
(299.55 0 0)
(299.503 0 0)
(299.429 0 0)
(299.328 0 0)
(299.197 0 0)
(299.037 0 0)
(298.848 0 0)
(298.628 0 0)
(298.376 0 0)
(298.093 0 0)
(297.776 0 0)
(297.426 0 0)
(297.04 0 0)
(296.618 0 0)
(296.159 0 0)
(295.66 0 0)
(295.124 0 0)
(294.539 0 0)
(293.927 0 0)
(293.222 0 0)
(292.604 0 0)
(291.55 0 0)
(264.368 0 0)
(265.627 0 0)
(266.859 0 0)
(268.064 0 0)
(269.243 0 0)
(270.397 0 0)
(271.525 0 0)
(272.629 0 0)
(273.708 0 0)
(274.763 0 0)
(275.794 0 0)
(276.802 0 0)
(277.786 0 0)
(278.747 0 0)
(279.685 0 0)
(280.6 0 0)
(281.494 0 0)
(282.364 0 0)
(283.213 0 0)
(284.04 0 0)
(284.845 0 0)
(285.629 0 0)
(286.391 0 0)
(287.131 0 0)
(287.85 0 0)
(288.548 0 0)
(289.225 0 0)
(289.881 0 0)
(290.515 0 0)
(291.129 0 0)
(291.721 0 0)
(292.293 0 0)
(292.844 0 0)
(293.373 0 0)
(293.882 0 0)
(294.37 0 0)
(294.836 0 0)
(295.282 0 0)
(295.706 0 0)
(296.109 0 0)
(296.491 0 0)
(296.851 0 0)
(297.19 0 0)
(297.507 0 0)
(297.803 0 0)
(298.076 0 0)
(298.327 0 0)
(298.556 0 0)
(298.763 0 0)
(298.947 0 0)
(299.108 0 0)
(299.246 0 0)
(299.361 0 0)
(299.452 0 0)
(299.518 0 0)
(299.561 0 0)
(299.579 0 0)
(299.572 0 0)
(299.54 0 0)
(299.481 0 0)
(299.397 0 0)
(299.285 0 0)
(299.146 0 0)
(298.98 0 0)
(298.784 0 0)
(298.56 0 0)
(298.306 0 0)
(298.021 0 0)
(297.704 0 0)
(297.355 0 0)
(296.973 0 0)
(296.557 0 0)
(296.104 0 0)
(295.616 0 0)
(295.085 0 0)
(294.529 0 0)
(293.889 0 0)
(293.327 0 0)
(292.374 0 0)
(265.587 0 0)
(266.786 0 0)
(267.961 0 0)
(269.111 0 0)
(270.236 0 0)
(271.338 0 0)
(272.417 0 0)
(273.472 0 0)
(274.505 0 0)
(275.515 0 0)
(276.503 0 0)
(277.469 0 0)
(278.413 0 0)
(279.335 0 0)
(280.236 0 0)
(281.115 0 0)
(281.974 0 0)
(282.811 0 0)
(283.628 0 0)
(284.424 0 0)
(285.199 0 0)
(285.954 0 0)
(286.689 0 0)
(287.403 0 0)
(288.098 0 0)
(288.772 0 0)
(289.425 0 0)
(290.059 0 0)
(290.673 0 0)
(291.267 0 0)
(291.841 0 0)
(292.395 0 0)
(292.929 0 0)
(293.443 0 0)
(293.937 0 0)
(294.412 0 0)
(294.866 0 0)
(295.3 0 0)
(295.714 0 0)
(296.107 0 0)
(296.48 0 0)
(296.833 0 0)
(297.166 0 0)
(297.478 0 0)
(297.769 0 0)
(298.039 0 0)
(298.288 0 0)
(298.516 0 0)
(298.723 0 0)
(298.908 0 0)
(299.072 0 0)
(299.213 0 0)
(299.333 0 0)
(299.43 0 0)
(299.504 0 0)
(299.555 0 0)
(299.583 0 0)
(299.588 0 0)
(299.568 0 0)
(299.524 0 0)
(299.455 0 0)
(299.361 0 0)
(299.242 0 0)
(299.096 0 0)
(298.924 0 0)
(298.724 0 0)
(298.497 0 0)
(298.241 0 0)
(297.956 0 0)
(297.64 0 0)
(297.294 0 0)
(296.917 0 0)
(296.506 0 0)
(296.063 0 0)
(295.58 0 0)
(295.075 0 0)
(294.494 0 0)
(293.982 0 0)
(293.119 0 0)
(266.744 0 0)
(267.888 0 0)
(269.008 0 0)
(270.106 0 0)
(271.181 0 0)
(272.234 0 0)
(273.266 0 0)
(274.276 0 0)
(275.265 0 0)
(276.233 0 0)
(277.18 0 0)
(278.106 0 0)
(279.012 0 0)
(279.897 0 0)
(280.763 0 0)
(281.608 0 0)
(282.433 0 0)
(283.239 0 0)
(284.025 0 0)
(284.792 0 0)
(285.539 0 0)
(286.267 0 0)
(286.975 0 0)
(287.665 0 0)
(288.335 0 0)
(288.986 0 0)
(289.618 0 0)
(290.231 0 0)
(290.825 0 0)
(291.4 0 0)
(291.956 0 0)
(292.493 0 0)
(293.012 0 0)
(293.511 0 0)
(293.991 0 0)
(294.452 0 0)
(294.894 0 0)
(295.317 0 0)
(295.721 0 0)
(296.105 0 0)
(296.47 0 0)
(296.816 0 0)
(297.142 0 0)
(297.449 0 0)
(297.736 0 0)
(298.003 0 0)
(298.25 0 0)
(298.476 0 0)
(298.683 0 0)
(298.869 0 0)
(299.035 0 0)
(299.179 0 0)
(299.303 0 0)
(299.405 0 0)
(299.486 0 0)
(299.545 0 0)
(299.583 0 0)
(299.597 0 0)
(299.589 0 0)
(299.559 0 0)
(299.505 0 0)
(299.427 0 0)
(299.325 0 0)
(299.199 0 0)
(299.047 0 0)
(298.87 0 0)
(298.668 0 0)
(298.438 0 0)
(298.182 0 0)
(297.897 0 0)
(297.584 0 0)
(297.242 0 0)
(296.869 0 0)
(296.467 0 0)
(296.029 0 0)
(295.569 0 0)
(295.041 0 0)
(294.576 0 0)
(293.794 0 0)
(267.844 0 0)
(268.935 0 0)
(270.004 0 0)
(271.053 0 0)
(272.081 0 0)
(273.088 0 0)
(274.075 0 0)
(275.043 0 0)
(275.99 0 0)
(276.918 0 0)
(277.826 0 0)
(278.715 0 0)
(279.584 0 0)
(280.435 0 0)
(281.266 0 0)
(282.079 0 0)
(282.873 0 0)
(283.649 0 0)
(284.406 0 0)
(285.144 0 0)
(285.865 0 0)
(286.566 0 0)
(287.25 0 0)
(287.916 0 0)
(288.563 0 0)
(289.192 0 0)
(289.803 0 0)
(290.396 0 0)
(290.971 0 0)
(291.528 0 0)
(292.067 0 0)
(292.588 0 0)
(293.091 0 0)
(293.576 0 0)
(294.043 0 0)
(294.491 0 0)
(294.922 0 0)
(295.334 0 0)
(295.728 0 0)
(296.103 0 0)
(296.46 0 0)
(296.799 0 0)
(297.119 0 0)
(297.42 0 0)
(297.703 0 0)
(297.967 0 0)
(298.211 0 0)
(298.437 0 0)
(298.643 0 0)
(298.83 0 0)
(298.997 0 0)
(299.144 0 0)
(299.272 0 0)
(299.379 0 0)
(299.466 0 0)
(299.532 0 0)
(299.577 0 0)
(299.602 0 0)
(299.605 0 0)
(299.586 0 0)
(299.545 0 0)
(299.482 0 0)
(299.397 0 0)
(299.288 0 0)
(299.156 0 0)
(299 0 0)
(298.82 0 0)
(298.615 0 0)
(298.385 0 0)
(298.129 0 0)
(297.846 0 0)
(297.536 0 0)
(297.199 0 0)
(296.833 0 0)
(296.435 0 0)
(296.017 0 0)
(295.538 0 0)
(295.114 0 0)
(294.405 0 0)
(268.889 0 0)
(269.931 0 0)
(270.953 0 0)
(271.955 0 0)
(272.938 0 0)
(273.902 0 0)
(274.847 0 0)
(275.774 0 0)
(276.682 0 0)
(277.571 0 0)
(278.443 0 0)
(279.296 0 0)
(280.131 0 0)
(280.949 0 0)
(281.748 0 0)
(282.53 0 0)
(283.294 0 0)
(284.041 0 0)
(284.77 0 0)
(285.482 0 0)
(286.177 0 0)
(286.854 0 0)
(287.514 0 0)
(288.157 0 0)
(288.782 0 0)
(289.39 0 0)
(289.981 0 0)
(290.555 0 0)
(291.112 0 0)
(291.652 0 0)
(292.174 0 0)
(292.68 0 0)
(293.168 0 0)
(293.639 0 0)
(294.093 0 0)
(294.529 0 0)
(294.948 0 0)
(295.35 0 0)
(295.734 0 0)
(296.101 0 0)
(296.451 0 0)
(296.782 0 0)
(297.096 0 0)
(297.392 0 0)
(297.671 0 0)
(297.931 0 0)
(298.173 0 0)
(298.397 0 0)
(298.603 0 0)
(298.79 0 0)
(298.958 0 0)
(299.108 0 0)
(299.239 0 0)
(299.35 0 0)
(299.443 0 0)
(299.515 0 0)
(299.568 0 0)
(299.601 0 0)
(299.614 0 0)
(299.607 0 0)
(299.578 0 0)
(299.529 0 0)
(299.458 0 0)
(299.366 0 0)
(299.252 0 0)
(299.115 0 0)
(298.956 0 0)
(298.773 0 0)
(298.567 0 0)
(298.337 0 0)
(298.082 0 0)
(297.802 0 0)
(297.496 0 0)
(297.165 0 0)
(296.804 0 0)
(296.424 0 0)
(295.988 0 0)
(295.602 0 0)
(294.958 0 0)
(269.884 0 0)
(270.879 0 0)
(271.855 0 0)
(272.814 0 0)
(273.755 0 0)
(274.678 0 0)
(275.583 0 0)
(276.471 0 0)
(277.342 0 0)
(278.196 0 0)
(279.032 0 0)
(279.852 0 0)
(280.655 0 0)
(281.44 0 0)
(282.21 0 0)
(282.962 0 0)
(283.698 0 0)
(284.417 0 0)
(285.12 0 0)
(285.806 0 0)
(286.476 0 0)
(287.13 0 0)
(287.767 0 0)
(288.388 0 0)
(288.993 0 0)
(289.581 0 0)
(290.153 0 0)
(290.709 0 0)
(291.248 0 0)
(291.771 0 0)
(292.278 0 0)
(292.768 0 0)
(293.242 0 0)
(293.7 0 0)
(294.141 0 0)
(294.566 0 0)
(294.974 0 0)
(295.366 0 0)
(295.741 0 0)
(296.099 0 0)
(296.441 0 0)
(296.766 0 0)
(297.074 0 0)
(297.365 0 0)
(297.639 0 0)
(297.896 0 0)
(298.136 0 0)
(298.358 0 0)
(298.563 0 0)
(298.75 0 0)
(298.919 0 0)
(299.071 0 0)
(299.205 0 0)
(299.32 0 0)
(299.417 0 0)
(299.496 0 0)
(299.556 0 0)
(299.596 0 0)
(299.618 0 0)
(299.621 0 0)
(299.604 0 0)
(299.567 0 0)
(299.51 0 0)
(299.433 0 0)
(299.335 0 0)
(299.216 0 0)
(299.076 0 0)
(298.914 0 0)
(298.73 0 0)
(298.524 0 0)
(298.295 0 0)
(298.042 0 0)
(297.765 0 0)
(297.465 0 0)
(297.137 0 0)
(296.792 0 0)
(296.396 0 0)
(296.045 0 0)
(295.46 0 0)
(270.831 0 0)
(271.782 0 0)
(272.716 0 0)
(273.633 0 0)
(274.534 0 0)
(275.418 0 0)
(276.286 0 0)
(277.137 0 0)
(277.973 0 0)
(278.792 0 0)
(279.596 0 0)
(280.383 0 0)
(281.155 0 0)
(281.911 0 0)
(282.651 0 0)
(283.376 0 0)
(284.084 0 0)
(284.778 0 0)
(285.455 0 0)
(286.117 0 0)
(286.764 0 0)
(287.395 0 0)
(288.01 0 0)
(288.611 0 0)
(289.195 0 0)
(289.764 0 0)
(290.318 0 0)
(290.856 0 0)
(291.379 0 0)
(291.886 0 0)
(292.377 0 0)
(292.853 0 0)
(293.314 0 0)
(293.759 0 0)
(294.188 0 0)
(294.601 0 0)
(294.999 0 0)
(295.381 0 0)
(295.747 0 0)
(296.098 0 0)
(296.432 0 0)
(296.75 0 0)
(297.052 0 0)
(297.338 0 0)
(297.608 0 0)
(297.862 0 0)
(298.099 0 0)
(298.319 0 0)
(298.523 0 0)
(298.71 0 0)
(298.88 0 0)
(299.033 0 0)
(299.169 0 0)
(299.288 0 0)
(299.39 0 0)
(299.473 0 0)
(299.54 0 0)
(299.588 0 0)
(299.618 0 0)
(299.63 0 0)
(299.623 0 0)
(299.598 0 0)
(299.553 0 0)
(299.49 0 0)
(299.407 0 0)
(299.305 0 0)
(299.182 0 0)
(299.039 0 0)
(298.876 0 0)
(298.691 0 0)
(298.485 0 0)
(298.258 0 0)
(298.008 0 0)
(297.737 0 0)
(297.439 0 0)
(297.126 0 0)
(296.766 0 0)
(296.447 0 0)
(295.916 0 0)
(271.732 0 0)
(272.642 0 0)
(273.536 0 0)
(274.414 0 0)
(275.277 0 0)
(276.124 0 0)
(276.956 0 0)
(277.774 0 0)
(278.576 0 0)
(279.363 0 0)
(280.135 0 0)
(280.892 0 0)
(281.634 0 0)
(282.361 0 0)
(283.074 0 0)
(283.772 0 0)
(284.455 0 0)
(285.123 0 0)
(285.777 0 0)
(286.416 0 0)
(287.04 0 0)
(287.649 0 0)
(288.244 0 0)
(288.824 0 0)
(289.39 0 0)
(289.941 0 0)
(290.477 0 0)
(290.998 0 0)
(291.504 0 0)
(291.996 0 0)
(292.473 0 0)
(292.936 0 0)
(293.383 0 0)
(293.815 0 0)
(294.233 0 0)
(294.636 0 0)
(295.023 0 0)
(295.396 0 0)
(295.753 0 0)
(296.096 0 0)
(296.423 0 0)
(296.735 0 0)
(297.031 0 0)
(297.312 0 0)
(297.578 0 0)
(297.828 0 0)
(298.062 0 0)
(298.28 0 0)
(298.483 0 0)
(298.67 0 0)
(298.841 0 0)
(298.995 0 0)
(299.133 0 0)
(299.255 0 0)
(299.36 0 0)
(299.449 0 0)
(299.521 0 0)
(299.575 0 0)
(299.613 0 0)
(299.633 0 0)
(299.636 0 0)
(299.622 0 0)
(299.589 0 0)
(299.538 0 0)
(299.469 0 0)
(299.382 0 0)
(299.275 0 0)
(299.15 0 0)
(299.005 0 0)
(298.841 0 0)
(298.657 0 0)
(298.452 0 0)
(298.227 0 0)
(297.982 0 0)
(297.712 0 0)
(297.428 0 0)
(297.102 0 0)
(296.811 0 0)
(296.329 0 0)
(272.592 0 0)
(273.462 0 0)
(274.317 0 0)
(275.159 0 0)
(275.986 0 0)
(276.798 0 0)
(277.597 0 0)
(278.381 0 0)
(279.152 0 0)
(279.908 0 0)
(280.65 0 0)
(281.378 0 0)
(282.093 0 0)
(282.793 0 0)
(283.479 0 0)
(284.152 0 0)
(284.81 0 0)
(285.455 0 0)
(286.085 0 0)
(286.702 0 0)
(287.305 0 0)
(287.894 0 0)
(288.469 0 0)
(289.03 0 0)
(289.577 0 0)
(290.11 0 0)
(290.629 0 0)
(291.135 0 0)
(291.626 0 0)
(292.103 0 0)
(292.566 0 0)
(293.015 0 0)
(293.45 0 0)
(293.87 0 0)
(294.277 0 0)
(294.669 0 0)
(295.047 0 0)
(295.41 0 0)
(295.759 0 0)
(296.094 0 0)
(296.414 0 0)
(296.72 0 0)
(297.01 0 0)
(297.286 0 0)
(297.548 0 0)
(297.794 0 0)
(298.026 0 0)
(298.242 0 0)
(298.444 0 0)
(298.63 0 0)
(298.801 0 0)
(298.956 0 0)
(299.096 0 0)
(299.221 0 0)
(299.329 0 0)
(299.422 0 0)
(299.499 0 0)
(299.56 0 0)
(299.604 0 0)
(299.633 0 0)
(299.644 0 0)
(299.639 0 0)
(299.617 0 0)
(299.578 0 0)
(299.522 0 0)
(299.448 0 0)
(299.357 0 0)
(299.247 0 0)
(299.12 0 0)
(298.974 0 0)
(298.81 0 0)
(298.627 0 0)
(298.424 0 0)
(298.202 0 0)
(297.959 0 0)
(297.702 0 0)
(297.406 0 0)
(297.141 0 0)
(296.704 0 0)
(273.41 0 0)
(274.244 0 0)
(275.063 0 0)
(275.87 0 0)
(276.663 0 0)
(277.442 0 0)
(278.209 0 0)
(278.962 0 0)
(279.702 0 0)
(280.429 0 0)
(281.143 0 0)
(281.844 0 0)
(282.532 0 0)
(283.206 0 0)
(283.867 0 0)
(284.515 0 0)
(285.151 0 0)
(285.772 0 0)
(286.381 0 0)
(286.977 0 0)
(287.559 0 0)
(288.129 0 0)
(288.685 0 0)
(289.227 0 0)
(289.757 0 0)
(290.273 0 0)
(290.777 0 0)
(291.266 0 0)
(291.743 0 0)
(292.206 0 0)
(292.655 0 0)
(293.092 0 0)
(293.514 0 0)
(293.924 0 0)
(294.319 0 0)
(294.701 0 0)
(295.07 0 0)
(295.424 0 0)
(295.765 0 0)
(296.092 0 0)
(296.405 0 0)
(296.705 0 0)
(296.99 0 0)
(297.261 0 0)
(297.519 0 0)
(297.762 0 0)
(297.99 0 0)
(298.205 0 0)
(298.405 0 0)
(298.59 0 0)
(298.761 0 0)
(298.917 0 0)
(299.059 0 0)
(299.186 0 0)
(299.297 0 0)
(299.394 0 0)
(299.475 0 0)
(299.542 0 0)
(299.592 0 0)
(299.628 0 0)
(299.647 0 0)
(299.651 0 0)
(299.639 0 0)
(299.61 0 0)
(299.566 0 0)
(299.505 0 0)
(299.427 0 0)
(299.333 0 0)
(299.221 0 0)
(299.092 0 0)
(298.946 0 0)
(298.783 0 0)
(298.601 0 0)
(298.401 0 0)
(298.182 0 0)
(297.949 0 0)
(297.681 0 0)
(297.44 0 0)
(297.044 0 0)
(274.191 0 0)
(274.99 0 0)
(275.775 0 0)
(276.548 0 0)
(277.309 0 0)
(278.058 0 0)
(278.794 0 0)
(279.518 0 0)
(280.229 0 0)
(280.928 0 0)
(281.615 0 0)
(282.29 0 0)
(282.952 0 0)
(283.602 0 0)
(284.239 0 0)
(284.864 0 0)
(285.477 0 0)
(286.077 0 0)
(286.665 0 0)
(287.241 0 0)
(287.804 0 0)
(288.354 0 0)
(288.892 0 0)
(289.418 0 0)
(289.93 0 0)
(290.431 0 0)
(290.918 0 0)
(291.393 0 0)
(291.855 0 0)
(292.305 0 0)
(292.742 0 0)
(293.166 0 0)
(293.577 0 0)
(293.975 0 0)
(294.36 0 0)
(294.732 0 0)
(295.092 0 0)
(295.438 0 0)
(295.771 0 0)
(296.091 0 0)
(296.397 0 0)
(296.69 0 0)
(296.97 0 0)
(297.237 0 0)
(297.49 0 0)
(297.729 0 0)
(297.955 0 0)
(298.168 0 0)
(298.366 0 0)
(298.551 0 0)
(298.721 0 0)
(298.878 0 0)
(299.021 0 0)
(299.15 0 0)
(299.264 0 0)
(299.364 0 0)
(299.45 0 0)
(299.521 0 0)
(299.577 0 0)
(299.619 0 0)
(299.646 0 0)
(299.657 0 0)
(299.654 0 0)
(299.636 0 0)
(299.602 0 0)
(299.553 0 0)
(299.488 0 0)
(299.407 0 0)
(299.31 0 0)
(299.197 0 0)
(299.068 0 0)
(298.922 0 0)
(298.759 0 0)
(298.58 0 0)
(298.382 0 0)
(298.172 0 0)
(297.929 0 0)
(297.711 0 0)
(297.352 0 0)
(274.936 0 0)
(275.701 0 0)
(276.455 0 0)
(277.196 0 0)
(277.927 0 0)
(278.646 0 0)
(279.353 0 0)
(280.049 0 0)
(280.733 0 0)
(281.406 0 0)
(282.067 0 0)
(282.717 0 0)
(283.355 0 0)
(283.981 0 0)
(284.596 0 0)
(285.199 0 0)
(285.79 0 0)
(286.37 0 0)
(286.938 0 0)
(287.494 0 0)
(288.038 0 0)
(288.571 0 0)
(289.092 0 0)
(289.6 0 0)
(290.097 0 0)
(290.582 0 0)
(291.055 0 0)
(291.515 0 0)
(291.964 0 0)
(292.401 0 0)
(292.825 0 0)
(293.237 0 0)
(293.637 0 0)
(294.024 0 0)
(294.4 0 0)
(294.763 0 0)
(295.113 0 0)
(295.451 0 0)
(295.776 0 0)
(296.089 0 0)
(296.389 0 0)
(296.676 0 0)
(296.951 0 0)
(297.213 0 0)
(297.462 0 0)
(297.698 0 0)
(297.921 0 0)
(298.131 0 0)
(298.328 0 0)
(298.511 0 0)
(298.682 0 0)
(298.839 0 0)
(298.983 0 0)
(299.113 0 0)
(299.23 0 0)
(299.333 0 0)
(299.422 0 0)
(299.497 0 0)
(299.559 0 0)
(299.607 0 0)
(299.64 0 0)
(299.659 0 0)
(299.664 0 0)
(299.655 0 0)
(299.631 0 0)
(299.593 0 0)
(299.539 0 0)
(299.471 0 0)
(299.388 0 0)
(299.289 0 0)
(299.175 0 0)
(299.046 0 0)
(298.901 0 0)
(298.741 0 0)
(298.563 0 0)
(298.373 0 0)
(298.154 0 0)
(297.956 0 0)
(297.631 0 0)
(275.647 0 0)
(276.381 0 0)
(277.104 0 0)
(277.816 0 0)
(278.517 0 0)
(279.208 0 0)
(279.888 0 0)
(280.557 0 0)
(281.215 0 0)
(281.863 0 0)
(282.5 0 0)
(283.126 0 0)
(283.741 0 0)
(284.345 0 0)
(284.938 0 0)
(285.52 0 0)
(286.091 0 0)
(286.651 0 0)
(287.2 0 0)
(287.738 0 0)
(288.264 0 0)
(288.779 0 0)
(289.283 0 0)
(289.776 0 0)
(290.258 0 0)
(290.728 0 0)
(291.186 0 0)
(291.633 0 0)
(292.069 0 0)
(292.493 0 0)
(292.905 0 0)
(293.306 0 0)
(293.695 0 0)
(294.072 0 0)
(294.438 0 0)
(294.792 0 0)
(295.134 0 0)
(295.463 0 0)
(295.781 0 0)
(296.087 0 0)
(296.381 0 0)
(296.663 0 0)
(296.932 0 0)
(297.189 0 0)
(297.434 0 0)
(297.667 0 0)
(297.887 0 0)
(298.095 0 0)
(298.29 0 0)
(298.473 0 0)
(298.642 0 0)
(298.8 0 0)
(298.944 0 0)
(299.076 0 0)
(299.194 0 0)
(299.3 0 0)
(299.393 0 0)
(299.472 0 0)
(299.538 0 0)
(299.591 0 0)
(299.631 0 0)
(299.657 0 0)
(299.67 0 0)
(299.669 0 0)
(299.654 0 0)
(299.625 0 0)
(299.583 0 0)
(299.526 0 0)
(299.455 0 0)
(299.37 0 0)
(299.27 0 0)
(299.156 0 0)
(299.027 0 0)
(298.884 0 0)
(298.725 0 0)
(298.554 0 0)
(298.356 0 0)
(298.177 0 0)
(297.883 0 0)
(276.326 0 0)
(277.03 0 0)
(277.724 0 0)
(278.407 0 0)
(279.081 0 0)
(279.745 0 0)
(280.399 0 0)
(281.043 0 0)
(281.677 0 0)
(282.301 0 0)
(282.914 0 0)
(283.518 0 0)
(284.111 0 0)
(284.693 0 0)
(285.266 0 0)
(285.828 0 0)
(286.379 0 0)
(286.921 0 0)
(287.451 0 0)
(287.971 0 0)
(288.481 0 0)
(288.98 0 0)
(289.468 0 0)
(289.945 0 0)
(290.412 0 0)
(290.868 0 0)
(291.313 0 0)
(291.747 0 0)
(292.17 0 0)
(292.582 0 0)
(292.983 0 0)
(293.373 0 0)
(293.751 0 0)
(294.119 0 0)
(294.475 0 0)
(294.82 0 0)
(295.154 0 0)
(295.476 0 0)
(295.786 0 0)
(296.086 0 0)
(296.373 0 0)
(296.649 0 0)
(296.914 0 0)
(297.166 0 0)
(297.407 0 0)
(297.637 0 0)
(297.854 0 0)
(298.059 0 0)
(298.253 0 0)
(298.434 0 0)
(298.603 0 0)
(298.76 0 0)
(298.905 0 0)
(299.038 0 0)
(299.158 0 0)
(299.266 0 0)
(299.362 0 0)
(299.445 0 0)
(299.516 0 0)
(299.573 0 0)
(299.619 0 0)
(299.651 0 0)
(299.67 0 0)
(299.677 0 0)
(299.671 0 0)
(299.651 0 0)
(299.618 0 0)
(299.572 0 0)
(299.513 0 0)
(299.44 0 0)
(299.354 0 0)
(299.254 0 0)
(299.14 0 0)
(299.012 0 0)
(298.87 0 0)
(298.717 0 0)
(298.538 0 0)
(298.377 0 0)
(298.111 0 0)
(276.974 0 0)
(277.65 0 0)
(278.316 0 0)
(278.973 0 0)
(279.621 0 0)
(280.26 0 0)
(280.889 0 0)
(281.509 0 0)
(282.119 0 0)
(282.72 0 0)
(283.311 0 0)
(283.893 0 0)
(284.465 0 0)
(285.028 0 0)
(285.58 0 0)
(286.123 0 0)
(286.656 0 0)
(287.18 0 0)
(287.693 0 0)
(288.196 0 0)
(288.689 0 0)
(289.173 0 0)
(289.646 0 0)
(290.108 0 0)
(290.561 0 0)
(291.003 0 0)
(291.435 0 0)
(291.856 0 0)
(292.267 0 0)
(292.668 0 0)
(293.058 0 0)
(293.437 0 0)
(293.806 0 0)
(294.164 0 0)
(294.511 0 0)
(294.847 0 0)
(295.173 0 0)
(295.488 0 0)
(295.791 0 0)
(296.084 0 0)
(296.366 0 0)
(296.636 0 0)
(296.896 0 0)
(297.144 0 0)
(297.381 0 0)
(297.607 0 0)
(297.821 0 0)
(298.024 0 0)
(298.216 0 0)
(298.396 0 0)
(298.564 0 0)
(298.721 0 0)
(298.867 0 0)
(299 0 0)
(299.122 0 0)
(299.232 0 0)
(299.33 0 0)
(299.416 0 0)
(299.491 0 0)
(299.553 0 0)
(299.603 0 0)
(299.641 0 0)
(299.667 0 0)
(299.681 0 0)
(299.682 0 0)
(299.671 0 0)
(299.647 0 0)
(299.611 0 0)
(299.562 0 0)
(299.501 0 0)
(299.426 0 0)
(299.339 0 0)
(299.239 0 0)
(299.126 0 0)
(298.999 0 0)
(298.862 0 0)
(298.702 0 0)
(298.557 0 0)
(298.317 0 0)
(277.594 0 0)
(278.243 0 0)
(278.883 0 0)
(279.514 0 0)
(280.137 0 0)
(280.752 0 0)
(281.357 0 0)
(281.954 0 0)
(282.542 0 0)
(283.122 0 0)
(283.692 0 0)
(284.253 0 0)
(284.805 0 0)
(285.348 0 0)
(285.882 0 0)
(286.407 0 0)
(286.922 0 0)
(287.428 0 0)
(287.925 0 0)
(288.412 0 0)
(288.89 0 0)
(289.358 0 0)
(289.816 0 0)
(290.265 0 0)
(290.704 0 0)
(291.133 0 0)
(291.552 0 0)
(291.962 0 0)
(292.361 0 0)
(292.751 0 0)
(293.13 0 0)
(293.499 0 0)
(293.858 0 0)
(294.207 0 0)
(294.546 0 0)
(294.874 0 0)
(295.192 0 0)
(295.499 0 0)
(295.796 0 0)
(296.083 0 0)
(296.359 0 0)
(296.624 0 0)
(296.878 0 0)
(297.122 0 0)
(297.355 0 0)
(297.578 0 0)
(297.789 0 0)
(297.99 0 0)
(298.179 0 0)
(298.358 0 0)
(298.526 0 0)
(298.682 0 0)
(298.828 0 0)
(298.962 0 0)
(299.085 0 0)
(299.197 0 0)
(299.297 0 0)
(299.387 0 0)
(299.464 0 0)
(299.531 0 0)
(299.585 0 0)
(299.629 0 0)
(299.66 0 0)
(299.68 0 0)
(299.688 0 0)
(299.685 0 0)
(299.67 0 0)
(299.643 0 0)
(299.603 0 0)
(299.552 0 0)
(299.489 0 0)
(299.414 0 0)
(299.327 0 0)
(299.227 0 0)
(299.115 0 0)
(298.992 0 0)
(298.849 0 0)
(298.718 0 0)
(298.503 0 0)
(278.186 0 0)
(278.809 0 0)
(279.425 0 0)
(280.032 0 0)
(280.632 0 0)
(281.223 0 0)
(281.806 0 0)
(282.381 0 0)
(282.948 0 0)
(283.507 0 0)
(284.057 0 0)
(284.599 0 0)
(285.132 0 0)
(285.656 0 0)
(286.172 0 0)
(286.679 0 0)
(287.178 0 0)
(287.668 0 0)
(288.148 0 0)
(288.62 0 0)
(289.083 0 0)
(289.536 0 0)
(289.981 0 0)
(290.416 0 0)
(290.842 0 0)
(291.259 0 0)
(291.666 0 0)
(292.064 0 0)
(292.452 0 0)
(292.831 0 0)
(293.2 0 0)
(293.559 0 0)
(293.909 0 0)
(294.249 0 0)
(294.579 0 0)
(294.9 0 0)
(295.21 0 0)
(295.51 0 0)
(295.801 0 0)
(296.081 0 0)
(296.351 0 0)
(296.611 0 0)
(296.861 0 0)
(297.101 0 0)
(297.33 0 0)
(297.549 0 0)
(297.758 0 0)
(297.956 0 0)
(298.144 0 0)
(298.321 0 0)
(298.488 0 0)
(298.644 0 0)
(298.789 0 0)
(298.924 0 0)
(299.048 0 0)
(299.161 0 0)
(299.264 0 0)
(299.355 0 0)
(299.436 0 0)
(299.506 0 0)
(299.565 0 0)
(299.613 0 0)
(299.65 0 0)
(299.676 0 0)
(299.691 0 0)
(299.694 0 0)
(299.687 0 0)
(299.668 0 0)
(299.638 0 0)
(299.596 0 0)
(299.543 0 0)
(299.479 0 0)
(299.403 0 0)
(299.316 0 0)
(299.217 0 0)
(299.108 0 0)
(298.981 0 0)
(298.863 0 0)
(298.67 0 0)
(278.752 0 0)
(279.351 0 0)
(279.943 0 0)
(280.528 0 0)
(281.105 0 0)
(281.674 0 0)
(282.236 0 0)
(282.79 0 0)
(283.337 0 0)
(283.876 0 0)
(284.407 0 0)
(284.93 0 0)
(285.445 0 0)
(285.952 0 0)
(286.45 0 0)
(286.941 0 0)
(287.423 0 0)
(287.897 0 0)
(288.363 0 0)
(288.82 0 0)
(289.268 0 0)
(289.708 0 0)
(290.139 0 0)
(290.561 0 0)
(290.975 0 0)
(291.379 0 0)
(291.775 0 0)
(292.162 0 0)
(292.539 0 0)
(292.908 0 0)
(293.267 0 0)
(293.617 0 0)
(293.958 0 0)
(294.29 0 0)
(294.612 0 0)
(294.925 0 0)
(295.228 0 0)
(295.521 0 0)
(295.805 0 0)
(296.08 0 0)
(296.344 0 0)
(296.599 0 0)
(296.845 0 0)
(297.08 0 0)
(297.306 0 0)
(297.521 0 0)
(297.727 0 0)
(297.923 0 0)
(298.108 0 0)
(298.284 0 0)
(298.45 0 0)
(298.605 0 0)
(298.75 0 0)
(298.886 0 0)
(299.01 0 0)
(299.125 0 0)
(299.229 0 0)
(299.323 0 0)
(299.407 0 0)
(299.48 0 0)
(299.543 0 0)
(299.595 0 0)
(299.637 0 0)
(299.668 0 0)
(299.689 0 0)
(299.699 0 0)
(299.698 0 0)
(299.687 0 0)
(299.665 0 0)
(299.632 0 0)
(299.589 0 0)
(299.535 0 0)
(299.47 0 0)
(299.395 0 0)
(299.307 0 0)
(299.212 0 0)
(299.098 0 0)
(298.993 0 0)
(298.82 0 0)
(279.294 0 0)
(279.87 0 0)
(280.439 0 0)
(281.002 0 0)
(281.558 0 0)
(282.106 0 0)
(282.648 0 0)
(283.182 0 0)
(283.71 0 0)
(284.23 0 0)
(284.742 0 0)
(285.248 0 0)
(285.745 0 0)
(286.235 0 0)
(286.718 0 0)
(287.192 0 0)
(287.659 0 0)
(288.118 0 0)
(288.569 0 0)
(289.012 0 0)
(289.447 0 0)
(289.873 0 0)
(290.291 0 0)
(290.701 0 0)
(291.103 0 0)
(291.496 0 0)
(291.881 0 0)
(292.257 0 0)
(292.624 0 0)
(292.983 0 0)
(293.332 0 0)
(293.674 0 0)
(294.006 0 0)
(294.329 0 0)
(294.643 0 0)
(294.949 0 0)
(295.245 0 0)
(295.532 0 0)
(295.81 0 0)
(296.078 0 0)
(296.338 0 0)