/*--------------------------------*- C++ -*----------------------------------*\
| =========                 |                                                 |
| \\      /  F ield         | OpenFOAM: The Open Source CFD Toolbox           |
|  \\    /   O peration     | Version:  2312                                  |
|   \\  /    A nd           | Website:  www.openfoam.com                      |
|    \\/     M anipulation  |                                                 |
\*---------------------------------------------------------------------------*/
FoamFile
{
    version     2.0;
    format      ascii;
    arch        "LSB;label=32;scalar=64";
    class       volVectorField;
    location    "2.6";
    object      flux;
}
// * * * * * * * * * * * * * * * * * * * * * * * * * * * * * * * * * * * * * //

dimensions      [0 1 -1 1 0 0 0];

internalField   nonuniform List<vector> 
100
(
(7.32666 0 0)
(7.02486 0 0)
(6.72675 0 0)
(6.43281 0 0)
(6.14346 0 0)
(5.85908 0 0)
(5.58004 0 0)
(5.30662 0 0)
(5.03911 0 0)
(4.77775 0 0)
(4.52275 0 0)
(4.27429 0 0)
(4.03252 0 0)
(3.79757 0 0)
(3.56953 0 0)
(3.34849 0 0)
(3.13449 0 0)
(2.92758 0 0)
(2.72777 0 0)
(2.53504 0 0)
(2.34939 0 0)
(2.17077 0 0)
(1.99914 0 0)
(1.83442 0 0)
(1.67655 0 0)
(1.52544 0 0)
(1.38099 0 0)
(1.24308 0 0)
(1.11161 0 0)
(0.986452 0 0)
(0.867476 0 0)
(0.754546 0 0)
(0.647522 0 0)
(0.546258 0 0)
(0.450605 0 0)
(0.36041 0 0)
(0.27552 0 0)
(0.195777 0 0)
(0.121024 0 0)
(0.0511006 0 0)
(-0.0141518 0 0)
(-0.0748929 0 0)
(-0.131282 0 0)
(-0.183477 0 0)
(-0.231636 0 0)
(-0.275913 0 0)
(-0.316464 0 0)
(-0.35344 0 0)
(-0.386991 0 0)
(-0.417265 0 0)
(-0.444404 0 0)
(-0.468552 0 0)
(-0.489847 0 0)
(-0.508424 0 0)
(-0.524414 0 0)
(-0.537948 0 0)
(-0.549148 0 0)
(-0.558138 0 0)
(-0.565033 0 0)
(-0.569949 0 0)
(-0.572995 0 0)
(-0.574277 0 0)
(-0.573898 0 0)
(-0.571957 0 0)
(-0.568547 0 0)
(-0.563761 0 0)
(-0.557684 0 0)
(-0.5504 0 0)
(-0.54199 0 0)
(-0.532529 0 0)
(-0.522088 0 0)
(-0.510738 0 0)
(-0.498544 0 0)
(-0.485567 0 0)
(-0.471866 0 0)
(-0.457497 0 0)
(-0.442512 0 0)
(-0.42696 0 0)
(-0.410888 0 0)
(-0.394339 0 0)
(-0.377353 0 0)
(-0.359971 0 0)
(-0.342226 0 0)
(-0.324152 0 0)
(-0.305781 0 0)
(-0.287141 0 0)
(-0.268259 0 0)
(-0.24916 0 0)
(-0.229868 0 0)
(-0.210404 0 0)
(-0.190788 0 0)
(-0.171039 0 0)
(-0.151174 0 0)
(-0.131209 0 0)
(-0.111161 0 0)
(-0.0910421 0 0)
(-0.0708676 0 0)
(-0.05065 0 0)
(-0.0304021 0 0)
(-0.010136 0 0)
)
;

boundaryField
{
    movingWall
    {
        type            calculated;
        value           uniform (7.47843 0 0);
    }
    fixedWalls
    {
        type            calculated;
        value           nonuniform List<vector> 
201
(
(7.32666 0 0)
(7.02486 0 0)
(6.72675 0 0)
(6.43281 0 0)
(6.14346 0 0)
(5.85908 0 0)
(5.58004 0 0)
(5.30662 0 0)
(5.03911 0 0)
(4.77775 0 0)
(4.52275 0 0)
(4.27429 0 0)
(4.03252 0 0)
(3.79757 0 0)
(3.56953 0 0)
(3.34849 0 0)
(3.13449 0 0)
(2.92758 0 0)
(2.72777 0 0)
(2.53504 0 0)
(2.34939 0 0)
(2.17077 0 0)
(1.99914 0 0)
(1.83442 0 0)
(1.67655 0 0)
(1.52544 0 0)
(1.38099 0 0)
(1.24308 0 0)
(1.11161 0 0)
(0.986452 0 0)
(0.867476 0 0)
(0.754546 0 0)
(0.647522 0 0)
(0.546258 0 0)
(0.450605 0 0)
(0.36041 0 0)
(0.27552 0 0)
(0.195777 0 0)
(0.121024 0 0)
(0.0511006 0 0)
(-0.0141518 0 0)
(-0.0748929 0 0)
(-0.131282 0 0)
(-0.183477 0 0)
(-0.231636 0 0)
(-0.275913 0 0)
(-0.316464 0 0)
(-0.35344 0 0)
(-0.386991 0 0)
(-0.417265 0 0)
(-0.444404 0 0)
(-0.468552 0 0)
(-0.489847 0 0)
(-0.508424 0 0)
(-0.524414 0 0)
(-0.537948 0 0)
(-0.549148 0 0)
(-0.558138 0 0)
(-0.565033 0 0)
(-0.569949 0 0)
(-0.572995 0 0)
(-0.574277 0 0)
(-0.573898 0 0)
(-0.571957 0 0)
(-0.568547 0 0)
(-0.563761 0 0)
(-0.557684 0 0)
(-0.5504 0 0)
(-0.54199 0 0)
(-0.532529 0 0)
(-0.522088 0 0)
(-0.510738 0 0)
(-0.498544 0 0)
(-0.485567 0 0)
(-0.471866 0 0)
(-0.457497 0 0)
(-0.442512 0 0)
(-0.42696 0 0)
(-0.410888 0 0)
(-0.394339 0 0)
(-0.377353 0 0)
(-0.359971 0 0)
(-0.342226 0 0)
(-0.324152 0 0)
(-0.305781 0 0)
(-0.287141 0 0)
(-0.268259 0 0)
(-0.24916 0 0)
(-0.229868 0 0)
(-0.210404 0 0)
(-0.190788 0 0)
(-0.171039 0 0)
(-0.151174 0 0)
(-0.131209 0 0)
(-0.111161 0 0)
(-0.0910421 0 0)
(-0.0708676 0 0)
(-0.05065 0 0)
(-0.0304021 0 0)
(-0.010136 0 0)
(0 0 0)
(7.32666 0 0)
(7.02486 0 0)
(6.72675 0 0)
(6.43281 0 0)
(6.14346 0 0)
(5.85908 0 0)
(5.58004 0 0)
(5.30662 0 0)
(5.03911 0 0)
(4.77775 0 0)
(4.52275 0 0)
(4.27429 0 0)
(4.03252 0 0)
(3.79757 0 0)
(3.56953 0 0)
(3.34849 0 0)
(3.13449 0 0)
(2.92758 0 0)
(2.72777 0 0)
(2.53504 0 0)
(2.34939 0 0)
(2.17077 0 0)
(1.99914 0 0)
(1.83442 0 0)
(1.67655 0 0)
(1.52544 0 0)
(1.38099 0 0)
(1.24308 0 0)
(1.11161 0 0)
(0.986452 0 0)
(0.867476 0 0)
(0.754546 0 0)
(0.647522 0 0)
(0.546258 0 0)
(0.450605 0 0)
(0.36041 0 0)
(0.27552 0 0)
(0.195777 0 0)
(0.121024 0 0)
(0.0511006 0 0)
(-0.0141518 0 0)
(-0.0748929 0 0)
(-0.131282 0 0)
(-0.183477 0 0)
(-0.231636 0 0)
(-0.275913 0 0)
(-0.316464 0 0)
(-0.35344 0 0)
(-0.386991 0 0)
(-0.417265 0 0)
(-0.444404 0 0)
(-0.468552 0 0)
(-0.489847 0 0)
(-0.508424 0 0)
(-0.524414 0 0)
(-0.537948 0 0)
(-0.549148 0 0)
(-0.558138 0 0)
(-0.565033 0 0)
(-0.569949 0 0)
(-0.572995 0 0)
(-0.574277 0 0)
(-0.573898 0 0)
(-0.571957 0 0)
(-0.568547 0 0)
(-0.563761 0 0)
(-0.557684 0 0)
(-0.5504 0 0)
(-0.54199 0 0)
(-0.532529 0 0)
(-0.522088 0 0)
(-0.510738 0 0)
(-0.498544 0 0)
(-0.485567 0 0)
(-0.471866 0 0)
(-0.457497 0 0)
(-0.442512 0 0)
(-0.42696 0 0)
(-0.410888 0 0)
(-0.394339 0 0)
(-0.377353 0 0)
(-0.359971 0 0)
(-0.342226 0 0)
(-0.324152 0 0)
(-0.305781 0 0)
(-0.287141 0 0)
(-0.268259 0 0)
(-0.24916 0 0)
(-0.229868 0 0)
(-0.210404 0 0)
(-0.190788 0 0)
(-0.171039 0 0)
(-0.151174 0 0)
(-0.131209 0 0)
(-0.111161 0 0)
(-0.0910421 0 0)
(-0.0708676 0 0)
(-0.05065 0 0)
(-0.0304021 0 0)
(-0.010136 0 0)
)
;
    }
    frontAndBack
    {
        type            empty;
    }
}


// ************************************************************************* //
