/*--------------------------------*- C++ -*----------------------------------*\
| =========                 |                                                 |
| \\      /  F ield         | OpenFOAM: The Open Source CFD Toolbox           |
|  \\    /   O peration     | Version:  2312                                  |
|   \\  /    A nd           | Website:  www.openfoam.com                      |
|    \\/     M anipulation  |                                                 |
\*---------------------------------------------------------------------------*/
FoamFile
{
    version     2.0;
    format      ascii;
    arch        "LSB;label=32;scalar=64";
    class       volScalarField;
    location    "2.6";
    object      gradTx;
}
// * * * * * * * * * * * * * * * * * * * * * * * * * * * * * * * * * * * * * //

dimensions      [0 -1 0 1 0 0 0];

internalField   nonuniform List<scalar> 
100
(
7.32666
7.02486
6.72675
6.43281
6.14346
5.85908
5.58004
5.30662
5.03911
4.77775
4.52275
4.27429
4.03252
3.79757
3.56953
3.34849
3.13449
2.92758
2.72777
2.53504
2.34939
2.17077
1.99914
1.83442
1.67655
1.52544
1.38099
1.24308
1.11161
0.986452
0.867476
0.754546
0.647522
0.546258
0.450605
0.36041
0.27552
0.195777
0.121024
0.0511006
-0.0141518
-0.0748929
-0.131282
-0.183477
-0.231636
-0.275913
-0.316464
-0.35344
-0.386991
-0.417265
-0.444404
-0.468552
-0.489847
-0.508424
-0.524414
-0.537948
-0.549148
-0.558138
-0.565033
-0.569949
-0.572995
-0.574277
-0.573898
-0.571957
-0.568547
-0.563761
-0.557684
-0.5504
-0.54199
-0.532529
-0.522088
-0.510738
-0.498544
-0.485567
-0.471866
-0.457497
-0.442512
-0.42696
-0.410888
-0.394339
-0.377353
-0.359971
-0.342226
-0.324152
-0.305781
-0.287141
-0.268259
-0.24916
-0.229868
-0.210404
-0.190788
-0.171039
-0.151174
-0.131209
-0.111161
-0.0910421
-0.0708676
-0.05065
-0.0304021
-0.010136
)
;

boundaryField
{
    movingWall
    {
        type            calculated;
        value           uniform 7.47843;
    }
    fixedWalls
    {
        type            calculated;
        value           nonuniform List<scalar> 
201
(
7.32666
7.02486
6.72675
6.43281
6.14346
5.85908
5.58004
5.30662
5.03911
4.77775
4.52275
4.27429
4.03252
3.79757
3.56953
3.34849
3.13449
2.92758
2.72777
2.53504
2.34939
2.17077
1.99914
1.83442
1.67655
1.52544
1.38099
1.24308
1.11161
0.986452
0.867476
0.754546
0.647522
0.546258
0.450605
0.36041
0.27552
0.195777
0.121024
0.0511006
-0.0141518
-0.0748929
-0.131282
-0.183477
-0.231636
-0.275913
-0.316464
-0.35344
-0.386991
-0.417265
-0.444404
-0.468552
-0.489847
-0.508424
-0.524414
-0.537948
-0.549148
-0.558138
-0.565033
-0.569949
-0.572995
-0.574277
-0.573898
-0.571957
-0.568547
-0.563761
-0.557684
-0.5504
-0.54199
-0.532529
-0.522088
-0.510738
-0.498544
-0.485567
-0.471866
-0.457497
-0.442512
-0.42696
-0.410888
-0.394339
-0.377353
-0.359971
-0.342226
-0.324152
-0.305781
-0.287141
-0.268259
-0.24916
-0.229868
-0.210404
-0.190788
-0.171039
-0.151174
-0.131209
-0.111161
-0.0910421
-0.0708676
-0.05065
-0.0304021
-0.010136
0
7.32666
7.02486
6.72675
6.43281
6.14346
5.85908
5.58004
5.30662
5.03911
4.77775
4.52275
4.27429
4.03252
3.79757
3.56953
3.34849
3.13449
2.92758
2.72777
2.53504
2.34939
2.17077
1.99914
1.83442
1.67655
1.52544
1.38099
1.24308
1.11161
0.986452
0.867476
0.754546
0.647522
0.546258
0.450605
0.36041
0.27552
0.195777
0.121024
0.0511006
-0.0141518
-0.0748929
-0.131282
-0.183477
-0.231636
-0.275913
-0.316464
-0.35344
-0.386991
-0.417265
-0.444404
-0.468552
-0.489847
-0.508424
-0.524414
-0.537948
-0.549148
-0.558138
-0.565033
-0.569949
-0.572995
-0.574277
-0.573898
-0.571957
-0.568547
-0.563761
-0.557684
-0.5504
-0.54199
-0.532529
-0.522088
-0.510738
-0.498544
-0.485567
-0.471866
-0.457497
-0.442512
-0.42696
-0.410888
-0.394339
-0.377353
-0.359971
-0.342226
-0.324152
-0.305781
-0.287141
-0.268259
-0.24916
-0.229868
-0.210404
-0.190788
-0.171039
-0.151174
-0.131209
-0.111161
-0.0910421
-0.0708676
-0.05065
-0.0304021
-0.010136
)
;
    }
    frontAndBack
    {
        type            empty;
    }
}


// ************************************************************************* //
