/*--------------------------------*- C++ -*----------------------------------*\
| =========                 |                                                 |
| \\      /  F ield         | OpenFOAM: The Open Source CFD Toolbox           |
|  \\    /   O peration     | Version:  2312                                  |
|   \\  /    A nd           | Website:  www.openfoam.com                      |
|    \\/     M anipulation  |                                                 |
\*---------------------------------------------------------------------------*/
FoamFile
{
    version     2.0;
    format      ascii;
    arch        "LSB;label=32;scalar=64";
    class       volVectorField;
    location    "2.7";
    object      flux;
}
// * * * * * * * * * * * * * * * * * * * * * * * * * * * * * * * * * * * * * //

dimensions      [0 1 -1 1 0 0 0];

internalField   nonuniform List<vector> 
100
(
(6.68433 0 0)
(6.55966 0 0)
(6.42769 0 0)
(6.28925 0 0)
(6.1451 0 0)
(5.99599 0 0)
(5.84261 0 0)
(5.68563 0 0)
(5.52568 0 0)
(5.36334 0 0)
(5.19917 0 0)
(5.03369 0 0)
(4.8674 0 0)
(4.70074 0 0)
(4.53416 0 0)
(4.36804 0 0)
(4.20276 0 0)
(4.03867 0 0)
(3.87607 0 0)
(3.71525 0 0)
(3.5565 0 0)
(3.40005 0 0)
(3.24612 0 0)
(3.09492 0 0)
(2.94662 0 0)
(2.80139 0 0)
(2.65937 0 0)
(2.52069 0 0)
(2.38545 0 0)
(2.25376 0 0)
(2.12568 0 0)
(2.0013 0 0)
(1.88065 0 0)
(1.76377 0 0)
(1.6507 0 0)
(1.54146 0 0)
(1.43605 0 0)
(1.33446 0 0)
(1.23669 0 0)
(1.14273 0 0)
(1.05253 0 0)
(0.966072 0 0)
(0.883314 0 0)
(0.80421 0 0)
(0.728708 0 0)
(0.656752 0 0)
(0.588284 0 0)
(0.523238 0 0)
(0.461548 0 0)
(0.403143 0 0)
(0.347949 0 0)
(0.295892 0 0)
(0.246894 0 0)
(0.200876 0 0)
(0.157758 0 0)
(0.117458 0 0)
(0.0798952 0 0)
(0.0449858 0 0)
(0.0126472 0 0)
(-0.0172034 0 0)
(-0.044649 0 0)
(-0.069772 0 0)
(-0.0926545 0 0)
(-0.113378 0 0)
(-0.132022 0 0)
(-0.148668 0 0)
(-0.163394 0 0)
(-0.176277 0 0)
(-0.187393 0 0)
(-0.196819 0 0)
(-0.204627 0 0)
(-0.210889 0 0)
(-0.215677 0 0)
(-0.21906 0 0)
(-0.221106 0 0)
(-0.221881 0 0)
(-0.22145 0 0)
(-0.219877 0 0)
(-0.217222 0 0)
(-0.213546 0 0)
(-0.208908 0 0)
(-0.203366 0 0)
(-0.196974 0 0)
(-0.189788 0 0)
(-0.18186 0 0)
(-0.173243 0 0)
(-0.163987 0 0)
(-0.154142 0 0)
(-0.143755 0 0)
(-0.132874 0 0)
(-0.121546 0 0)
(-0.109816 0 0)
(-0.0977274 0 0)
(-0.0853255 0 0)
(-0.072653 0 0)
(-0.0597525 0 0)
(-0.0466661 0 0)
(-0.0334356 0 0)
(-0.0201024 0 0)
(-0.00670764 0 0)
)
;

boundaryField
{
    movingWall
    {
        type            calculated;
        value           uniform (6.74473 0 0);
    }
    fixedWalls
    {
        type            calculated;
        value           nonuniform List<vector> 
201
(
(6.68433 0 0)
(6.55966 0 0)
(6.42769 0 0)
(6.28925 0 0)
(6.1451 0 0)
(5.99599 0 0)
(5.84261 0 0)
(5.68563 0 0)
(5.52568 0 0)
(5.36334 0 0)
(5.19917 0 0)
(5.03369 0 0)
(4.8674 0 0)
(4.70074 0 0)
(4.53416 0 0)
(4.36804 0 0)
(4.20276 0 0)
(4.03867 0 0)
(3.87607 0 0)
(3.71525 0 0)
(3.5565 0 0)
(3.40005 0 0)
(3.24612 0 0)
(3.09492 0 0)
(2.94662 0 0)
(2.80139 0 0)
(2.65937 0 0)
(2.52069 0 0)
(2.38545 0 0)
(2.25376 0 0)
(2.12568 0 0)
(2.0013 0 0)
(1.88065 0 0)
(1.76377 0 0)
(1.6507 0 0)
(1.54146 0 0)
(1.43605 0 0)
(1.33446 0 0)
(1.23669 0 0)
(1.14273 0 0)
(1.05253 0 0)
(0.966072 0 0)
(0.883314 0 0)
(0.80421 0 0)
(0.728708 0 0)
(0.656752 0 0)
(0.588284 0 0)
(0.523238 0 0)
(0.461548 0 0)
(0.403143 0 0)
(0.347949 0 0)
(0.295892 0 0)
(0.246894 0 0)
(0.200876 0 0)
(0.157758 0 0)
(0.117458 0 0)
(0.0798952 0 0)
(0.0449858 0 0)
(0.0126472 0 0)
(-0.0172034 0 0)
(-0.044649 0 0)
(-0.069772 0 0)
(-0.0926545 0 0)
(-0.113378 0 0)
(-0.132022 0 0)
(-0.148668 0 0)
(-0.163394 0 0)
(-0.176277 0 0)
(-0.187393 0 0)
(-0.196819 0 0)
(-0.204627 0 0)
(-0.210889 0 0)
(-0.215677 0 0)
(-0.21906 0 0)
(-0.221106 0 0)
(-0.221881 0 0)
(-0.22145 0 0)
(-0.219877 0 0)
(-0.217222 0 0)
(-0.213546 0 0)
(-0.208908 0 0)
(-0.203366 0 0)
(-0.196974 0 0)
(-0.189788 0 0)
(-0.18186 0 0)
(-0.173243 0 0)
(-0.163987 0 0)
(-0.154142 0 0)
(-0.143755 0 0)
(-0.132874 0 0)
(-0.121546 0 0)
(-0.109816 0 0)
(-0.0977274 0 0)
(-0.0853255 0 0)
(-0.072653 0 0)
(-0.0597525 0 0)
(-0.0466661 0 0)
(-0.0334356 0 0)
(-0.0201024 0 0)
(-0.00670764 0 0)
(0 0 0)
(6.68433 0 0)
(6.55966 0 0)
(6.42769 0 0)
(6.28925 0 0)
(6.1451 0 0)
(5.99599 0 0)
(5.84261 0 0)
(5.68563 0 0)
(5.52568 0 0)
(5.36334 0 0)
(5.19917 0 0)
(5.03369 0 0)
(4.8674 0 0)
(4.70074 0 0)
(4.53416 0 0)
(4.36804 0 0)
(4.20276 0 0)
(4.03867 0 0)
(3.87607 0 0)
(3.71525 0 0)
(3.5565 0 0)
(3.40005 0 0)
(3.24612 0 0)
(3.09492 0 0)
(2.94662 0 0)
(2.80139 0 0)
(2.65937 0 0)
(2.52069 0 0)
(2.38545 0 0)
(2.25376 0 0)
(2.12568 0 0)
(2.0013 0 0)
(1.88065 0 0)
(1.76377 0 0)
(1.6507 0 0)
(1.54146 0 0)
(1.43605 0 0)
(1.33446 0 0)
(1.23669 0 0)
(1.14273 0 0)
(1.05253 0 0)
(0.966072 0 0)
(0.883314 0 0)
(0.80421 0 0)
(0.728708 0 0)
(0.656752 0 0)
(0.588284 0 0)
(0.523238 0 0)
(0.461548 0 0)
(0.403143 0 0)
(0.347949 0 0)
(0.295892 0 0)
(0.246894 0 0)
(0.200876 0 0)
(0.157758 0 0)
(0.117458 0 0)
(0.0798952 0 0)
(0.0449858 0 0)
(0.0126472 0 0)
(-0.0172034 0 0)
(-0.044649 0 0)
(-0.069772 0 0)
(-0.0926545 0 0)
(-0.113378 0 0)
(-0.132022 0 0)
(-0.148668 0 0)
(-0.163394 0 0)
(-0.176277 0 0)
(-0.187393 0 0)
(-0.196819 0 0)
(-0.204627 0 0)
(-0.210889 0 0)
(-0.215677 0 0)
(-0.21906 0 0)
(-0.221106 0 0)
(-0.221881 0 0)
(-0.22145 0 0)
(-0.219877 0 0)
(-0.217222 0 0)
(-0.213546 0 0)
(-0.208908 0 0)
(-0.203366 0 0)
(-0.196974 0 0)
(-0.189788 0 0)
(-0.18186 0 0)
(-0.173243 0 0)
(-0.163987 0 0)
(-0.154142 0 0)
(-0.143755 0 0)
(-0.132874 0 0)
(-0.121546 0 0)
(-0.109816 0 0)
(-0.0977274 0 0)
(-0.0853255 0 0)
(-0.072653 0 0)
(-0.0597525 0 0)
(-0.0466661 0 0)
(-0.0334356 0 0)
(-0.0201024 0 0)
(-0.00670764 0 0)
)
;
    }
    frontAndBack
    {
        type            empty;
    }
}


// ************************************************************************* //
