/*--------------------------------*- C++ -*----------------------------------*\
| =========                 |                                                 |
| \\      /  F ield         | OpenFOAM: The Open Source CFD Toolbox           |
|  \\    /   O peration     | Version:  2312                                  |
|   \\  /    A nd           | Website:  www.openfoam.com                      |
|    \\/     M anipulation  |                                                 |
\*---------------------------------------------------------------------------*/
FoamFile
{
    version     2.0;
    format      ascii;
    arch        "LSB;label=32;scalar=64";
    class       volScalarField;
    location    "2.7";
    object      gradTx;
}
// * * * * * * * * * * * * * * * * * * * * * * * * * * * * * * * * * * * * * //

dimensions      [0 -1 0 1 0 0 0];

internalField   nonuniform List<scalar> 
100
(
6.68433
6.55966
6.42769
6.28925
6.1451
5.99599
5.84261
5.68563
5.52568
5.36334
5.19917
5.03369
4.8674
4.70074
4.53416
4.36804
4.20276
4.03867
3.87607
3.71525
3.5565
3.40005
3.24612
3.09492
2.94662
2.80139
2.65937
2.52069
2.38545
2.25376
2.12568
2.0013
1.88065
1.76377
1.6507
1.54146
1.43605
1.33446
1.23669
1.14273
1.05253
0.966072
0.883314
0.80421
0.728708
0.656752
0.588284
0.523238
0.461548
0.403143
0.347949
0.295892
0.246894
0.200876
0.157758
0.117458
0.0798952
0.0449858
0.0126472
-0.0172034
-0.044649
-0.069772
-0.0926545
-0.113378
-0.132022
-0.148668
-0.163394
-0.176277
-0.187393
-0.196819
-0.204627
-0.210889
-0.215677
-0.21906
-0.221106
-0.221881
-0.22145
-0.219877
-0.217222
-0.213546
-0.208908
-0.203366
-0.196974
-0.189788
-0.18186
-0.173243
-0.163987
-0.154142
-0.143755
-0.132874
-0.121546
-0.109816
-0.0977274
-0.0853255
-0.072653
-0.0597525
-0.0466661
-0.0334356
-0.0201024
-0.00670764
)
;

boundaryField
{
    movingWall
    {
        type            calculated;
        value           uniform 6.74473;
    }
    fixedWalls
    {
        type            calculated;
        value           nonuniform List<scalar> 
201
(
6.68433
6.55966
6.42769
6.28925
6.1451
5.99599
5.84261
5.68563
5.52568
5.36334
5.19917
5.03369
4.8674
4.70074
4.53416
4.36804
4.20276
4.03867
3.87607
3.71525
3.5565
3.40005
3.24612
3.09492
2.94662
2.80139
2.65937
2.52069
2.38545
2.25376
2.12568
2.0013
1.88065
1.76377
1.6507
1.54146
1.43605
1.33446
1.23669
1.14273
1.05253
0.966072
0.883314
0.80421
0.728708
0.656752
0.588284
0.523238
0.461548
0.403143
0.347949
0.295892
0.246894
0.200876
0.157758
0.117458
0.0798952
0.0449858
0.0126472
-0.0172034
-0.044649
-0.069772
-0.0926545
-0.113378
-0.132022
-0.148668
-0.163394
-0.176277
-0.187393
-0.196819
-0.204627
-0.210889
-0.215677
-0.21906
-0.221106
-0.221881
-0.22145
-0.219877
-0.217222
-0.213546
-0.208908
-0.203366
-0.196974
-0.189788
-0.18186
-0.173243
-0.163987
-0.154142
-0.143755
-0.132874
-0.121546
-0.109816
-0.0977274
-0.0853255
-0.072653
-0.0597525
-0.0466661
-0.0334356
-0.0201024
-0.00670764
0
6.68433
6.55966
6.42769
6.28925
6.1451
5.99599
5.84261
5.68563
5.52568
5.36334
5.19917
5.03369
4.8674
4.70074
4.53416
4.36804
4.20276
4.03867
3.87607
3.71525
3.5565
3.40005
3.24612
3.09492
2.94662
2.80139
2.65937
2.52069
2.38545
2.25376
2.12568
2.0013
1.88065
1.76377
1.6507
1.54146
1.43605
1.33446
1.23669
1.14273
1.05253
0.966072
0.883314
0.80421
0.728708
0.656752
0.588284
0.523238
0.461548
0.403143
0.347949
0.295892
0.246894
0.200876
0.157758
0.117458
0.0798952
0.0449858
0.0126472
-0.0172034
-0.044649
-0.069772
-0.0926545
-0.113378
-0.132022
-0.148668
-0.163394
-0.176277
-0.187393
-0.196819
-0.204627
-0.210889
-0.215677
-0.21906
-0.221106
-0.221881
-0.22145
-0.219877
-0.217222
-0.213546
-0.208908
-0.203366
-0.196974
-0.189788
-0.18186
-0.173243
-0.163987
-0.154142
-0.143755
-0.132874
-0.121546
-0.109816
-0.0977274
-0.0853255
-0.072653
-0.0597525
-0.0466661
-0.0334356
-0.0201024
-0.00670764
)
;
    }
    frontAndBack
    {
        type            empty;
    }
}


// ************************************************************************* //
