/*--------------------------------*- C++ -*----------------------------------*\
| =========                 |                                                 |
| \\      /  F ield         | OpenFOAM: The Open Source CFD Toolbox           |
|  \\    /   O peration     | Version:  2312                                  |
|   \\  /    A nd           | Website:  www.openfoam.com                      |
|    \\/     M anipulation  |                                                 |
\*---------------------------------------------------------------------------*/
FoamFile
{
    version     2.0;
    format      ascii;
    arch        "LSB;label=32;scalar=64";
    class       volScalarField;
    location    "0.6";
    object      wave;
}
// * * * * * * * * * * * * * * * * * * * * * * * * * * * * * * * * * * * * * //

dimensions      [0 0 0 0 0 0 0];

internalField   nonuniform List<scalar> 
100
(
0.628274
0.743306
0.839665
0.914929
0.967208
0.995189
0.998168
0.976072
0.929454
0.859486
0.767926
0.657074
0.529715
0.389048
0.238607
0.0821724
-0.0763269
-0.232909
-0.383639
-0.524732
-0.652642
-0.764157
-0.856474
-0.927274
-0.97478
-0.997796
-0.995746
-0.968681
-0.91728
-0.842835
-0.747216
-0.632826
-0.502537
-0.359624
-0.207676
-0.0505104
0.107924
0.263647
0.412746
0.551477
0.676353
0.784237
0.87242
0.938686
0.98137
0.999399
0.992322
0.960315
0.904183
0.825336
0.725754
0.60794
0.474854
0.329837
0.176535
0.0187976
-0.139412
-0.294119
-0.441438
-0.577666
-0.699382
-0.803528
-0.887488
-0.949152
-0.986971
-0.999996
-0.987898
-0.950982
-0.890175
-0.807005
-0.703562
-0.582443
-0.446692
-0.299719
-0.145217
0.0129341
0.17076
0.324296
0.469685
0.603274
0.721708
0.82201
0.901662
0.958663
0.991579
0.999585
0.982479
0.940691
0.875271
0.787862
0.68066
0.556359
0.41808
0.269299
0.113752
-0.0446529
-0.201936
-0.354146
-0.497459
-0.628274
)
;

boundaryField
{
    movingWall
    {
        type            calculated;
        value           uniform 0;
    }
    fixedWalls
    {
        type            calculated;
        value           uniform 0;
    }
    frontAndBack
    {
        type            empty;
    }
}


// ************************************************************************* //
