/*--------------------------------*- C++ -*----------------------------------*\
| =========                 |                                                 |
| \\      /  F ield         | OpenFOAM: The Open Source CFD Toolbox           |
|  \\    /   O peration     | Version:  2312                                  |
|   \\  /    A nd           | Website:  www.openfoam.com                      |
|    \\/     M anipulation  |                                                 |
\*---------------------------------------------------------------------------*/
FoamFile
{
    version     2.0;
    format      ascii;
    arch        "LSB;label=32;scalar=64";
    class       volScalarField;
    location    "2.45";
    object      wave;
}
// * * * * * * * * * * * * * * * * * * * * * * * * * * * * * * * * * * * * * //

dimensions      [0 0 0 0 0 0 0];

internalField   nonuniform List<scalar> 
100
(
0.574718
0.438198
0.29067
0.135839
-0.0224038
-0.180084
-0.33324
-0.478025
-0.6108
-0.728231
-0.827367
-0.905718
-0.961315
-0.992761
-0.999268
-0.98067
-0.937436
-0.870651
-0.781994
-0.673691
-0.548464
-0.409458
-0.260166
-0.104337
0.0541124
0.211203
0.362987
0.505652
0.635614
0.749608
0.844771
0.918711
0.96957
0.996072
0.997551
0.973968
0.925918
0.854606
0.761825
0.649905
0.521658
0.380306
0.229399
0.0727299
-0.0857666
-0.242108
-0.392368
-0.53277
-0.659788
-0.770231
-0.861324
-0.930778
-0.97685
-0.99838
-0.994829
-0.966286
-0.913467
-0.8377
-0.740889
-0.625464
-0.494327
-0.35077
-0.198402
-0.0410495
0.117334
0.272771
0.421354
0.559352
0.683298
0.790078
0.87701
0.941909
0.983145
0.999683
0.991106
0.95763
0.900097
0.819951
0.719206
0.600393
0.466497
0.320882
0.167205
0.00932767
-0.148784
-0.303158
-0.449916
-0.585371
-0.70612
-0.80913
-0.891813
-0.952091
-0.988451
-0.999979
-0.986385
-0.948011
-0.88582
-0.801376
-0.6968
-0.574718
)
;

boundaryField
{
    movingWall
    {
        type            calculated;
        value           uniform 0;
    }
    fixedWalls
    {
        type            calculated;
        value           uniform 0;
    }
    frontAndBack
    {
        type            empty;
    }
}


// ************************************************************************* //
