/*--------------------------------*- C++ -*----------------------------------*\
| =========                 |                                                 |
| \\      /  F ield         | OpenFOAM: The Open Source CFD Toolbox           |
|  \\    /   O peration     | Version:  2312                                  |
|   \\  /    A nd           | Website:  www.openfoam.com                      |
|    \\/     M anipulation  |                                                 |
\*---------------------------------------------------------------------------*/
FoamFile
{
    version     2.0;
    format      ascii;
    arch        "LSB;label=32;scalar=64";
    class       surfaceScalarField;
    location    "0.673";
    object      phi;
}
// * * * * * * * * * * * * * * * * * * * * * * * * * * * * * * * * * * * * * //

dimensions      [0 3 -1 0 0 0 0];

oriented        oriented;

internalField   nonuniform List<scalar> 
62015
(
46.8422
0.246573
-47.9306
45.7412
0.237139
44.6267
0.227661
43.4969
0.218145
42.3502
0.208601
41.1851
0.199037
39.9998
0.189462
38.793
0.179891
37.5637
0.170337
36.312
0.160819
35.04
0.151366
33.7529
0.142014
32.4612
0.132819
31.1828
0.123859
29.9435
0.115232
28.775
0.107052
27.7105
0.0994254
26.7776
0.0924266
25.9931
0.0860825
25.3617
0.0803676
24.8767
0.0752154
24.5245
0.0705357
24.2876
0.0662307
24.1481
0.0622077
24.0895
0.0583855
24.0973
0.0546957
24.1594
0.0510833
24.266
0.0475047
24.4091
0.0439259
24.5826
0.0403204
24.7813
0.0366677
25.0014
0.032952
25.2395
0.0291616
25.4933
0.025287
25.7606
0.0213217
26.0399
0.0172604
26.3298
0.0130997
26.6294
0.00883683
26.9378
0.00447052
27.2543
0
27.5784
-0.004575
27.9097
-0.00925363
28.2477
-0.0140358
28.5923
-0.0189194
28.9433
-0.0239035
29.3004
-0.0289858
29.6636
-0.0341645
30.0328
-0.039437
30.4079
-0.0448012
30.7889
-0.0502539
31.1758
-0.0557925
31.5685
-0.0614139
31.9672
-0.0671153
32.3717
-0.0728931
32.7822
-0.0787441
33.1987
-0.0846647
33.6212
-0.0906518
34.0498
-0.0967013
34.4845
-0.10281
34.9254
-0.108973
35.3726
-0.115188
35.826
-0.121451
36.2857
-0.127757
36.7519
-0.134102
37.2244
-0.140483
37.7035
-0.146895
38.189
-0.153334
38.6812
-0.159797
39.1799
-0.166278
39.6853
-0.172774
40.1973
-0.17928
40.7161
-0.185792
41.2413
-0.192307
41.7739
-0.198817
42.3115
-0.205327
42.8613
-0.211801
43.4012
-0.218339
43.9989
-0.22461
-0.231628
44.4473
44.6905
0.477565
-45.7423
43.6258
0.459139
42.5477
0.440628
41.4547
0.422046
40.3453
0.40341
39.218
0.38474
38.0716
0.366058
36.9049
0.347391
35.7177
0.328772
34.5112
0.310248
33.2887
0.291882
32.0579
0.273766
30.8317
0.256027
29.6306
0.238836
28.4813
0.222398
27.414
0.206924
26.4573
0.192589
25.6321
0.179493
24.9486
0.167637
24.4061
0.156936
23.9954
0.147241
23.7021
0.138374
23.5099
0.130152
23.4026
0.122408
23.3659
0.114999
23.3872
0.107805
23.4561
0.100729
23.5643
0.0936975
23.705
0.0866488
23.8727
0.079537
24.0631
0.072326
24.2729
0.064988
24.4991
0.0575017
24.7397
0.049851
24.9928
0.0420235
25.2571
0.0340101
25.5313
0.0258047
25.8146
0.0174026
26.1062
0.00880156
26.4056
0
26.7121
-0.009002
27.0255
-0.0182034
27.3455
-0.0276027
27.6717
-0.0371973
28.004
-0.0469837
28.3424
-0.056959
28.6865
-0.0671186
29.0365
-0.0774579
29.3922
-0.0879724
29.7536
-0.0986565
30.1207
-0.109505
30.4935
-0.120512
30.872
-0.131671
31.2562
-0.142976
31.6462
-0.154421
32.042
-0.165999
32.4436
-0.177703
32.851
-0.189526
33.2644
-0.201461
33.6838
-0.213501
34.1092
-0.225638
34.5406
-0.237865
34.9782
-0.250174
35.4219
-0.262557
35.8718
-0.275007
36.3279
-0.287515
36.7904
-0.300074
37.2591
-0.312676
37.7342
-0.325312
38.2157
-0.337973
38.7036
-0.350653
39.198
-0.363342
39.6986
-0.376034
40.2063
-0.388714
40.7188
-0.401393
41.2427
-0.414001
41.7579
-0.426725
42.3266
-0.438943
-0.452564
42.7586
42.5875
0.693117
-43.6048
41.5575
0.666125
40.5143
0.639011
39.4566
0.611798
38.3831
0.584513
37.2924
0.557187
36.1837
0.529856
35.0564
0.502567
33.9113
0.47538
32.7506
0.448377
31.5798
0.421673
30.4087
0.39543
29.2532
0.369868
28.1353
0.345257
27.0815
0.3219
26.1192
0.300071
25.2709
0.279966
24.551
0.261654
23.9635
0.245073
23.504
0.230054
23.1613
0.216362
22.9213
0.203742
22.7691
0.191944
22.6905
0.180746
22.6729
0.169958
22.7059
0.159425
22.7805
0.149023
22.8896
0.138652
23.0275
0.128234
23.1895
0.117709
23.3719
0.107028
23.5718
0.0961562
23.7867
0.085064
24.0148
0.0737302
24.2544
0.0621383
24.5045
0.0502767
24.7638
0.0381367
25.0317
0.0257123
25.3074
0.0130008
25.5904
0
25.8804
-0.0132895
26.1769
-0.0268661
26.4797
-0.0407273
26.7885
-0.0548693
27.1033
-0.0692876
27.4237
-0.0839766
27.7499
-0.0989307
28.0817
-0.114143
28.419
-0.129606
28.7618
-0.145313
29.1102
-0.161256
29.464
-0.177426
29.8234
-0.193813
30.1884
-0.21041
30.5589
-0.227207
30.935
-0.244194
31.3168
-0.261361
31.7042
-0.278698
32.0974
-0.296194
32.4963
-0.31384
32.901
-0.331623
33.3116
-0.349534
33.7281
-0.367561
34.1506
-0.385693
34.579
-0.403918
35.0134
-0.422225
35.4539
-0.440603
35.9004
-0.459038
36.3531
-0.477521
36.8119
-0.496038
37.2769
-0.514578
37.7481
-0.533128
38.2253
-0.551679
38.7093
-0.570209
39.1979
-0.588734
39.6974
-0.607154
40.1889
-0.625734
40.7304
-0.643593
-0.663435
41.1451
40.5532
0.893701
-41.5375
39.5564
0.858551
38.5467
0.823248
37.5228
0.787824
36.4838
0.752317
35.4286
0.716773
34.3567
0.681248
33.2685
0.645812
32.1656
0.610563
31.052
0.575632
29.9352
0.541204
28.8276
0.507529
27.7472
0.474927
26.7169
0.443767
25.7614
0.414417
24.9036
0.38717
24.1602
0.362187
23.5392
0.339466
23.0399
0.318852
22.655
0.30009
22.3727
0.282865
22.1796
0.266859
22.0623
0.251773
22.0085
0.237347
22.0075
0.223361
22.0503
0.209636
22.1295
0.196028
22.239
0.182423
22.3739
0.16873
22.5303
0.154878
22.705
0.140813
22.8955
0.126491
23.0997
0.11188
23.316
0.0969528
23.543
0.0816911
23.7795
0.0660807
24.0249
0.0501116
24.2782
0.0337773
24.539
0.0170739
24.8067
0
25.081
-0.0174438
25.3616
-0.0352552
25.6482
-0.0534308
25.9406
-0.0719652
26.2387
-0.0908527
26.5424
-0.110086
26.8515
-0.129658
27.1661
-0.14956
27.486
-0.169782
27.8113
-0.190314
28.1419
-0.211147
28.4778
-0.232269
28.8191
-0.253668
29.1658
-0.275334
29.5179
-0.297254
29.8754
-0.319415
30.2383
-0.341805
30.6067
-0.36441
30.9807
-0.387217
31.3603
-0.410213
31.7454
-0.433383
32.1362
-0.456712
32.5328
-0.480188
32.935
-0.503795
33.343
-0.527518
33.7568
-0.551343
34.1764
-0.575254
34.6018
-0.599237
35.0332
-0.623275
35.4705
-0.647354
35.9136
-0.671458
36.3628
-0.695571
36.8178
-0.719679
37.2792
-0.743758
37.7452
-0.767825
38.2214
-0.791753
38.6904
-0.815878
39.2061
-0.839084
-0.864794
39.6037
38.5959
1.07989
-39.5484
37.631
1.03698
36.6535
0.99389
35.6625
0.950664
34.657
0.907355
33.6366
0.864028
32.6014
0.820763
31.5525
0.777668
30.4929
0.734887
29.4285
0.692618
28.369
0.651132
27.329
0.61078
26.3279
0.571981
25.3878
0.535177
24.5305
0.500756
23.774
0.468979
23.1289
0.439926
22.598
0.413495
22.1774
0.389433
21.8578
0.367399
21.6278
0.347019
21.4748
0.327925
21.3871
0.309788
21.3542
0.292322
21.3669
0.27529
21.4176
0.258499
21.5
0.241793
21.6091
0.225048
21.7407
0.208168
21.8915
0.191074
22.0588
0.173705
22.2403
0.156016
22.4344
0.13797
22.6395
0.119537
22.8545
0.100698
23.0785
0.0814358
23.3106
0.0617406
23.5503
0.0416051
23.7969
0.0210252
24.0502
0
24.3098
-0.0214696
24.5753
-0.0433806
24.8467
-0.0657282
25.1236
-0.0885063
25.406
-0.111708
25.6938
-0.135323
25.9868
-0.159344
26.2851
-0.183759
26.5886
-0.208557
26.8972
-0.233727
27.2111
-0.259255
27.53
-0.285129
27.8542
-0.311334
28.1836
-0.337857
28.5182
-0.364682
28.858
-0.391794
29.2031
-0.419178
29.5535
-0.446818
29.9093
-0.474698
30.2705
-0.5028
30.637
-0.531109
31.009
-0.559606
31.3865
-0.588275
31.7696
-0.617097
32.1582
-0.646055
32.5523
-0.67513
32.9521
-0.704305
33.3575
-0.733561
33.7686
-0.76288
34.1854
-0.792242
34.6078
-0.821629
35.036
-0.851021
35.4698
-0.880402
35.9098
-0.909742
36.3541
-0.939062
36.8083
-0.96821
37.2558
-0.997584
37.7472
-1.02586
-1.05711
38.1279
36.7174
1.25228
-37.6393
35.7834
1.20199
34.8374
1.1515
33.8784
1.10088
32.906
1.05018
31.9202
0.999512
30.9219
0.948977
29.9133
0.898732
28.8989
0.848986
27.8866
0.80002
26.8881
0.752205
25.9197
0.705993
25.0008
0.661881
24.1518
0.62034
23.3904
0.58173
22.7294
0.546229
22.1743
0.513807
21.724
0.484251
21.3721
0.457215
21.1088
0.43229
20.9231
0.409054
20.804
0.387112
20.741
0.366115
20.7252
0.345764
20.7489
0.325815
20.8057
0.306067
20.8902
0.286359
20.9982
0.266563
21.1262
0.246576
21.2714
0.226319
21.4313
0.205726
21.6043
0.18475
21.7886
0.163351
21.9831
0.141499
22.1868
0.119172
22.3988
0.0963536
22.6185
0.0730328
22.8453
0.0492024
23.0787
0.0248583
23.3184
0
23.564
-0.0253709
23.8154
-0.0512505
24.0723
-0.0776331
24.3346
-0.104511
24.6022
-0.131876
24.8749
-0.159718
25.1528
-0.188025
25.4357
-0.216785
25.7236
-0.245986
26.0165
-0.275612
26.3145
-0.30565
26.6174
-0.336084
26.9253
-0.366897
27.2383
-0.398074
27.5563
-0.429596
27.8794
-0.461447
28.2076
-0.493608
28.5409
-0.526061
28.8794
-0.558786
29.2231
-0.591764
29.572
-0.624976
29.9262
-0.658401
30.2857
-0.692019
30.6504
-0.72581
31.0206
-0.759752
31.3961
-0.793825
31.777
-0.828007
32.1634
-0.862277
32.5552
-0.896613
32.9524
-0.930993
33.3552
-0.965396
33.7634
-0.999798
34.177
-1.03418
34.5966
-1.06851
35.0204
-1.10281
35.4535
-1.1369
35.8804
-1.17125
36.3488
-1.20432
-1.2408
36.7132
34.9168
1.41143
-35.809
34.013
1.35413
33.0976
1.29663
32.1703
1.23901
31.2308
1.18136
30.2799
1.12379
29.3192
1.06648
28.3525
1.00963
27.3859
0.95354
26.429
0.898582
25.4954
0.845229
24.6018
0.794018
23.7668
0.745488
23.0076
0.700087
22.3378
0.658095
21.7651
0.619575
21.291
0.584372
20.9114
0.552166
20.6188
0.522535
20.4034
0.495017
20.2552
0.469164
20.1641
0.444564
20.1215
0.420861
20.1197
0.397755
20.152
0.374998
20.2132
0.352388
20.2988
0.329765
20.4051
0.306997
20.5292
0.283982
20.6687
0.260637
20.8215
0.236897
20.9861
0.212711
21.1612
0.18804
21.3457
0.162852
21.5386
0.137126
21.7393
0.110845
21.9472
0.0839973
22.1618
0.0565754
22.3827
0.0285765
22.6095
0
22.842
-0.0291515
23.08
-0.058873
23.3234
-0.089158
23.5719
-0.119998
23.8254
-0.151382
24.084
-0.1833
24.3475
-0.215737
24.6158
-0.248681
24.889
-0.282116
25.1671
-0.316027
25.45
-0.350396
25.7377
-0.385207
26.0303
-0.42044
26.3277
-0.456077
26.63
-0.492099
26.9372
-0.528486
27.2494
-0.565216
27.5665
-0.602269
27.8886
-0.639624
28.2157
-0.677257
28.5478
-0.715148
28.885
-0.753273
29.2274
-0.791609
29.5748
-0.830134
29.9274
-0.868822
30.2852
-0.907652
30.6482
-0.946597
31.0164
-0.985634
31.3899
-1.02474
31.7686
-1.06389
32.1526
-1.10305
32.5418
-1.14221
32.9363
-1.18134
33.3364
-1.2204
33.7406
-1.25941
34.1536
-1.29819
34.561
-1.33724
35.0074
-1.37487
-1.41627
35.3562
33.192
1.55787
-34.0551
32.3176
1.49394
31.4325
1.42982
30.5366
1.36561
29.6302
1.30143
28.7148
1.23745
27.7933
1.17389
26.8707
1.11104
25.9548
1.04928
25.0569
0.989092
24.1914
0.931044
23.3749
0.875719
22.6236
0.823643
21.9513
0.775195
21.3671
0.730533
20.8746
0.689585
20.4721
0.652078
20.154
0.617599
19.9121
0.585666
19.7373
0.55579
19.6202
0.527504
19.5525
0.500398
19.5266
0.474116
19.5358
0.448362
19.5749
0.422892
19.6391
0.397506
19.7248
0.372046
19.8289
0.346382
19.9489
0.320411
20.0827
0.29405
20.2286
0.267236
20.3852
0.239917
20.5514
0.212053
20.7263
0.183613
20.909
0.154575
21.0991
0.124922
21.2958
0.0946428
21.4989
0.0637307
21.7079
0.0321829
21.9226
0
22.1428
-0.0328149
22.3682
-0.066256
22.5986
-0.100315
22.8341
-0.134983
23.0744
-0.170248
23.3196
-0.206097
23.5695
-0.242515
23.8241
-0.279488
24.0834
-0.316998
24.3473
-0.355027
24.616
-0.393557
24.8893
-0.432569
25.1673
-0.472043
25.45
-0.511956
25.7374
-0.552288
26.0296
-0.593016
26.3265
-0.634118
26.6282
-0.67557
26.9348
-0.717348
27.2461
-0.759428
27.5624
-0.801784
27.8835
-0.844393
28.2096
-0.887227
28.5405
-0.930262
28.8765
-0.973471
29.2174
-1.01683
29.5634
-1.0603
29.9144
-1.10387
30.2704
-1.14751
30.6314
-1.19119
30.9975
-1.23488
31.3688
-1.27855
31.7449
-1.32218
32.1265
-1.36572
32.5121
-1.40921
32.9061
-1.45242
33.2949
-1.49592
33.7204
-1.53786
-1.58391
34.0541
31.5404
1.69213
-32.3751
30.6951
1.62194
29.8401
1.55159
28.9756
1.48121
28.1029
1.41097
27.2242
1.34109
26.3437
1.27185
25.4678
1.20365
24.6059
1.13697
23.7703
1.07239
22.9755
1.01051
22.2366
0.951945
21.5672
0.897143
20.9771
0.846367
20.4715
0.799635
20.0508
0.75674
19.7111
0.717302
19.4459
0.680839
19.247
0.646833
19.1062
0.614776
19.0151
0.584206
18.9666
0.554715
18.9541
0.525958
18.9722
0.497647
19.0163
0.469545
19.0824
0.44146
19.1676
0.413235
19.269
0.384744
19.3847
0.355887
19.5128
0.326582
19.6519
0.296766
19.8009
0.266388
19.9586
0.235408
20.1244
0.203797
20.2975
0.171531
20.4774
0.138595
20.6636
0.104978
20.8559
0.0706744
21.0537
0.0356812
21.257
0
21.4654
-0.036365
21.6789
-0.0734071
21.8972
-0.111117
22.1203
-0.149485
22.3482
-0.188496
22.5806
-0.228137
22.8177
-0.268393
23.0593
-0.309245
23.3054
-0.350676
23.556
-0.392666
23.8112
-0.435195
24.0709
-0.478241
24.3351
-0.521782
24.6039
-0.565795
24.8772
-0.610257
25.1551
-0.655143
25.4376
-0.700427
25.7247
-0.746086
26.0164
-0.792091
26.3129
-0.838417
26.614
-0.885037
26.9198
-0.931923
27.2304
-0.979046
27.5458
-1.02638
27.8659
-1.07389
28.1908
-1.12156
28.5206
-1.16935
28.8551
-1.21723
29.1946
-1.26518
29.5388
-1.31315
29.888
-1.36114
30.242
-1.40909
30.6008
-1.45699
30.9648
-1.50478
31.3326
-1.55251
31.7085
-1.59993
32.0795
-1.64765
32.4852
-1.69367
-1.74409
32.8046
29.9597
1.81473
-30.7665
29.1432
1.73866
28.3183
1.66249
27.4858
1.58639
26.6477
1.51058
25.8074
1.43535
24.9701
1.36108
24.1439
1.28826
23.339
1.21746
22.5684
1.14933
21.8456
1.0845
21.1835
1.02351
20.5924
0.966714
20.0787
0.914221
19.6442
0.865905
19.2868
0.821437
19.0015
0.780353
18.7814
0.742125
18.6189
0.706214
18.5065
0.672115
18.437
0.639373
18.4042
0.607595
18.4026
0.57645
18.4276
0.545661
18.4753
0.515001
18.5424
0.484286
18.6263
0.453363
18.7249
0.422113
18.8361
0.390436
18.9587
0.358255
19.0912
0.325507
19.2328
0.292142
19.3824
0.258122
19.5395
0.223418
19.7035
0.188008
19.8738
0.151876
20.0501
0.115013
20.232
0.0774127
20.4193
0.0390744
20.6117
0
20.8091
-0.0398054
21.0113
-0.0803341
21.2182
-0.121576
21.4297
-0.163518
21.6457
-0.206148
21.8662
-0.249448
22.0911
-0.293403
22.3204
-0.337992
22.5541
-0.383197
22.7921
-0.428996
23.0345
-0.475367
23.2813
-0.522287
23.5324
-0.569732
23.7879
-0.617677
24.0479
-0.666096
24.3122
-0.714964
24.581
-0.764252
24.8543
-0.813934
25.1321
-0.86398
25.4143
-0.914363
25.7011
-0.965053
25.9924
-1.01602
26.2883
-1.06723
26.5888
-1.11866
26.8939
-1.17028
27.2036
-1.22205
27.5179
-1.27394
27.8369
-1.32592
28.1606
-1.37796
28.4889
-1.43003
28.8219
-1.48209
29.1596
-1.53411
29.5018
-1.58606
29.8491
-1.63788
30.2001
-1.68962
30.5586
-1.74103
30.9128
-1.79273
31.2996
-1.84263
-1.89717
31.6054
28.4476
1.92618
-29.2267
27.66
1.84463
26.8656
1.76308
26.0659
1.68173
25.2638
1.6009
24.4638
1.52094
23.6725
1.44234
22.8988
1.36568
22.1538
1.29161
21.4498
1.2208
20.7987
1.15384
20.211
1.09117
19.6935
1.033
19.2494
0.979286
18.8781
0.929762
18.5761
0.884001
18.3375
0.84148
18.1558
0.801645
18.0239
0.763956
17.9351
0.727918
17.8834
0.693095
17.8634
0.65911
17.8705
0.625649
17.9007
0.592451
17.9509
0.559298
18.0183
0.526016
18.1005
0.492459
18.1959
0.458512
18.3027
0.42408
18.4198
0.389089
18.546
0.353477
18.6804
0.317196
18.8224
0.280211
18.9712
0.242491
19.1265
0.204018
19.2878
0.164775
19.4546
0.124755
19.6268
0.0839517
19.8042
0.0423657
19.9864
0
20.1733
-0.0431395
20.3649
-0.0870441
20.561
-0.131702
20.7614
-0.177101
20.9663
-0.223224
21.1754
-0.270056
21.3888
-0.317577
21.6065
-0.365767
21.8284
-0.414604
22.0545
-0.464067
22.2848
-0.514132
22.5193
-0.564773
22.7581
-0.615964
23.0011
-0.66768
23.2483
-0.719893
23.4999
-0.772574
23.7557
-0.825695
24.0158
-0.879226
24.2803
-0.933136
24.5491
-0.987395
24.8222
-1.04197
25.0998
-1.09683
25.3817
-1.15195
25.6681
-1.20729
25.9589
-1.26281
26.2541
-1.31848
26.5538
-1.37428
26.858
-1.43016
27.1667
-1.4861
27.4798
-1.54205
27.7974
-1.59798
28.1196
-1.65385
28.4461
-1.70965
28.7774
-1.7653
29.1123
-1.82084
29.4544
-1.87603
29.7925
-1.9315
30.1614
-1.98507
-2.04349
30.4541
27.0025
2.02704
-27.7539
26.2439
1.94042
25.4806
1.85394
24.715
1.76789
23.9507
1.68263
23.1934
1.59863
22.4507
1.51647
21.7323
1.4368
21.049
1.36031
20.4119
1.28765
19.831
1.21931
19.3137
1.1556
18.864
1.09656
18.4825
1.042
18.1669
0.991546
17.9127
0.944691
17.7141
0.90088
17.5647
0.859551
17.4583
0.820175
17.3892
0.782278
17.3521
0.745443
17.3425
0.709317
17.3564
0.673604
17.3906
0.638056
17.4424
0.60247
17.5093
0.56668
17.5896
0.53055
17.6816
0.493967
17.784
0.456843
17.8957
0.419105
18.0157
0.380696
18.1434
0.341569
18.278
0.30169
18.419
0.261032
18.5661
0.219574
18.7187
0.177304
18.8767
0.134213
19.0398
0.0902973
19.2076
0.0455585
19.3802
0
19.5573
-0.0463709
19.7388
-0.0935444
19.9247
-0.141508
20.1148
-0.190247
20.309
-0.239746
20.5075
-0.289985
20.71
-0.340945
20.9167
-0.392604
21.1274
-0.44494
21.3422
-0.497928
21.561
-0.551543
21.784
-0.605758
22.011
-0.660547
22.2421
-0.715881
22.4774
-0.771731
22.7167
-0.828066
22.9602
-0.884856
23.2079
-0.94207
23.4597
-0.999675
23.7157
-1.05764
23.976
-1.11593
24.2404
-1.17451
24.5091
-1.23334
24.7821
-1.2924
25.0593
-1.35165
25.3408
-1.41105
25.6266
-1.47056
25.9167
-1.53015
26.2111
-1.58979
26.5098
-1.64943
26.8128
-1.70904
27.1202
-1.76858
27.4317
-1.82801
27.7479
-1.88729
28.0675
-1.94644
28.394
-2.0052
28.7167
-2.06424
29.0685
-2.12129
-2.18337
29.3488
25.6226
2.11785
-26.3462
24.8937
2.02663
24.1627
1.93574
23.4325
1.84556
22.7081
1.75654
21.996
1.66925
21.3045
1.58434
20.6433
1.50251
20.0225
1.42444
19.4515
1.35068
18.9377
1.28162
18.4858
1.21738
18.0976
1.15786
17.7716
1.10273
17.5045
1.05153
17.2913
1.00371
17.1265
0.958711
17.0044
0.915964
16.9194
0.874967
16.8665
0.835269
16.8413
0.796479
16.84
0.758267
16.8593
0.720355
16.8963
0.682513
16.9489
0.64455
17.015
0.606308
17.093
0.56766
17.1816
0.528501
17.2796
0.488745
17.386
0.448324
17.5001
0.407183
17.6213
0.365278
17.7489
0.322577
17.8825
0.279053
18.0218
0.234689
18.1663
0.189471
18.3159
0.143394
18.4702
0.0964552
18.6292
0.0486553
18.7927
0
18.9605
-0.0495026
19.1325
-0.0998417
19.3086
-0.151003
19.4889
-0.202972
19.6732
-0.255731
19.8615
-0.309259
20.0538
-0.363536
20.25
-0.418539
20.4502
-0.474243
20.6543
-0.530623
20.8623
-0.587652
21.0743
-0.645303
21.2902
-0.703546
21.5101
-0.762351
21.7339
-0.821689
21.9617
-0.881525
22.1935
-0.94183
22.4293
-1.00257
22.6692
-1.06371
22.9131
-1.12521
23.161
-1.18705
23.4131
-1.24918
23.6692
-1.31156
23.9294
-1.37417
24.1937
-1.43697
24.4621
-1.49991
24.7347
-1.56296
25.0114
-1.62608
25.2922
-1.68924
25.5772
-1.75239
25.8663
-1.81549
26.1596
-1.8785
26.4569
-1.9414
26.7587
-2.00412
27.0637
-2.06668
27.3753
-2.12883
27.6835
-2.19125
28.019
-2.25159
-2.31711
28.2875
24.3067
2.19922
-25.002
23.6085
2.10389
22.911
2.00917
22.2183
1.91551
21.5361
1.82346
20.8716
1.73368
20.2333
1.64686
19.6304
1.5637
19.0715
1.48481
18.5642
1.41063
18.1134
1.34137
17.7214
1.27699
17.388
1.21726
17.1106
1.16175
16.8853
1.10993
16.7072
1.06123
16.571
1.0151
16.4717
0.970982
16.4044
0.928409
16.3649
0.886955
16.3494
0.846256
16.3548
0.806004
16.3781
0.765942
16.4171
0.725856
16.4699
0.685566
16.5347
0.644926
16.6103
0.603815
16.6953
0.562136
16.789
0.519807
16.8904
0.476765
16.9988
0.432956
17.1137
0.38834
17.2347
0.342885
17.3613
0.296569
17.4931
0.249374
17.63
0.201289
17.7716
0.152308
17.9178
0.102431
18.0683
0.0516594
18.2232
0
18.3821
-0.052538
18.5452
-0.105943
18.7122
-0.160199
18.8832
-0.215291
19.0581
-0.271199
19.2368
-0.327903
19.4193
-0.385379
19.6057
-0.443604
19.7959
-0.502553
19.9898
-0.562198
20.1876
-0.622511
20.3892
-0.683463
20.5945
-0.745023
20.8037
-0.80716
21.0168
-0.869842
21.2336
-0.933035
21.4544
-0.996705
21.679
-1.06082
21.9075
-1.12534
22.1398
-1.19023
22.3761
-1.25545
22.6163
-1.32097
22.8605
-1.38675
23.1086
-1.45274
23.3606
-1.51892
23.6167
-1.58524
23.8766
-1.65166
24.1406
-1.71814
24.4086
-1.78464
24.6805
-1.85112
24.9564
-1.91754
25.2363
-1.98386
25.5201
-2.05004
25.8081
-2.11601
26.0993
-2.18182
26.3967
-2.24717
26.691
-2.31279
27.011
-2.37626
-2.44501
27.2682
23.054
2.2718
-23.72
22.3876
2.17292
21.7254
2.075
21.0723
1.97858
20.4345
1.8843
19.8195
1.79285
19.2356
1.70495
18.6909
1.62123
18.1923
1.54219
17.7452
1.46812
17.3524
1.39906
17.0142
1.33483
16.7292
1.27507
16.4941
1.21928
16.3046
1.1669
16.1562
1.11737
16.0441
1.07013
15.9638
1.02468
15.9112
0.980564
15.8827
0.937388
15.8751
0.894817
15.8856
0.852567
15.912
0.810398
15.9523
0.768113
16.0047
0.725545
16.068
0.682558
16.1409
0.639038
16.2225
0.594894
16.3119
0.55005
16.4083
0.504446
16.5113
0.458032
16.6203
0.41077
16.735
0.362631
16.8549
0.313593
16.9797
0.263641
17.1093
0.212765
17.2434
0.160962
17.3818
0.10823
17.5244
0.0545734
17.6711
0
17.8218
-0.0554801
17.9763
-0.111854
18.1348
-0.169105
18.2969
-0.227216
18.4629
-0.286168
18.6325
-0.345937
18.8059
-0.4065
18.9829
-0.467832
19.1636
-0.529906
19.348
-0.592693
19.5361
-0.656165
19.7278
-0.72029
19.9232
-0.785037
20.1222
-0.850373
20.325
-0.916264
20.5315
-0.982674
20.7417
-1.04957
20.9557
-1.11691
21.1734
-1.18467
21.3948
-1.25279
21.62
-1.32125
21.849
-1.39001
22.0818
-1.45902
22.3184
-1.52825
22.5588
-1.59765
22.803
-1.66719
23.051
-1.73681
23.3029
-1.80649
23.5586
-1.87618
23.8181
-1.94582
24.0814
-2.0154
24.3486
-2.08485
24.6195
-2.15414
24.8944
-2.22321
25.1724
-2.29208
25.4563
-2.36048
25.7375
-2.42912
26.0428
-2.49554
-2.56735
26.2891
21.8637
2.3363
-22.4995
21.2308
2.2345
20.6057
2.13408
19.9942
2.03567
19.4027
1.93996
18.8386
1.84767
18.3093
1.75946
17.8216
1.67587
17.3804
1.59724
16.9892
1.52369
16.6489
1.45511
16.3586
1.3912
16.1158
1.3315
15.917
1.27549
15.7581
1.22258
15.6347
1.17223
15.5428
1.1239
15.4783
1.07713
15.4379
1.03148
15.4183
0.986613
15.417
0.942201
15.4316
0.897989
15.4602
0.853754
15.5011
0.809314
15.5529
0.764514
15.6144
0.719228
15.6846
0.673351
15.7626
0.626796
15.8478
0.579494
15.9396
0.531386
16.0373
0.482428
16.1407
0.432585
16.2493
0.381828
16.3629
0.330138
16.4811
0.277502
16.6038
0.223911
16.7307
0.169362
16.8618
0.113857
16.997
0.0574001
17.136
-1.1625e-07
17.2788
-0.0583316
17.4253
-0.117581
17.5756
-0.177731
17.7295
-0.238762
17.887
-0.300654
18.0481
-0.363383
18.2127
-0.426925
18.3809
-0.491252
18.5527
-0.556337
18.728
-0.62215
18.9068
-0.688661
19.0892
-0.755838
19.2751
-0.823646
19.4646
-0.892053
19.6577
-0.961023
19.8543
-1.03052
20.0545
-1.1005
20.2584
-1.17094
20.4658
-1.24179
20.6769
-1.31301
20.8916
-1.38457
21.1099
-1.45642
21.3319
-1.52852
21.5576
-1.60083
21.7869
-1.6733
22.0199
-1.7459
22.2565
-1.81859
22.4969
-1.8913
22.7409
-1.96402
22.9886
-2.03668
23.2399
-2.10925
23.495
-2.18167
23.7536
-2.25392
24.0161
-2.32592
24.2816
-2.3977
24.5527
-2.46898
24.8212
-2.54048
25.1125
-2.60971
-2.68438
25.3486
20.7356
2.3935
-21.3397
20.1377
2.28945
19.5518
2.1873
18.9836
2.08771
18.4398
1.99139
17.927
1.89904
17.4515
1.8112
17.0184
1.7283
16.6309
1.65049
16.2906
1.57776
15.9972
1.50984
15.7489
1.44633
15.5426
1.38674
15.3749
1.3305
15.2419
1.27706
15.1396
1.22587
15.0645
1.17646
15.0132
1.12837
14.9828
1.08121
14.9705
1.03467
14.9742
0.988444
14.9919
0.942301
15.022
0.896038
15.063
0.849484
15.1138
0.802497
15.1734
0.75496
15.2408
0.706775
15.3154
0.657863
15.3965
0.608156
15.4837
0.557604
15.5765
0.506163
15.6745
0.4538
15.7774
0.400491
15.8849
0.346217
15.9968
0.290967
16.113
0.234734
16.2333
0.177517
16.3575
0.119318
16.4855
0.060142
16.6172
0
16.7526
-0.061096
16.8916
-0.12313
17.0341
-0.186085
17.1802
-0.249941
17.3297
-0.314675
17.4827
-0.380262
17.6391
-0.446678
17.7989
-0.513894
17.9622
-0.581881
18.1289
-0.650608
18.299
-0.720043
18.4725
-0.790154
18.6495
-0.860905
18.8299
-0.932261
19.0137
-1.00418
19.201
-1.07664
19.3918
-1.14959
19.586
-1.22299
19.7837
-1.2968
19.9849
-1.37098
20.1896
-1.4455
20.3979
-1.5203
20.6096
-1.59535
20.8249
-1.6706
21.0436
-1.74601
21.266
-1.82153
21.4918
-1.89712
21.7212
-1.97274
21.9541
-2.04833
22.1906
-2.12386
22.4306
-2.19927
22.6741
-2.27452
22.921
-2.34958
23.1717
-2.42436
23.4252
-2.4989
23.6841
-2.5729
23.9407
-2.64711
24.2186
-2.719
-2.79637
24.4448
19.6693
2.44424
-20.2401
19.1083
2.33871
18.5632
2.23561
18.0398
2.13564
17.5442
2.0395
17.0822
1.94776
16.6585
1.86088
16.2766
1.77909
15.9384
1.70241
15.6439
1.63065
15.3919
1.56347
15.1801
1.50039
15.0052
1.44089
14.864
1.3844
14.7528
1.3304
14.6682
1.27837
14.6072
1.22785
14.5668
1.17844
14.5445
1.12979
14.5381
1.08159
14.5458
1.03357
14.5658
0.985532
14.5968
0.937276
14.6376
0.888647
14.6871
0.839517
14.7446
0.789775
14.8092
0.739331
14.8804
0.688113
14.9576
0.636057
15.0404
0.583116
15.1284
0.529251
15.2213
0.474431
15.3187
0.418633
15.4206
0.361842
15.5266
0.304048
15.6366
0.245245
15.7505
0.185433
15.8681
0.124617
15.9894
0.0628018
16.1143
0
16.2427
-0.0637752
16.3745
-0.128508
16.5098
-0.194178
16.6484
-0.260765
16.7904
-0.328245
16.9357
-0.396594
17.0843
-0.465784
17.2362
-0.535785
17.3915
-0.606569
17.55
-0.678102
17.7118
-0.750353
17.877
-0.823285
18.0454
-0.896864
18.2172
-0.971053
18.3923
-1.04581
18.5707
-1.12111
18.7525
-1.19689
18.9376
-1.27313
19.1261
-1.34978
19.3179
-1.4268
19.5132
-1.50415
19.7118
-1.58177
19.9138
-1.65964
20.1191
-1.73769
20.3279
-1.8159
20.5401
-1.89421
20.7557
-1.97257
20.9747
-2.05094
21.197
-2.12928
21.4228
-2.20753
21.6519
-2.28564
21.8845
-2.36358
22.1203
-2.44129
22.3597
-2.51871
22.6019
-2.59586
22.8491
-2.67246
23.0943
-2.74922
23.3596
-2.82363
-2.90353
23.5764
18.6648
2.48944
-19.2007
18.1423
2.38321
17.6393
2.27996
17.1613
2.18039
16.7135
2.08511
16.3006
1.99457
15.9259
1.90908
15.5914
1.8287
15.2977
1.75331
15.0439
1.68261
14.828
1.61618
14.6476
1.5535
14.4996
1.49404
14.3807
1.43726
14.2879
1.38266
14.2182
1.32975
14.1688
1.27811
14.1374
1.22739
14.1218
1.17724
14.1202
1.1274
14.1309
1.07762
14.1525
1.02771
14.184
0.977492
14.2242
0.926828
14.2723
0.875595
14.3276
0.823694
14.3895
0.77104
14.4573
0.717565
14.5307
0.663214
14.6093
0.60794
14.6928
0.551709
14.7808
0.494492
14.8731
0.436269
14.9695
0.377026
15.0699
0.316755
15.1741
0.255452
15.282
0.193118
15.3935
0.129759
15.5084
0.0653819
15.6268
0
15.7485
-0.0663725
15.8736
-0.133718
16.002
-0.202017
16.1336
-0.271246
16.2684
-0.341381
16.4064
-0.412397
16.5477
-0.484264
16.6921
-0.556953
16.8397
-0.630433
16.9906
-0.70467
17.1446
-0.779629
17.3018
-0.855277
17.4621
-0.931574
17.6257
-1.00848
17.7925
-1.08597
17.9625
-1.16398
18.1358
-1.24249
18.3123
-1.32145
18.492
-1.40082
18.6749
-1.48055
18.8611
-1.5606
19.0506
-1.64093
19.2433
-1.72148
19.4393
-1.80222
19.6386
-1.88309
19.8411
-1.96405
20.0469
-2.04506
20.256
-2.12606
20.4683
-2.207
20.6839
-2.28784
20.9028
-2.36853
21.1249
-2.44901
21.3501
-2.52925
21.5788
-2.60917
21.8102
-2.6888
22.0463
-2.76784
22.2806
-2.84703
22.5339
-2.92383
-3.00612
22.7417
17.7216
2.53006
-18.2211
17.2388
2.42391
16.7786
2.32129
16.3458
2.22281
15.9446
2.12896
15.5784
2.04007
15.2491
1.95627
14.9577
1.87747
14.7036
1.80345
14.4854
1.73381
14.3009
1.66808
14.1475
1.60574
14.0222
1.54626
13.9223
1.48913
13.8449
1.43387
13.7876
1.38005
13.7479
1.32729
13.7239
1.27523
13.7137
1.22359
13.7158
1.17212
13.7288
1.12061
13.7516
1.06885
13.7831
1.01671
13.8225
0.964048
13.8691
0.910754
13.9222
0.856737
13.9812
0.801921
14.0459
0.74624
14.1156
0.689645
14.1902
0.632093
14.2693
0.573553
14.3526
0.513998
14.4401
0.453411
14.5314
0.39178
14.6265
0.329097
14.7251
0.265363
14.8273
0.200578
14.933
0.134748
15.0419
0.0678848
15.1542
0
15.2697
-0.0688902
15.3883
-0.138767
15.5102
-0.20961
15.6351
-0.281396
15.7632
-0.354098
15.8944
-0.42769
16.0286
-0.502142
16.166
-0.577424
16.3064
-0.653502
16.4499
-0.730343
16.5965
-0.807912
16.7461
-0.886171
16.8989
-0.965083
17.0547
-1.04461
17.2136
-1.12471
17.3756
-1.20534
17.5408
-1.28646
17.709
-1.36802
17.8804
-1.44999
18.0549
-1.53232
18.2326
-1.61496
18.4134
-1.69786
18.5973
-1.78099
18.7844
-1.86428
18.9746
-1.9477
19.1679
-2.0312
19.3644
-2.11472
19.5641
-2.19822
19.7669
-2.28165
19.9728
-2.36495
20.1818
-2.44808
20.394
-2.53099
20.6092
-2.61362
20.8277
-2.69592
21.0487
-2.77789
21.2743
-2.85926
21.4983
-2.94074
21.74
-3.01979
-3.10432
21.9393
16.8391
2.56708
-17.3011
16.3967
2.46177
15.9793
2.36046
15.5905
2.26364
15.2337
2.17168
14.911
2.08474
14.6232
2.0028
14.3703
1.92566
14.1512
1.85299
13.964
1.78435
13.8065
1.71924
13.676
1.65715
13.5701
1.59757
13.4861
1.54003
13.4216
1.48407
13.3746
1.42931
13.3429
1.37539
13.325
1.322
13.3192
1.26888
13.3242
1.2158
13.3389
1.16256
13.3624
1.10899
13.3937
1.05495
13.4321
1.00033
13.477
0.945015
13.5278
0.888926
13.5842
0.831992
13.6457
0.774155
13.7119
0.715368
13.7826
0.655591
13.8575
0.594797
13.9365
0.532963
14.0193
0.470072
14.1058
0.406115
14.1958
0.341087
14.2893
0.274987
14.3861
0.207819
14.4862
0.13959
14.5895
0.0703129
14.696
-1.16151e-07
14.8055
-0.071331
14.9182
-0.143661
15.0338
-0.216967
15.1525
-0.291225
15.2742
-0.366409
15.3989
-0.44249
15.5265
-0.519438
15.6571
-0.597221
15.7907
-0.675806
15.9273
-0.755157
16.0668
-0.835238
16.2093
-0.916011
16.3548
-0.997437
16.5033
-1.07948
16.6547
-1.16209
16.8092
-1.24522
16.9666
-1.32885
17.1271
-1.41292
17.2906
-1.49738
17.4571
-1.58219
17.6266
-1.66731
17.7991
-1.75268
17.9747
-1.83826
18.1532
-1.924
18.3348
-2.00985
18.5195
-2.09576
18.7071
-2.18168
18.8978
-2.26756
19.0915
-2.35335
19.2882
-2.439
19.4879
-2.52445
19.6906
-2.60965
19.8963
-2.69457
20.105
-2.77912
20.3163
-2.86332
20.5318
-2.94688
20.7459
-3.03053
20.9768
-3.11173
-3.19837
21.1678
16.0162
2.60144
-16.44
15.6142
2.49765
15.2385
2.39823
14.892
2.30353
14.5767
2.21376
14.2939
2.12895
14.0434
2.04894
13.8246
1.97344
13.636
1.90205
13.4756
1.8343
13.3411
1.76971
13.2301
1.70777
13.1405
1.64801
13.0699
1.58998
13.0163
1.53327
12.9778
1.47753
12.9528
1.42244
12.9398
1.36771
12.9375
1.31312
12.9448
1.25843
12.9607
1.20349
12.9844
1.14814
13.0152
1.09224
13.0525
1.03569
13.0957
0.978396
13.1443
0.920278
13.198
0.861273
13.2564
0.801328
13.3193
0.740398
13.3863
0.678451
13.4573
0.615458
13.5321
0.551401
13.6105
0.486266
13.6924
0.420043
13.7777
0.352732
13.8662
0.284331
13.958
0.214847
14.0528
0.144289
14.1508
0.0726681
14.2518
0
14.3557
-0.0736971
14.4626
-0.148403
14.5724
-0.224093
14.6852
-0.300744
14.8008
-0.378327
14.9193
-0.456814