/*--------------------------------*- C++ -*----------------------------------*\
| =========                 |                                                 |
| \\      /  F ield         | OpenFOAM: The Open Source CFD Toolbox           |
|  \\    /   O peration     | Version:  2206                                  |
|   \\  /    A nd           | Website:  www.openfoam.com                      |
|    \\/     M anipulation  |                                                 |
\*---------------------------------------------------------------------------*/
FoamFile
{
    version     2.0;
    format      ascii;
    arch        "LSB;label=32;scalar=64";
    class       volScalarField;
    location    "1.9";
    object      wave;
}
// * * * * * * * * * * * * * * * * * * * * * * * * * * * * * * * * * * * * * //

dimensions      [0 0 0 0 0 0 0];

internalField   nonuniform List<scalar> 
100
(
0.917703
0.843407
0.747923
0.633649
0.503456
0.360616
0.208716
0.0515726
-0.106866
-0.262621
-0.411777
-0.550589
-0.675569
-0.783577
-0.8719
-0.938319
-0.981165
-0.999362
-0.992453
-0.960611
-0.904637
-0.825936
-0.726486
-0.608784
-0.475789
-0.330841
-0.177582
-0.0198609
0.138359
0.293103
0.440483
0.576798
0.698622
0.802895
0.886997
0.948817
0.9868
0.999992
0.988062
0.95131
0.890659
0.807633
0.704317
0.583307
0.447643
0.300733
0.146269
-0.0118707
-0.169712
-0.323289
-0.468745
-0.602425
-0.720971
-0.821404
-0.901202
-0.95836
-0.991441
-0.999615
-0.982677
-0.941052
-0.875785
-0.788517
-0.681439
-0.557242
-0.419046
-0.270323
-0.114808
0.0435903
0.200894
0.353151
0.496536
0.627446
0.742594
0.839087
0.914499
0.966937
0.995084
0.998232
0.976302
0.929846
0.860029
0.768607
0.657875
0.530617
0.390028
0.23964
0.0832325
-0.0752661
-0.231874
-0.382657
-0.523826
-0.651836
-0.76347
-0.855924
-0.926875
-0.974542
-0.997725
-0.995844
-0.968945
-0.917703
)
;

boundaryField
{
    movingWall
    {
        type            calculated;
        value           uniform 0;
    }
    fixedWalls
    {
        type            calculated;
        value           uniform 0;
    }
    frontAndBack
    {
        type            empty;
    }
}


// ************************************************************************* //
