/*--------------------------------*- C++ -*----------------------------------*\
| =========                 |                                                 |
| \\      /  F ield         | OpenFOAM: The Open Source CFD Toolbox           |
|  \\    /   O peration     | Version:  2312                                  |
|   \\  /    A nd           | Website:  www.openfoam.com                      |
|    \\/     M anipulation  |                                                 |
\*---------------------------------------------------------------------------*/
FoamFile
{
    version     2.0;
    format      ascii;
    arch        "LSB;label=32;scalar=64";
    class       volVectorField;
    location    "0.846";
    object      U;
}
// * * * * * * * * * * * * * * * * * * * * * * * * * * * * * * * * * * * * * //

dimensions      [0 1 -1 0 0 0 0];

internalField   nonuniform List<vector> 
31205
(
(299.936 0 0)
(299.972 0 0)
(299.971 0 0)
(299.933 0 0)
(299.857 0 0)
(299.744 0 0)
(299.592 0 0)
(299.403 0 0)
(299.174 0 0)
(298.908 0 0)
(298.602 0 0)
(298.256 0 0)
(297.871 0 0)
(297.444 0 0)
(296.977 0 0)
(296.468 0 0)
(295.916 0 0)
(295.321 0 0)
(294.682 0 0)
(293.997 0 0)
(293.266 0 0)
(292.488 0 0)
(291.661 0 0)
(290.784 0 0)
(289.855 0 0)
(288.873 0 0)
(287.836 0 0)
(286.741 0 0)
(285.587 0 0)
(284.371 0 0)
(283.091 0 0)
(281.743 0 0)
(280.324 0 0)
(278.83 0 0)
(277.257 0 0)
(275.6 0 0)
(273.854 0 0)
(272.012 0 0)
(270.067 0 0)
(268.011 0 0)
(265.835 0 0)
(263.526 0 0)
(261.07 0 0)
(258.451 0 0)
(255.649 0 0)
(252.64 0 0)
(249.393 0 0)
(245.826 0 0)
(241.842 0 0)
(237.553 0 0)
(233.329 0 0)
(228.35 0 0)
(217.714 0 0)
(194.65 0 0)
(162.122 0 0)
(133.784 0 0)
(117.14 0 0)
(109.562 0 0)
(106.599 0 0)
(105.651 0 0)
(105.573 0 0)
(105.897 0 0)
(106.425 0 0)
(107.073 0 0)
(107.796 0 0)
(108.573 0 0)
(109.388 0 0)
(110.234 0 0)
(111.105 0 0)
(111.995 0 0)
(112.901 0 0)
(113.82 0 0)
(114.751 0 0)
(115.69 0 0)
(116.643 0 0)
(117.586 0 0)
(118.583 0 0)
(119.439 0 0)
(120.745 0 0)
(299.971 0 0)
(299.975 0 0)
(299.943 0 0)
(299.875 0 0)
(299.772 0 0)
(299.632 0 0)
(299.457 0 0)
(299.245 0 0)
(298.996 0 0)
(298.711 0 0)
(298.388 0 0)
(298.027 0 0)
(297.628 0 0)
(297.19 0 0)
(296.712 0 0)
(296.195 0 0)
(295.636 0 0)
(295.036 0 0)
(294.394 0 0)
(293.708 0 0)
(292.978 0 0)
(292.202 0 0)
(291.379 0 0)
(290.508 0 0)
(289.588 0 0)
(288.616 0 0)
(287.592 0 0)
(286.513 0 0)
(285.376 0 0)
(284.181 0 0)
(282.923 0 0)
(281.601 0 0)
(280.211 0 0)
(278.75 0 0)
(277.213 0 0)
(275.596 0 0)
(273.895 0 0)
(272.102 0 0)
(270.213 0 0)
(268.218 0 0)
(266.11 0 0)
(263.877 0 0)
(261.508 0 0)
(258.986 0 0)
(256.293 0 0)
(253.41 0 0)
(250.31 0 0)
(246.941 0 0)
(243.198 0 0)
(239.063 0 0)
(234.842 0 0)
(230.606 0 0)
(223.625 0 0)
(206.97 0 0)
(177.553 0 0)
(145.592 0 0)
(123.385 0 0)
(112.194 0 0)
(107.522 0 0)
(105.832 0 0)
(105.417 0 0)
(105.568 0 0)
(105.993 0 0)
(106.567 0 0)
(107.232 0 0)
(107.959 0 0)
(108.731 0 0)
(109.536 0 0)
(110.367 0 0)
(111.22 0 0)
(112.09 0 0)
(112.975 0 0)
(113.873 0 0)
(114.779 0 0)
(115.698 0 0)
(116.611 0 0)
(117.574 0 0)
(118.405 0 0)
(119.665 0 0)
(299.975 0 0)
(299.946 0 0)
(299.884 0 0)
(299.787 0 0)
(299.657 0 0)
(299.492 0 0)
(299.294 0 0)
(299.06 0 0)
(298.791 0 0)
(298.487 0 0)
(298.148 0 0)
(297.772 0 0)
(297.359 0 0)
(296.909 0 0)
(296.421 0 0)
(295.895 0 0)
(295.33 0 0)
(294.725 0 0)
(294.079 0 0)
(293.391 0 0)
(292.66 0 0)
(291.886 0 0)
(291.067 0 0)
(290.202 0 0)
(289.289 0 0)
(288.327 0 0)
(287.314 0 0)
(286.248 0 0)
(285.128 0 0)
(283.951 0 0)
(282.715 0 0)
(281.416 0 0)
(280.053 0 0)
(278.622 0 0)
(277.118 0 0)
(275.538 0 0)
(273.878 0 0)
(272.131 0 0)
(270.292 0 0)
(268.353 0 0)
(266.307 0 0)
(264.144 0 0)
(261.853 0 0)
(259.42 0 0)
(256.827 0 0)
(254.056 0 0)
(251.086 0 0)
(247.882 0 0)
(244.359 0 0)
(240.43 0 0)
(236.247 0 0)
(232.18 0 0)
(227.185 0 0)
(215.963 0 0)
(191.977 0 0)
(159.311 0 0)
(131.819 0 0)
(116.081 0 0)
(109.015 0 0)
(106.268 0 0)
(105.39 0 0)
(105.319 0 0)
(105.619 0 0)
(106.112 0 0)
(106.716 0 0)
(107.391 0 0)
(108.117 0 0)
(108.881 0 0)
(109.674 0 0)
(110.49 0 0)
(111.325 0 0)
(112.176 0 0)
(113.04 0 0)
(113.914 0 0)
(114.802 0 0)
(115.683 0 0)
(116.615 0 0)
(117.42 0 0)
(118.634 0 0)
(299.947 0 0)
(299.887 0 0)
(299.796 0 0)
(299.673 0 0)
(299.517 0 0)
(299.329 0 0)
(299.108 0 0)
(298.854 0 0)
(298.566 0 0)
(298.245 0 0)
(297.889 0 0)
(297.499 0 0)
(297.073 0 0)
(296.612 0 0)
(296.115 0 0)
(295.58 0 0)
(295.008 0 0)
(294.398 0 0)
(293.748 0 0)
(293.059 0 0)
(292.328 0 0)
(291.555 0 0)
(290.74 0 0)
(289.879 0 0)
(288.973 0 0)
(288.02 0 0)
(287.018 0 0)
(285.965 0 0)
(284.86 0 0)
(283.7 0 0)
(282.483 0 0)
(281.207 0 0)
(279.869 0 0)
(278.465 0 0)
(276.993 0 0)
(275.448 0 0)
(273.825 0 0)
(272.121 0 0)
(270.329 0 0)
(268.442 0 0)
(266.454 0 0)
(264.355 0 0)
(262.136 0 0)
(259.783 0 0)
(257.283 0 0)
(254.615 0 0)
(251.762 0 0)
(248.698 0 0)
(245.364 0 0)
(241.658 0 0)
(237.592 0 0)
(233.515 0 0)
(229.365 0 0)
(221.946 0 0)
(204.106 0 0)
(173.858 0 0)
(142.521 0 0)
(121.59 0 0)
(111.301 0 0)
(107.057 0 0)
(105.533 0 0)
(105.166 0 0)
(105.314 0 0)
(105.714 0 0)
(106.251 0 0)
(106.873 0 0)
(107.553 0 0)
(108.275 0 0)
(109.029 0 0)
(109.808 0 0)
(110.609 0 0)
(111.426 0 0)
(112.257 0 0)
(113.099 0 0)
(113.956 0 0)
(114.807 0 0)
(115.707 0 0)
(116.487 0 0)
(117.658 0 0)
(299.889 0 0)
(299.801 0 0)
(299.683 0 0)
(299.535 0 0)
(299.356 0 0)
(299.146 0 0)
(298.904 0 0)
(298.631 0 0)
(298.326 0 0)
(297.988 0 0)
(297.618 0 0)
(297.214 0 0)
(296.777 0 0)
(296.305 0 0)
(295.799 0 0)
(295.257 0 0)
(294.679 0 0)
(294.064 0 0)
(293.412 0 0)
(292.721 0 0)
(291.99 0 0)
(291.219 0 0)
(290.407 0 0)
(289.551 0 0)
(288.652 0 0)
(287.707 0 0)
(286.716 0 0)
(285.676 0 0)
(284.585 0 0)
(283.442 0 0)
(282.244 0 0)
(280.989 0 0)
(279.675 0 0)
(278.298 0 0)
(276.855 0 0)
(275.343 0 0)
(273.757 0 0)
(272.093 0 0)
(270.345 0 0)
(268.508 0 0)
(266.574 0 0)
(264.536 0 0)
(262.384 0 0)
(260.108 0 0)
(257.692 0 0)
(255.122 0 0)
(252.377 0 0)
(249.438 0 0)
(246.267 0 0)
(242.774 0 0)
(238.889 0 0)
(234.816 0 0)
(230.9 0 0)
(225.734 0 0)
(213.48 0 0)
(188.124 0 0)
(155.397 0 0)
(129.201 0 0)
(114.73 0 0)
(108.357 0 0)
(105.903 0 0)
(105.129 0 0)
(105.08 0 0)
(105.368 0 0)
(105.831 0 0)
(106.396 0 0)
(107.028 0 0)
(107.708 0 0)
(108.423 0 0)
(109.166 0 0)
(109.931 0 0)
(110.715 0 0)
(111.514 0 0)
(112.324 0 0)
(113.15 0 0)
(113.972 0 0)
(114.84 0 0)
(115.595 0 0)
(116.725 0 0)
(299.803 0 0)
(299.69 0 0)
(299.548 0 0)
(299.376 0 0)
(299.175 0 0)
(298.945 0 0)
(298.685 0 0)
(298.394 0 0)
(298.073 0 0)
(297.72 0 0)
(297.336 0 0)
(296.921 0 0)
(296.473 0 0)
(295.992 0 0)
(295.478 0 0)
(294.929 0 0)
(294.346 0 0)
(293.728 0 0)
(293.073 0 0)
(292.381 0 0)
(291.651 0 0)
(290.882 0 0)
(290.074 0 0)
(289.224 0 0)
(288.331 0 0)
(287.396 0 0)
(286.414 0 0)
(285.387 0 0)
(284.31 0 0)
(283.184 0 0)
(282.004 0 0)
(280.771 0 0)
(279.48 0 0)
(278.129 0 0)
(276.715 0 0)
(275.234 0 0)
(273.683 0 0)
(272.058 0 0)
(270.353 0 0)
(268.563 0 0)
(266.682 0 0)
(264.701 0 0)
(262.614 0 0)
(260.409 0 0)
(258.074 0 0)
(255.595 0 0)
(252.953 0 0)
(250.13 0 0)
(247.1 0 0)
(243.799 0 0)
(240.127 0 0)
(236.137 0 0)
(232.213 0 0)
(228.113 0 0)
(220.099 0 0)
(200.888 0 0)
(169.842 0 0)
(139.321 0 0)
(119.778 0 0)
(110.416 0 0)
(106.603 0 0)
(105.245 0 0)
(104.929 0 0)
(105.077 0 0)
(105.454 0 0)
(105.957 0 0)
(106.539 0 0)
(107.175 0 0)
(107.85 0 0)
(108.556 0 0)
(109.287 0 0)
(110.037 0 0)
(110.804 0 0)
(111.583 0 0)
(112.378 0 0)
(113.171 0 0)
(114.009 0 0)
(114.739 0 0)
(115.829 0 0)
(299.693 0 0)
(299.556 0 0)
(299.391 0 0)
(299.199 0 0)
(298.978 0 0)
(298.729 0 0)
(298.451 0 0)
(298.145 0 0)
(297.809 0 0)
(297.443 0 0)
(297.047 0 0)
(296.621 0 0)
(296.164 0 0)
(295.675 0 0)
(295.153 0 0)
(294.599 0 0)
(294.012 0 0)
(293.39 0 0)
(292.734 0 0)
(292.042 0 0)
(291.313 0 0)
(290.547 0 0)
(289.743 0 0)
(288.899 0 0)
(288.014 0 0)
(287.087 0 0)
(286.116 0 0)
(285.101 0 0)
(284.039 0 0)
(282.929 0 0)
(281.768 0 0)
(280.555 0 0)
(279.287 0 0)
(277.961 0 0)
(276.575 0 0)
(275.126 0 0)
(273.609 0 0)
(272.021 0 0)
(270.358 0 0)
(268.613 0 0)
(266.782 0 0)
(264.857 0 0)
(262.831 0 0)
(260.694 0 0)
(258.436 0 0)
(256.043 0 0)
(253.499 0 0)
(250.785 0 0)
(247.882 0 0)
(244.748 0 0)
(241.292 0 0)
(237.462 0 0)
(233.51 0 0)
(229.741 0 0)
(224.388 0 0)
(211.166 0 0)
(184.657 0 0)
(152.024 0 0)
(127.011 0 0)
(113.606 0 0)
(107.798 0 0)
(105.579 0 0)
(104.886 0 0)
(104.851 0 0)
(105.122 0 0)
(105.555 0 0)
(106.083 0 0)
(106.673 0 0)
(107.309 0 0)
(107.978 0 0)
(108.673 0 0)
(109.39 0 0)
(110.125 0 0)
(110.873 0 0)
(111.638 0 0)
(112.401 0 0)
(113.209 0 0)
(113.914 0 0)
(114.966 0 0)
(299.56 0 0)
(299.401 0 0)
(299.216 0 0)
(299.004 0 0)
(298.765 0 0)
(298.499 0 0)
(298.206 0 0)
(297.885 0 0)
(297.536 0 0)
(297.158 0 0)
(296.752 0 0)
(296.316 0 0)
(295.85 0 0)
(295.354 0 0)
(294.827 0 0)
(294.268 0 0)
(293.677 0 0)
(293.054 0 0)
(292.396 0 0)
(291.705 0 0)
(290.978 0 0)
(290.215 0 0)
(289.415 0 0)
(288.577 0 0)
(287.7 0 0)
(286.782 0 0)
(285.823 0 0)
(284.82 0 0)
(283.772 0 0)
(282.678 0 0)
(281.536 0 0)
(280.343 0 0)
(279.097 0 0)
(277.797 0 0)
(276.438 0 0)
(275.019 0 0)
(273.536 0 0)
(271.984 0 0)
(270.361 0 0)
(268.66 0 0)
(266.878 0 0)
(265.006 0 0)
(263.039 0 0)
(260.968 0 0)
(258.783 0 0)
(256.471 0 0)
(254.019 0 0)
(251.409 0 0)
(248.624 0 0)
(245.636 0 0)
(242.377 0 0)
(238.754 0 0)
(234.852 0 0)
(231.081 0 0)
(227.037 0 0)
(218.554 0 0)
(198.312 0 0)
(166.762 0 0)
(136.942 0 0)
(118.439 0 0)
(109.745 0 0)
(106.235 0 0)
(104.991 0 0)
(104.704 0 0)
(104.843 0 0)
(105.194 0 0)
(105.662 0 0)
(106.204 0 0)
(106.798 0 0)
(107.429 0 0)
(108.089 0 0)
(108.772 0 0)
(109.475 0 0)
(110.193 0 0)
(110.927 0 0)
(111.662 0 0)
(112.44 0 0)
(113.12 0 0)
(114.134 0 0)
(299.406 0 0)
(299.228 0 0)
(299.023 0 0)
(298.794 0 0)
(298.539 0 0)
(298.258 0 0)
(297.95 0 0)
(297.616 0 0)
(297.255 0 0)
(296.867 0 0)
(296.451 0 0)
(296.006 0 0)
(295.533 0 0)
(295.031 0 0)
(294.499 0 0)
(293.936 0 0)
(293.343 0 0)
(292.718 0 0)
(292.06 0 0)
(291.37 0 0)
(290.646 0 0)
(289.887 0 0)
(289.092 0 0)
(288.26 0 0)
(287.391 0 0)
(286.483 0 0)
(285.534 0 0)
(284.544 0 0)
(283.511 0 0)
(282.433 0 0)
(281.308 0 0)
(280.136 0 0)
(278.912 0 0)
(277.636 0 0)
(276.305 0 0)
(274.915 0 0)
(273.464 0 0)
(271.948 0 0)
(270.364 0 0)
(268.706 0 0)
(266.97 0 0)
(265.15 0 0)
(263.24 0 0)
(261.231 0 0)
(259.115 0 0)
(256.882 0 0)
(254.517 0 0)
(252.006 0 0)
(249.331 0 0)
(246.472 0 0)
(243.386 0 0)
(239.98 0 0)
(236.22 0 0)
(232.392 0 0)
(228.767 0 0)
(223.321 0 0)
(209.472 0 0)
(182.246 0 0)
(149.747 0 0)
(125.543 0 0)
(112.833 0 0)
(107.385 0 0)
(105.311 0 0)
(104.662 0 0)
(104.626 0 0)
(104.877 0 0)
(105.278 0 0)
(105.768 0 0)
(106.318 0 0)
(106.91 0 0)
(107.534 0 0)
(108.184 0 0)
(108.855 0 0)
(109.541 0 0)
(110.246 0 0)
(110.952 0 0)
(111.7 0 0)
(112.356 0 0)
(113.333 0 0)
(299.234 0 0)
(299.037 0 0)
(298.816 0 0)
(298.57 0 0)
(298.3 0 0)
(298.005 0 0)
(297.685 0 0)
(297.339 0 0)
(296.968 0 0)
(296.57 0 0)
(296.145 0 0)
(295.693 0 0)
(295.214 0 0)
(294.706 0 0)
(294.17 0 0)
(293.604 0 0)
(293.009 0 0)
(292.383 0 0)
(291.727 0 0)
(291.038 0 0)
(290.316 0 0)
(289.562 0 0)
(288.772 0 0)
(287.948 0 0)
(287.087 0 0)
(286.188 0 0)
(285.251 0 0)
(284.273 0 0)
(283.254 0 0)
(282.192 0 0)
(281.086 0 0)
(279.933 0 0)
(278.732 0 0)
(277.479 0 0)
(276.174 0 0)
(274.814 0 0)
(273.394 0 0)
(271.913 0 0)
(270.366 0 0)
(268.75 0 0)
(267.059 0 0)
(265.289 0 0)
(263.433 0 0)
(261.484 0 0)
(259.435 0 0)
(257.276 0 0)
(254.994 0 0)
(252.576 0 0)
(250.005 0 0)
(247.265 0 0)
(244.328 0 0)
(241.124 0 0)
(237.564 0 0)
(233.759 0 0)
(230.133 0 0)
(226.187 0 0)
(217.497 0 0)
(196.713 0 0)
(164.917 0 0)
(135.52 0 0)
(117.615 0 0)
(109.298 0 0)
(105.957 0 0)
(104.77 0 0)
(104.489 0 0)
(104.612 0 0)
(104.933 0 0)
(105.366 0 0)
(105.869 0 0)
(106.421 0 0)
(107.008 0 0)
(107.624 0 0)
(108.263 0 0)
(108.919 0 0)
(109.593 0 0)
(110.271 0 0)
(110.99 0 0)
(111.622 0 0)
(112.561 0 0)
(299.045 0 0)
(298.831 0 0)
(298.594 0 0)
(298.334 0 0)
(298.051 0 0)
(297.743 0 0)
(297.411 0 0)
(297.055 0 0)
(296.674 0 0)
(296.267 0 0)
(295.835 0 0)
(295.377 0 0)
(294.892 0 0)
(294.38 0 0)
(293.841 0 0)
(293.273 0 0)
(292.677 0 0)
(292.051 0 0)
(291.395 0 0)
(290.709 0 0)
(289.991 0 0)
(289.24 0 0)
(288.457 0 0)
(287.639 0 0)
(286.787 0 0)
(285.898 0 0)
(284.972 0 0)
(284.007 0 0)
(283.003 0 0)
(281.957 0 0)
(280.868 0 0)
(279.735 0 0)
(278.555 0 0)
(277.327 0 0)
(276.047 0 0)
(274.715 0 0)
(273.326 0 0)
(271.879 0 0)
(270.369 0 0)
(268.792 0 0)
(267.145 0 0)
(265.423 0 0)
(263.619 0 0)
(261.728 0 0)
(259.743 0 0)
(257.653 0 0)
(255.45 0 0)
(253.121 0 0)
(250.649 0 0)
(248.02 0 0)
(245.214 0 0)
(242.186 0 0)
(238.844 0 0)
(235.165 0 0)
(231.457 0 0)
(227.98 0 0)
(222.596 0 0)
(208.562 0 0)
(181.063 0 0)
(148.628 0 0)
(124.785 0 0)
(112.391 0 0)
(107.109 0 0)
(105.098 0 0)
(104.46 0 0)
(104.409 0 0)
(104.633 0 0)
(105 0 0)
(105.453 0 0)
(105.962 0 0)
(106.512 0 0)
(107.093 0 0)
(107.699 0 0)
(108.325 0 0)
(108.969 0 0)
(109.618 0 0)
(110.309 0 0)
(110.917 0 0)
(111.82 0 0)
(298.84 0 0)
(298.611 0 0)
(298.36 0 0)
(298.087 0 0)
(297.791 0 0)
(297.472 0 0)
(297.13 0 0)
(296.765 0 0)
(296.375 0 0)
(295.961 0 0)
(295.522 0 0)
(295.059 0 0)
(294.569 0 0)
(294.054 0 0)
(293.512 0 0)
(292.942 0 0)
(292.345 0 0)
(291.72 0 0)
(291.066 0 0)
(290.382 0 0)
(289.668 0 0)
(288.923 0 0)
(288.146 0 0)
(287.336 0 0)
(286.492 0 0)
(285.613 0 0)
(284.698 0 0)
(283.747 0 0)
(282.757 0 0)
(281.727 0 0)
(280.656 0 0)
(279.541 0 0)
(278.383 0 0)
(277.178 0 0)
(275.924 0 0)
(274.619 0 0)
(273.26 0 0)
(271.845 0 0)
(270.37 0 0)
(268.833 0 0)
(267.228 0 0)
(265.552 0 0)
(263.799 0 0)
(261.963 0 0)
(260.038 0 0)
(258.016 0 0)
(255.888 0 0)
(253.642 0 0)
(251.264 0 0)
(248.74 0 0)
(246.052 0 0)
(243.175 0 0)
(240.037 0 0)
(236.555 0 0)
(232.848 0 0)
(229.357 0 0)
(225.57 0 0)
(216.993 0 0)
(196.197 0 0)
(164.353 0 0)
(135.031 0 0)
(117.269 0 0)
(109.057 0 0)
(105.762 0 0)
(104.583 0 0)
(104.288 0 0)
(104.385 0 0)
(104.674 0 0)
(105.07 0 0)
(105.535 0 0)
(106.046 0 0)
(106.591 0 0)
(107.165 0 0)
(107.759 0 0)
(108.374 0 0)
(108.995 0 0)
(109.657 0 0)
(110.241 0 0)
(111.108 0 0)
(298.622 0 0)
(298.379 0 0)
(298.115 0 0)
(297.83 0 0)
(297.523 0 0)
(297.194 0 0)
(296.843 0 0)
(296.469 0 0)
(296.072 0 0)
(295.651 0 0)
(295.207 0 0)
(294.738 0 0)
(294.245 0 0)
(293.727 0 0)
(293.183 0 0)
(292.613 0 0)
(292.016 0 0)
(291.392 0 0)
(290.74 0 0)
(290.059 0 0)
(289.35 0 0)
(288.61 0 0)
(287.839 0 0)
(287.037 0 0)
(286.202 0 0)
(285.333 0 0)
(284.43 0 0)
(283.491 0 0)
(282.515 0 0)
(281.501 0 0)
(280.447 0 0)
(279.352 0 0)
(278.215 0 0)
(277.032 0 0)
(275.803 0 0)
(274.525 0 0)
(273.195 0 0)
(271.812 0 0)
(270.372 0 0)
(268.872 0 0)
(267.308 0 0)
(265.676 0 0)
(263.971 0 0)
(262.189 0 0)
(260.322 0 0)
(258.364 0 0)
(256.307 0 0)
(254.14 0 0)
(251.851 0 0)
(249.426 0 0)
(246.849 0 0)
(244.102 0 0)
(241.142 0 0)
(237.879 0 0)
(234.29 0 0)
(230.692 0 0)
(227.368 0 0)
(222.224 0 0)
(208.488 0 0)
(181.156 0 0)
(148.664 0 0)
(124.709 0 0)
(112.261 0 0)
(106.96 0 0)
(104.935 0 0)
(104.278 0 0)
(104.201 0 0)
(104.393 0 0)
(104.725 0 0)
(105.14 0 0)
(105.609 0 0)
(106.119 0 0)
(106.658 0 0)
(107.221 0 0)
(107.806 0 0)
(108.399 0 0)
(109.032 0 0)
(109.592 0 0)
(110.424 0 0)
(298.391 0 0)
(298.136 0 0)
(297.861 0 0)
(297.565 0 0)
(297.248 0 0)
(296.91 0 0)
(296.55 0 0)
(296.169 0 0)
(295.765 0 0)
(295.339 0 0)
(294.89 0 0)
(294.417 0 0)
(293.921 0 0)
(293.401 0 0)
(292.856 0 0)
(292.285 0 0)
(291.689 0 0)
(291.067 0 0)
(290.417 0 0)
(289.74 0 0)
(289.035 0 0)
(288.301 0 0)
(287.537 0 0)
(286.742 0 0)
(285.916 0 0)
(285.058 0 0)
(284.166 0 0)
(283.24 0 0)
(282.279 0 0)
(281.28 0 0)
(280.244 0 0)
(279.168 0 0)
(278.05 0 0)
(276.89 0 0)
(275.685 0 0)
(274.433 0 0)
(273.132 0 0)
(271.78 0 0)
(270.373 0 0)
(268.91 0 0)
(267.385 0 0)
(265.796 0 0)
(264.138 0 0)
(262.406 0 0)
(260.595 0 0)
(258.699 0 0)
(256.708 0 0)
(254.616 0 0)
(252.411 0 0)
(250.08 0 0)
(247.607 0 0)
(244.979 0 0)
(242.169 0 0)
(239.11 0 0)
(235.718 0 0)
(232.109 0 0)
(228.735 0 0)
(225.171 0 0)
(217.047 0 0)
(196.792 0 0)
(165.096 0 0)
(135.478 0 0)
(117.397 0 0)
(109.016 0 0)
(105.648 0 0)
(104.428 0 0)
(104.101 0 0)
(104.165 0 0)
(104.419 0 0)
(104.779 0 0)
(105.204 0 0)
(105.675 0 0)
(106.181 0 0)
(106.712 0 0)
(107.267 0 0)
(107.831 0 0)
(108.436 0 0)
(108.972 0 0)
(109.769 0 0)
(298.15 0 0)
(297.883 0 0)
(297.597 0 0)
(297.292 0 0)
(296.966 0 0)
(296.62 0 0)
(296.253 0 0)
(295.865 0 0)
(295.456 0 0)
(295.025 0 0)
(294.571 0 0)
(294.096 0 0)
(293.597 0 0)
(293.075 0 0)
(292.53 0 0)
(291.959 0 0)
(291.364 0 0)
(290.744 0 0)
(290.098 0 0)
(289.425 0 0)
(288.724 0 0)
(287.996 0 0)
(287.239 0 0)
(286.453 0 0)
(285.636 0 0)
(284.788 0 0)
(283.908 0 0)
(282.995 0 0)
(282.047 0 0)
(281.064 0 0)
(280.045 0 0)
(278.987 0 0)
(277.89 0 0)
(276.751 0 0)
(275.57 0 0)
(274.344 0 0)
(273.071 0 0)
(271.749 0 0)
(270.374 0 0)
(268.946 0 0)
(267.459 0 0)
(265.912 0 0)
(264.299 0 0)
(262.616 0 0)
(260.858 0 0)
(259.02 0 0)
(257.094 0 0)
(255.072 0 0)
(252.946 0 0)
(250.703 0 0)
(248.33 0 0)
(245.811 0 0)
(243.131 0 0)
(240.248 0 0)
(237.075 0 0)
(233.585 0 0)
(230.083 0 0)
(226.909 0 0)
(222.175 0 0)
(209.233 0 0)
(182.546 0 0)
(149.893 0 0)
(125.339 0 0)
(112.451 0 0)
(106.942 0 0)
(104.826 0 0)
(104.118 0 0)
(104.003 0 0)
(104.159 0 0)
(104.454 0 0)
(104.831 0 0)
(105.262 0 0)
(105.732 0 0)
(106.231 0 0)
(106.755 0 0)
(107.291 0 0)
(107.867 0 0)
(108.38 0 0)
(109.141 0 0)
(297.899 0 0)
(297.622 0 0)
(297.326 0 0)
(297.012 0 0)
(296.678 0 0)
(296.325 0 0)
(295.952 0 0)
(295.558 0 0)
(295.144 0 0)
(294.709 0 0)
(294.252 0 0)
(293.774 0 0)
(293.274 0 0)
(292.751 0 0)
(292.205 0 0)
(291.636 0 0)
(291.042 0 0)
(290.425 0 0)
(289.782 0 0)
(289.113 0 0)
(288.418 0 0)
(287.696 0 0)
(286.946 0 0)
(286.168 0 0)
(285.36 0 0)
(284.523 0 0)
(283.654 0 0)
(282.754 0 0)
(281.82 0 0)
(280.853 0 0)
(279.85 0 0)
(278.811 0 0)
(277.733 0 0)
(276.616 0 0)
(275.458 0 0)
(274.257 0 0)
(273.011 0 0)
(271.718 0 0)
(270.375 0 0)
(268.981 0 0)
(267.531 0 0)
(266.023 0 0)
(264.453 0 0)
(262.818 0 0)
(261.111 0 0)
(259.328 0 0)
(257.464 0 0)
(255.51 0 0)
(253.458 0 0)
(251.298 0 0)
(249.018 0 0)
(246.603 0 0)
(244.039 0 0)
(241.304 0 0)
(238.334 0 0)
(235.044 0 0)
(231.531 0 0)
(228.253 0 0)
(224.953 0 0)
(217.601 0 0)
(198.472 0 0)
(167.189 0 0)
(136.927 0 0)
(118.038 0 0)
(109.193 0 0)
(105.621 0 0)
(104.31 0 0)
(103.931 0 0)
(103.954 0 0)
(104.171 0 0)
(104.493 0 0)
(104.88 0 0)
(105.313 0 0)
(105.778 0 0)
(106.271 0 0)
(106.778 0 0)
(107.326 0 0)
(107.815 0 0)
(108.542 0 0)
(297.639 0 0)
(297.353 0 0)
(297.049 0 0)
(296.727 0 0)
(296.386 0 0)
(296.026 0 0)
(295.647 0 0)
(295.249 0 0)
(294.831 0 0)
(294.392 0 0)
(293.933 0 0)
(293.453 0 0)
(292.952 0 0)
(292.429 0 0)
(291.883 0 0)
(291.315 0 0)
(290.724 0 0)
(290.109 0 0)
(289.469 0 0)
(288.805 0 0)
(288.115 0 0)
(287.4 0 0)
(286.658 0 0)
(285.888 0 0)
(285.09 0 0)
(284.263 0 0)
(283.406 0 0)
(282.518 0 0)
(281.598 0 0)
(280.646 0 0)
(279.66 0 0)
(278.638 0 0)
(277.58 0 0)
(276.484 0 0)
(275.349 0 0)
(274.172 0 0)
(272.952 0 0)
(271.688 0 0)
(270.376 0 0)
(269.014 0 0)
(267.6 0 0)
(266.131 0 0)
(264.602 0 0)
(263.012 0 0)
(261.354 0 0)
(259.625 0 0)
(257.819 0 0)
(255.929 0 0)
(253.947 0 0)
(251.866 0 0)
(249.673 0 0)
(247.356 0 0)
(244.901 0 0)
(242.293 0 0)
(239.496 0 0)
(236.424 0 0)
(233.04 0 0)
(229.62 0 0)
(226.578 0 0)
(222.383 0 0)
(210.712 0 0)
(185.229 0 0)
(152.406 0 0)
(126.764 0 0)
(113.007 0 0)
(107.074 0 0)
(104.778 0 0)
(103.986 0 0)
(103.82 0 0)
(103.934 0 0)
(104.191 0 0)
(104.53 0 0)
(104.923 0 0)
(105.354 0 0)
(105.815 0 0)
(106.293 0 0)
(106.812 0 0)
(107.277 0 0)
(107.969 0 0)
(297.371 0 0)
(297.077 0 0)
(296.766 0 0)
(296.437 0 0)
(296.09 0 0)
(295.725 0 0)
(295.341 0 0)
(294.938 0 0)
(294.517 0 0)
(294.075 0 0)
(293.614 0 0)
(293.133 0 0)
(292.631 0 0)
(292.108 0 0)
(291.563 0 0)
(290.997 0 0)
(290.408 0 0)
(289.796 0 0)
(289.161 0 0)
(288.501 0 0)
(287.818 0 0)
(287.109 0 0)
(286.374 0 0)
(285.613 0 0)
(284.824 0 0)
(284.007 0 0)
(283.162 0 0)
(282.287 0 0)
(281.381 0 0)
(280.444 0 0)
(279.474 0 0)
(278.47 0 0)
(277.431 0 0)
(276.355 0 0)
(275.242 0 0)
(274.089 0 0)
(272.895 0 0)
(271.658 0 0)
(270.376 0 0)
(269.046 0 0)
(267.667 0 0)
(266.234 0 0)
(264.746 0 0)
(263.199 0 0)
(261.589 0 0)
(259.911 0 0)
(258.16 0 0)
(256.331 0 0)
(254.416 0 0)
(252.409 0 0)
(250.298 0 0)
(248.074 0 0)
(245.721 0 0)
(243.227 0 0)
(240.573 0 0)
(237.701 0 0)
(234.523 0 0)
(231.107 0 0)
(227.898 0 0)
(224.868 0 0)
(218.541 0 0)
(201.141 0 0)
(170.691 0 0)
(139.513 0 0)
(119.286 0 0)
(109.63 0 0)
(105.699 0 0)
(104.236 0 0)
(103.781 0 0)
(103.756 0 0)
(103.932 0 0)
(104.215 0 0)
(104.565 0 0)
(104.958 0 0)
(105.387 0 0)
(105.835 0 0)
(106.325 0 0)
(106.766 0 0)
(107.424 0 0)
(297.097 0 0)
(296.796 0 0)
(296.478 0 0)
(296.143 0 0)
(295.79 0 0)
(295.42 0 0)
(295.033 0 0)
(294.627 0 0)
(294.202 0 0)
(293.759 0 0)
(293.296 0 0)
(292.814 0 0)
(292.312 0 0)
(291.789 0 0)
(291.246 0 0)
(290.682 0 0)
(290.096 0 0)
(289.487 0 0)
(288.856 0 0)
(288.202 0 0)
(287.524 0 0)
(286.822 0 0)
(286.095 0 0)
(285.342 0 0)
(284.563 0 0)
(283.757 0 0)
(282.923 0 0)
(282.061 0 0)
(281.169 0 0)
(280.246 0 0)
(279.292 0 0)
(278.306 0 0)
(277.285 0 0)
(276.23 0 0)
(275.138 0 0)
(274.008 0 0)
(272.839 0 0)
(271.629 0 0)
(270.376 0 0)
(269.077 0 0)
(267.731 0 0)
(266.334 0 0)
(264.885 0 0)
(263.379 0 0)
(261.814 0 0)
(260.185 0 0)
(258.487 0 0)
(256.716 0 0)
(254.865 0 0)
(252.927 0 0)
(250.895 0 0)
(248.756 0 0)
(246.5 0 0)
(244.113 0 0)
(241.582 0 0)
(238.875 0 0)
(235.916 0 0)
(232.647 0 0)
(229.299 0 0)
(226.352 0 0)
(222.751 0 0)
(212.758 0 0)
(189.149 0 0)
(156.339 0 0)
(129.143 0 0)
(114.018 0 0)
(107.391 0 0)
(104.804 0 0)
(103.886 0 0)
(103.653 0 0)
(103.721 0 0)
(103.938 0 0)
(104.239 0 0)
(104.593 0 0)
(104.988 0 0)
(105.405 0 0)
(105.865 0 0)
(106.281 0 0)
(106.906 0 0)
(296.818 0 0)
(296.51 0 0)
(296.186 0 0)
(295.845 0 0)
(295.488 0 0)
(295.115 0 0)
(294.723 0 0)
(294.314 0 0)
(293.888 0 0)
(293.443 0 0)
(292.979 0 0)
(292.497 0 0)
(291.995 0 0)
(291.474 0 0)
(290.932 0 0)
(290.37 0 0)
(289.787 0 0)
(289.182 0 0)
(288.556 0 0)
(287.907 0 0)
(287.236 0 0)
(286.54 0 0)
(285.821 0 0)
(285.077 0 0)
(284.307 0 0)
(283.512 0 0)
(282.689 0 0)
(281.839 0 0)
(280.961 0 0)
(280.053 0 0)
(279.115 0 0)
(278.145 0 0)
(277.143 0 0)
(276.107 0 0)
(275.037 0 0)
(273.93 0 0)
(272.785 0 0)
(271.601 0 0)
(270.375 0 0)
(269.107 0 0)
(267.793 0 0)
(266.431 0 0)
(265.019 0 0)
(263.553 0 0)
(262.031 0 0)
(260.449 0 0)
(258.802 0 0)
(257.086 0 0)
(255.296 0 0)
(253.424 0 0)
(251.464 0 0)
(249.407 0 0)
(247.241 0 0)
(244.954 0 0)
(242.535 0 0)
(239.965 0 0)
(237.198 0 0)
(234.144 0 0)
(230.83 0 0)
(227.664 0 0)
(224.861 0 0)
(219.697 0 0)
(204.613 0 0)
(175.63 0 0)
(143.44 0 0)
(121.305 0 0)
(110.405 0 0)
(105.912 0 0)
(104.218 0 0)
(103.658 0 0)
(103.573 0 0)
(103.704 0 0)
(103.948 0 0)
(104.259 0 0)
(104.618 0 0)
(105.003 0 0)
(105.432 0 0)
(105.824 0 0)
(106.414 0 0)
(296.533 0 0)
(296.22 0 0)
(295.891 0 0)
(295.546 0 0)
(295.185 0 0)
(294.807 0 0)
(294.413 0 0)
(294.002 0 0)
(293.574 0 0)
(293.128 0 0)
(292.664 0 0)
(292.182 0 0)
(291.681 0 0)
(291.161 0 0)
(290.621 0 0)
(290.062 0 0)
(289.482 0 0)
(288.882 0 0)
(288.26 0 0)
(287.617 0 0)
(286.952 0 0)
(286.263 0 0)
(285.552 0 0)
(284.817 0 0)
(284.057 0 0)
(283.272 0 0)
(282.46 0 0)
(281.623 0 0)
(280.758 0 0)
(279.864 0 0)
(278.942 0 0)
(277.989 0 0)
(277.005 0 0)
(275.988 0 0)
(274.938 0 0)
(273.853 0 0)
(272.732 0 0)
(271.573 0 0)
(270.375 0 0)
(269.135 0 0)
(267.852 0 0)
(266.524 0 0)
(265.148 0 0)
(263.721 0 0)
(262.24 0 0)
(260.703 0 0)
(259.105 0 0)
(257.442 0 0)
(255.708 0 0)
(253.899 0 0)
(252.008 0 0)
(250.027 0 0)
(247.946 0 0)
(245.754 0 0)
(243.439 0 0)
(240.988 0 0)
(238.377 0 0)
(235.537 0 0)
(232.396 0 0)
(229.117 0 0)
(226.214 0 0)
(223.166 0 0)
(215.126 0 0)
(194.15 0 0)
(161.838 0 0)
(132.723 0 0)
(115.636 0 0)
(107.96 0 0)
(104.931 0 0)
(103.83 0 0)
(103.509 0 0)
(103.523 0 0)
(103.697 0 0)
(103.959 0 0)
(104.277 0 0)
(104.629 0 0)
(105.027 0 0)
(105.393 0 0)
(105.949 0 0)
(296.245 0 0)
(295.926 0 0)
(295.593 0 0)
(295.244 0 0)
(294.88 0 0)
(294.5 0 0)
(294.103 0 0)
(293.69 0 0)
(293.261 0 0)
(292.814 0 0)
(292.35 0 0)
(291.869 0 0)
(291.369 0 0)
(290.85 0 0)
(290.313 0 0)
(289.757 0 0)
(289.181 0 0)
(288.585 0 0)
(287.969 0 0)
(287.331 0 0)
(286.672 0 0)
(285.991 0 0)
(285.288 0 0)
(284.561 0 0)
(283.811 0 0)
(283.036 0 0)
(282.236 0 0)
(281.411 0 0)
(280.559 0 0)
(279.68 0 0)
(278.772 0 0)
(277.836 0 0)
(276.869 0 0)
(275.872 0 0)
(274.842 0 0)
(273.779 0 0)
(272.68 0 0)
(271.546 0 0)
(270.374 0 0)
(269.163 0 0)
(267.91 0 0)
(266.614 0 0)
(265.272 0 0)
(263.882 0 0)
(262.442 0 0)
(260.948 0 0)
(259.396 0 0)
(257.783 0 0)
(256.104 0 0)
(254.355 0 0)
(252.529 0 0)
(250.619 0 0)
(248.617 0 0)
(246.514 0 0)
(244.297 0 0)
(241.954 0 0)
(239.473 0 0)
(236.814 0 0)
(233.894 0 0)
(230.695 0 0)
(227.553 0 0)
(224.891 0 0)
(220.873 0 0)
(208.582 0 0)
(181.955 0 0)
(148.97 0 0)
(124.352 0 0)
(111.65 0 0)
(106.313 0 0)
(104.276 0 0)
(103.57 0 0)
(103.41 0 0)
(103.491 0 0)
(103.694 0 0)
(103.969 0 0)
(104.284 0 0)
(104.65 0 0)
(104.99 0 0)
(105.511 0 0)
(295.953 0 0)
(295.63 0 0)
(295.293 0 0)
(294.941 0 0)
(294.574 0 0)
(294.192 0 0)
(293.793 0 0)
(293.379 0 0)
(292.949 0 0)
(292.502 0 0)
(292.039 0 0)
(291.558 0 0)
(291.06 0 0)
(290.544 0 0)
(290.009 0 0)
(289.456 0 0)
(288.884 0 0)
(288.293 0 0)
(287.682 0 0)
(287.05 0 0)
(286.398 0 0)
(285.724 0 0)
(285.028 0 0)
(284.31 0 0)
(283.57 0 0)
(282.805 0 0)
(282.017 0 0)
(281.204 0 0)
(280.365 0 0)
(279.5 0 0)
(278.607 0 0)
(277.687 0 0)
(276.737 0 0)
(275.758 0 0)
(274.748 0 0)
(273.706 0 0)
(272.63 0 0)
(271.52 0 0)
(270.373 0 0)
(269.189 0 0)
(267.965 0 0)
(266.7 0 0)
(265.392 0 0)
(264.038 0 0)
(262.636 0 0)
(261.183 0 0)
(259.676 0 0)
(258.111 0 0)
(256.484 0 0)
(254.791 0 0)
(253.027 0 0)
(251.184 0 0)
(249.257 0 0)
(247.236 0 0)
(245.112 0 0)
(242.871 0 0)
(240.503 0 0)
(237.99 0 0)
(235.275 0 0)
(232.274 0 0)
(229.074 0 0)
(226.167 0 0)
(223.535 0 0)
(217.507 0 0)
(199.926 0 0)
(169.005 0 0)
(137.846 0 0)
(118.103 0 0)
(108.89 0 0)
(105.2 0 0)
(103.833 0 0)
(103.394 0 0)
(103.343 0 0)
(103.47 0 0)
(103.694 0 0)
(103.97 0 0)
(104.301 0 0)
(104.613 0 0)
(105.099 0 0)
(295.659 0 0)
(295.333 0 0)
(294.992 0 0)
(294.637 0 0)
(294.268 0 0)
(293.884 0 0)
(293.485 0 0)
(293.07 0 0)
(292.639 0 0)
(292.193 0 0)
(291.73 0 0)
(291.251 0 0)
(290.754 0 0)
(290.24 0 0)
(289.709 0 0)
(289.16 0 0)
(288.592 0 0)
(288.005 0 0)
(287.399 0 0)
(286.773 0 0)
(286.128 0 0)
(285.461 0 0)
(284.774 0 0)
(284.065 0 0)
(283.334 0 0)
(282.58 0 0)
(281.802 0 0)
(281.001 0 0)
(280.175 0 0)
(279.324 0 0)
(278.446 0 0)
(277.541 0 0)
(276.609 0 0)
(275.648 0 0)
(274.657 0 0)
(273.635 0 0)
(272.581 0 0)
(271.494 0 0)
(270.372 0 0)
(269.214 0 0)
(268.019 0 0)
(266.784 0 0)
(265.508 0 0)
(264.189 0 0)
(262.823 0 0)
(261.41 0 0)
(259.945 0 0)
(258.426 0 0)
(256.849 0 0)
(255.21 0 0)
(253.503 0 0)
(251.725 0 0)
(249.868 0 0)
(247.924 0 0)
(245.886 0 0)
(243.74 0 0)
(241.478 0 0)
(239.086 0 0)
(236.538 0 0)
(233.759 0 0)
(230.692 0 0)
(227.574 0 0)
(224.945 0 0)
(221.885 0 0)
(212.632 0 0)
(189.438 0 0)
(156.372 0 0)
(128.805 0 0)
(113.58 0 0)
(106.992 0 0)
(104.443 0 0)
(103.53 0 0)
(103.273 0 0)
(103.296 0 0)
(103.456 0 0)
(103.687 0 0)
(103.982 0 0)
(104.264 0 0)
(104.714 0 0)
(295.363 0 0)
(295.033 0 0)
(294.69 0 0)
(294.333 0 0)
(293.962 0 0)
(293.577 0 0)
(293.177 0 0)
(292.762 0 0)
(292.331 0 0)
(291.885 0 0)
(291.424 0 0)
(290.946 0 0)
(290.452 0 0)
(289.941 0 0)
(289.413 0 0)
(288.867 0 0)
(288.303 0 0)
(287.722 0 0)
(287.121 0 0)
(286.502 0 0)
(285.863 0 0)
(285.204 0 0)
(284.524 0 0)
(283.824 0 0)
(283.102 0 0)
(282.359 0 0)
(281.592 0 0)
(280.803 0 0)
(279.989 0 0)
(279.152 0 0)
(278.289 0 0)
(277.399 0 0)
(276.484 0 0)
(275.54 0 0)
(274.568 0 0)
(273.566 0 0)
(272.533 0 0)
(271.469 0 0)
(270.371 0 0)
(269.239 0 0)
(268.071 0 0)
(266.865 0 0)
(265.62 0 0)
(264.334 0 0)
(263.004 0 0)
(261.628 0 0)
(260.204 0 0)
(258.729 0 0)
(257.199 0 0)
(255.611 0 0)
(253.96 0 0)
(252.242 0 0)
(250.45 0 0)
(248.58 0 0)
(246.621 0 0)
(244.566 0 0)
(242.402 0 0)
(240.119 0 0)
(237.705 0 0)
(235.116 0 0)
(232.268 0 0)
(229.169 0 0)
(226.227 0 0)
(223.812 0 0)
(219.591 0 0)
(205.984 0 0)
(177.777 0 0)
(144.926 0 0)
(121.797 0 0)
(110.365 0 0)
(105.684 0 0)
(103.923 0 0)
(103.32 0 0)
(103.186 0 0)
(103.263 0 0)
(103.44 0 0)
(103.693 0 0)
(103.944 0 0)
(104.356 0 0)
(295.066 0 0)
(294.733 0 0)
(294.388 0 0)
(294.03 0 0)
(293.657 0 0)
(293.271 0 0)
(292.871 0 0)
(292.455 0 0)
(292.026 0 0)
(291.581 0 0)
(291.121 0 0)
(290.645 0 0)
(290.153 0 0)
(289.645 0 0)
(289.12 0 0)
(288.578 0 0)
(288.019 0 0)
(287.443 0 0)
(286.848 0 0)
(286.235 0 0)
(285.602 0 0)
(284.951 0 0)
(284.28 0 0)
(283.588 0 0)
(282.876 0 0)
(282.142 0 0)
(281.387 0 0)
(280.609 0 0)
(279.808 0 0)
(278.984 0 0)
(278.135 0 0)
(277.261 0 0)
(276.361 0 0)
(275.435 0 0)
(274.481 0 0)
(273.498 0 0)
(272.486 0 0)
(271.444 0 0)
(270.37 0 0)
(269.262 0 0)
(268.121 0 0)
(266.943 0 0)
(265.728 0 0)
(264.473 0 0)
(263.178 0 0)
(261.839 0 0)
(260.454 0 0)
(259.021 0 0)
(257.536 0 0)
(255.996 0 0)
(254.398 0 0)
(252.737 0 0)
(251.008 0 0)
(249.205 0 0)
(247.321 0 0)
(245.349 0 0)
(243.278 0 0)
(241.097 0 0)
(238.797 0 0)
(236.358 0 0)
(233.723 0 0)
(230.808 0 0)
(227.736 0 0)
(225.048 0 0)
(222.617 0 0)
(216.286 0 0)
(197.582 0 0)
(165.807 0 0)
(135.178 0 0)
(116.544 0 0)
(108.1 0 0)
(104.778 0 0)
(103.56 0 0)
(103.17 0 0)
(103.124 0 0)
(103.232 0 0)
(103.437 0 0)
(103.654 0 0)
(104.027 0 0)
(294.767 0 0)
(294.433 0 0)
(294.086 0 0)
(293.727 0 0)
(293.353 0 0)
(292.967 0 0)
(292.566 0 0)
(292.152 0 0)
(291.723 0 0)
(291.279 0 0)
(290.821 0 0)
(290.347 0 0)
(289.858 0 0)
(289.353 0 0)
(288.832 0 0)
(288.294 0 0)
(287.74 0 0)
(287.168 0 0)
(286.579 0 0)
(285.972 0 0)
(285.347 0 0)
(284.703 0 0)
(284.04 0 0)
(283.357 0 0)
(282.654 0 0)
(281.931 0 0)
(281.186 0 0)
(280.42 0 0)
(279.631 0 0)
(278.82 0 0)
(277.985 0 0)
(277.126 0 0)
(276.242 0 0)
(275.333 0 0)
(274.396 0 0)
(273.433 0 0)
(272.441 0 0)
(271.42 0 0)
(270.368 0 0)
(269.285 0 0)
(268.169 0 0)