/*--------------------------------*- C++ -*----------------------------------*\
| =========                 |                                                 |
| \\      /  F ield         | OpenFOAM: The Open Source CFD Toolbox           |
|  \\    /   O peration     | Version:  2312                                  |
|   \\  /    A nd           | Website:  www.openfoam.com                      |
|    \\/     M anipulation  |                                                 |
\*---------------------------------------------------------------------------*/
FoamFile
{
    version     2.0;
    format      ascii;
    arch        "LSB;label=32;scalar=64";
    class       volVectorField;
    location    "0.717";
    object      U;
}
// * * * * * * * * * * * * * * * * * * * * * * * * * * * * * * * * * * * * * //

dimensions      [0 1 -1 0 0 0 0];

internalField   nonuniform List<vector> 
31205
(
(295.036 0 0)
(295.616 0 0)
(296.157 0 0)
(296.66 0 0)
(297.126 0 0)
(297.555 0 0)
(297.946 0 0)
(298.301 0 0)
(298.619 0 0)
(298.9 0 0)
(299.144 0 0)
(299.352 0 0)
(299.523 0 0)
(299.657 0 0)
(299.754 0 0)
(299.815 0 0)
(299.838 0 0)
(299.824 0 0)
(299.772 0 0)
(299.682 0 0)
(299.554 0 0)
(299.387 0 0)
(299.18 0 0)
(298.934 0 0)
(298.648 0 0)
(298.32 0 0)
(297.95 0 0)
(297.538 0 0)
(297.082 0 0)
(296.582 0 0)
(296.036 0 0)
(295.443 0 0)
(294.802 0 0)
(294.112 0 0)
(293.371 0 0)
(292.577 0 0)
(291.729 0 0)
(290.824 0 0)
(289.86 0 0)
(288.835 0 0)
(287.745 0 0)
(286.589 0 0)
(285.361 0 0)
(284.059 0 0)
(282.677 0 0)
(281.211 0 0)
(279.655 0 0)
(278.003 0 0)
(276.245 0 0)
(274.375 0 0)
(272.381 0 0)
(270.249 0 0)
(267.962 0 0)
(265.511 0 0)
(262.885 0 0)
(259.999 0 0)
(256.673 0 0)
(253.036 0 0)
(250.092 0 0)
(248.077 0 0)
(240.717 0 0)
(215.225 0 0)
(172.921 0 0)
(136.163 0 0)
(116.848 0 0)
(109.484 0 0)
(107.236 0 0)
(106.853 0 0)
(107.146 0 0)
(107.705 0 0)
(108.386 0 0)
(109.131 0 0)
(109.918 0 0)
(110.732 0 0)
(111.572 0 0)
(112.415 0 0)
(113.315 0 0)
(114.095 0 0)
(115.292 0 0)
(295.649 0 0)
(296.173 0 0)
(296.661 0 0)
(297.113 0 0)
(297.531 0 0)
(297.913 0 0)
(298.261 0 0)
(298.574 0 0)
(298.853 0 0)
(299.097 0 0)
(299.307 0 0)
(299.482 0 0)
(299.623 0 0)
(299.729 0 0)
(299.8 0 0)
(299.837 0 0)
(299.838 0 0)
(299.804 0 0)
(299.734 0 0)
(299.628 0 0)
(299.486 0 0)
(299.307 0 0)
(299.091 0 0)
(298.837 0 0)
(298.545 0 0)
(298.214 0 0)
(297.843 0 0)
(297.432 0 0)
(296.98 0 0)
(296.486 0 0)
(295.948 0 0)
(295.366 0 0)
(294.739 0 0)
(294.065 0 0)
(293.343 0 0)
(292.572 0 0)
(291.749 0 0)
(290.873 0 0)
(289.941 0 0)
(288.952 0 0)
(287.902 0 0)
(286.79 0 0)
(285.612 0 0)
(284.364 0 0)
(283.042 0 0)
(281.642 0 0)
(280.16 0 0)
(278.588 0 0)
(276.921 0 0)
(275.15 0 0)
(273.268 0 0)
(271.262 0 0)
(269.118 0 0)
(266.821 0 0)
(264.365 0 0)
(261.73 0 0)
(258.806 0 0)
(255.424 0 0)
(251.885 0 0)
(249.327 0 0)
(247.188 0 0)
(237.192 0 0)
(207.171 0 0)
(163.931 0 0)
(130.586 0 0)
(114.463 0 0)
(108.613 0 0)
(106.922 0 0)
(106.727 0 0)
(107.077 0 0)
(107.646 0 0)
(108.317 0 0)
(109.045 0 0)
(109.808 0 0)
(110.602 0 0)
(111.403 0 0)
(112.261 0 0)
(113.006 0 0)
(114.151 0 0)
(296.227 0 0)
(296.697 0 0)
(297.134 0 0)
(297.537 0 0)
(297.908 0 0)
(298.247 0 0)
(298.552 0 0)
(298.826 0 0)
(299.067 0 0)
(299.275 0 0)
(299.451 0 0)
(299.595 0 0)
(299.706 0 0)
(299.784 0 0)
(299.83 0 0)
(299.842 0 0)
(299.822 0 0)
(299.768 0 0)
(299.68 0 0)
(299.558 0 0)
(299.402 0 0)
(299.211 0 0)
(298.985 0 0)
(298.723 0 0)
(298.425 0 0)
(298.09 0 0)
(297.717 0 0)
(297.306 0 0)
(296.856 0 0)
(296.366 0 0)
(295.836 0 0)
(295.263 0 0)
(294.648 0 0)
(293.988 0 0)
(293.283 0 0)
(292.531 0 0)
(291.731 0 0)
(290.88 0 0)
(289.977 0 0)
(289.021 0 0)
(288.007 0 0)
(286.935 0 0)
(285.801 0 0)
(284.602 0 0)
(283.335 0 0)
(281.995 0 0)
(280.578 0 0)
(279.079 0 0)
(277.492 0 0)
(275.811 0 0)
(274.027 0 0)
(272.132 0 0)
(270.115 0 0)
(267.959 0 0)
(265.652 0 0)
(263.19 0 0)
(260.542 0 0)
(257.568 0 0)
(254.142 0 0)
(250.769 0 0)
(248.616 0 0)
(245.958 0 0)
(232.521 0 0)
(198.073 0 0)
(155.113 0 0)
(125.644 0 0)
(112.459 0 0)
(107.894 0 0)
(106.663 0 0)
(106.62 0 0)
(107.014 0 0)
(107.587 0 0)
(108.248 0 0)
(108.956 0 0)
(109.702 0 0)
(110.46 0 0)
(111.275 0 0)
(111.986 0 0)
(113.076 0 0)
(296.755 0 0)
(297.175 0 0)
(297.564 0 0)
(297.922 0 0)
(298.249 0 0)
(298.546 0 0)
(298.812 0 0)
(299.048 0 0)
(299.253 0 0)
(299.428 0 0)
(299.572 0 0)
(299.686 0 0)
(299.769 0 0)
(299.822 0 0)
(299.843 0 0)
(299.833 0 0)
(299.792 0 0)
(299.719 0 0)
(299.614 0 0)
(299.477 0 0)
(299.308 0 0)
(299.105 0 0)
(298.87 0 0)
(298.6 0 0)
(298.296 0 0)
(297.956 0 0)
(297.582 0 0)
(297.171 0 0)
(296.723 0 0)
(296.237 0 0)
(295.713 0 0)
(295.149 0 0)
(294.544 0 0)
(293.897 0 0)
(293.208 0 0)
(292.474 0 0)
(291.695 0 0)
(290.868 0 0)
(289.992 0 0)
(289.066 0 0)
(288.086 0 0)
(287.051 0 0)
(285.958 0 0)
(284.805 0 0)
(283.587 0 0)
(282.302 0 0)
(280.946 0 0)
(279.514 0 0)
(278.001 0 0)
(276.401 0 0)
(274.707 0 0)
(272.912 0 0)
(271.007 0 0)
(268.979 0 0)
(266.813 0 0)
(264.5 0 0)
(262.034 0 0)
(259.369 0 0)
(256.34 0 0)
(252.897 0 0)
(249.766 0 0)
(247.981 0 0)
(244.321 0 0)
(226.854 0 0)
(188.618 0 0)
(147.1 0 0)
(121.546 0 0)
(110.867 0 0)
(107.328 0 0)
(106.456 0 0)
(106.529 0 0)
(106.954 0 0)
(107.527 0 0)
(108.174 0 0)
(108.868 0 0)
(109.58 0 0)
(110.352 0 0)
(111.027 0 0)
(112.065 0 0)
(297.231 0 0)
(297.604 0 0)
(297.948 0 0)
(298.264 0 0)
(298.551 0 0)
(298.809 0 0)
(299.038 0 0)
(299.239 0 0)
(299.411 0 0)
(299.555 0 0)
(299.67 0 0)
(299.756 0 0)
(299.813 0 0)
(299.841 0 0)
(299.84 0 0)
(299.809 0 0)
(299.749 0 0)
(299.659 0 0)
(299.539 0 0)
(299.388 0 0)
(299.206 0 0)
(298.993 0 0)
(298.748 0 0)
(298.471 0 0)
(298.162 0 0)
(297.819 0 0)
(297.443 0 0)
(297.032 0 0)
(296.587 0 0)
(296.105 0 0)
(295.587 0 0)
(295.031 0 0)
(294.437 0 0)
(293.803 0 0)
(293.129 0 0)
(292.413 0 0)
(291.654 0 0)
(290.85 0 0)
(290 0 0)
(289.102 0 0)
(288.154 0 0)
(287.154 0 0)
(286.1 0 0)
(284.989 0 0)
(283.819 0 0)
(282.586 0 0)
(281.287 0 0)
(279.917 0 0)
(278.472 0 0)
(276.948 0 0)
(275.338 0 0)
(273.635 0 0)
(271.832 0 0)
(269.92 0 0)
(267.885 0 0)
(265.713 0 0)
(263.398 0 0)
(260.932 0 0)
(258.248 0 0)
(255.169 0 0)
(251.748 0 0)
(248.916 0 0)
(247.39 0 0)
(242.281 0 0)
(220.653 0 0)
(179.68 0 0)
(140.388 0 0)
(118.362 0 0)
(109.664 0 0)
(106.897 0 0)
(106.288 0 0)
(106.443 0 0)
(106.888 0 0)
(107.456 0 0)
(108.092 0 0)
(108.755 0 0)
(109.481 0 0)
(110.12 0 0)
(111.106 0 0)
(297.655 0 0)
(297.985 0 0)
(298.288 0 0)
(298.564 0 0)
(298.814 0 0)
(299.036 0 0)
(299.232 0 0)
(299.4 0 0)
(299.542 0 0)
(299.657 0 0)
(299.745 0 0)
(299.805 0 0)
(299.838 0 0)
(299.844 0 0)
(299.822 0 0)
(299.773 0 0)
(299.695 0 0)
(299.589 0 0)
(299.454 0 0)
(299.29 0 0)
(299.097 0 0)
(298.875 0 0)
(298.622 0 0)
(298.34 0 0)
(298.026 0 0)
(297.68 0 0)
(297.303 0 0)
(296.893 0 0)
(296.45 0 0)
(295.973 0 0)
(295.461 0 0)
(294.914 0 0)
(294.331 0 0)
(293.71 0 0)
(293.05 0 0)
(292.351 0 0)
(291.612 0 0)
(290.83 0 0)
(290.005 0 0)
(289.134 0 0)
(288.217 0 0)
(287.251 0 0)
(286.234 0 0)
(285.164 0 0)
(284.039 0 0)
(282.855 0 0)
(281.609 0 0)
(280.298 0 0)
(278.918 0 0)
(277.465 0 0)
(275.933 0 0)
(274.316 0 0)
(272.607 0 0)
(270.8 0 0)
(268.884 0 0)
(266.847 0 0)
(264.675 0 0)
(262.363 0 0)
(259.901 0 0)
(257.2 0 0)
(254.081 0 0)
(250.723 0 0)
(248.217 0 0)
(246.803 0 0)
(239.936 0 0)
(214.411 0 0)
(171.782 0 0)
(135.037 0 0)
(115.968 0 0)
(108.771 0 0)
(106.567 0 0)
(106.146 0 0)
(106.358 0 0)
(106.811 0 0)
(107.374 0 0)
(107.983 0 0)
(108.66 0 0)
(109.261 0 0)
(110.194 0 0)
(298.03 0 0)
(298.32 0 0)
(298.586 0 0)
(298.826 0 0)
(299.04 0 0)
(299.23 0 0)
(299.394 0 0)
(299.533 0 0)
(299.647 0 0)
(299.735 0 0)
(299.798 0 0)
(299.835 0 0)
(299.846 0 0)
(299.831 0 0)
(299.791 0 0)
(299.723 0 0)
(299.63 0 0)
(299.509 0 0)
(299.361 0 0)
(299.186 0 0)
(298.984 0 0)
(298.753 0 0)
(298.494 0 0)
(298.205 0 0)
(297.888 0 0)
(297.541 0 0)
(297.163 0 0)
(296.755 0 0)
(296.315 0 0)
(295.843 0 0)
(295.338 0 0)
(294.799 0 0)
(294.226 0 0)
(293.617 0 0)
(292.973 0 0)
(292.291 0 0)
(291.57 0 0)
(290.81 0 0)
(290.009 0 0)
(289.165 0 0)
(288.277 0 0)
(287.344 0 0)
(286.363 0 0)
(285.332 0 0)
(284.249 0 0)
(283.112 0 0)
(281.917 0 0)
(280.662 0 0)
(279.343 0 0)
(277.956 0 0)
(276.497 0 0)
(274.96 0 0)
(273.34 0 0)
(271.63 0 0)
(269.823 0 0)
(267.908 0 0)
(265.872 0 0)
(263.704 0 0)
(261.401 0 0)
(258.947 0 0)
(256.233 0 0)
(253.092 0 0)
(249.831 0 0)
(247.647 0 0)
(246.202 0 0)
(237.455 0 0)
(208.562 0 0)
(165.159 0 0)
(130.907 0 0)
(114.194 0 0)
(108.109 0 0)
(106.309 0 0)
(106.02 0 0)
(106.267 0 0)
(106.725 0 0)
(107.266 0 0)
(107.89 0 0)
(108.449 0 0)
(109.329 0 0)
(298.36 0 0)
(298.614 0 0)
(298.844 0 0)
(299.051 0 0)
(299.234 0 0)
(299.393 0 0)
(299.528 0 0)
(299.64 0 0)
(299.728 0 0)
(299.792 0 0)
(299.831 0 0)
(299.847 0 0)
(299.838 0 0)
(299.804 0 0)
(299.746 0 0)
(299.663 0 0)
(299.555 0 0)
(299.421 0 0)
(299.262 0 0)
(299.077 0 0)
(298.865 0 0)
(298.627 0 0)
(298.362 0 0)
(298.069 0 0)
(297.749 0 0)
(297.401 0 0)
(297.023 0 0)
(296.617 0 0)
(296.18 0 0)
(295.713 0 0)
(295.215 0 0)
(294.686 0 0)
(294.123 0 0)
(293.527 0 0)
(292.897 0 0)
(292.231 0 0)
(291.53 0 0)
(290.79 0 0)
(290.012 0 0)
(289.195 0 0)
(288.335 0 0)
(287.433 0 0)
(286.486 0 0)
(285.493 0 0)
(284.451 0 0)
(283.358 0 0)
(282.212 0 0)
(281.01 0 0)
(279.748 0 0)
(278.424 0 0)
(277.033 0 0)
(275.572 0 0)
(274.034 0 0)
(272.414 0 0)
(270.706 0 0)
(268.902 0 0)
(266.993 0 0)
(264.964 0 0)
(262.805 0 0)
(260.516 0 0)
(258.075 0 0)
(255.353 0 0)
(252.208 0 0)
(249.065 0 0)
(247.176 0 0)
(245.599 0 0)
(235.047 0 0)
(203.444 0 0)
(159.865 0 0)
(127.809 0 0)
(112.897 0 0)
(107.616 0 0)
(106.101 0 0)
(105.901 0 0)
(106.172 0 0)
(106.616 0 0)
(107.175 0 0)
(107.687 0 0)
(108.51 0 0)
(298.648 0 0)
(298.869 0 0)
(299.067 0 0)
(299.243 0 0)
(299.396 0 0)
(299.527 0 0)
(299.636 0 0)
(299.723 0 0)
(299.787 0 0)
(299.828 0 0)
(299.846 0 0)
(299.842 0 0)
(299.815 0 0)
(299.764 0 0)
(299.69 0 0)
(299.592 0 0)
(299.471 0 0)
(299.326 0 0)
(299.156 0 0)
(298.962 0 0)
(298.742 0 0)
(298.498 0 0)
(298.228 0 0)
(297.932 0 0)
(297.609 0 0)
(297.26 0 0)
(296.884 0 0)
(296.48 0 0)
(296.047 0 0)
(295.586 0 0)
(295.095 0 0)
(294.574 0 0)
(294.022 0 0)
(293.439 0 0)
(292.823 0 0)
(292.174 0 0)
(291.49 0 0)
(290.771 0 0)
(290.016 0 0)
(289.223 0 0)
(288.391 0 0)
(287.519 0 0)
(286.605 0 0)
(285.648 0 0)
(284.645 0 0)
(283.594 0 0)
(282.494 0 0)
(281.342 0 0)
(280.135 0 0)
(278.87 0 0)
(277.544 0 0)
(276.153 0 0)
(274.692 0 0)
(273.156 0 0)
(271.54 0 0)
(269.838 0 0)
(268.042 0 0)
(266.141 0 0)
(264.123 0 0)
(261.979 0 0)
(259.71 0 0)
(257.285 0 0)
(254.566 0 0)
(251.432 0 0)
(248.416 0 0)
(246.781 0 0)
(245.031 0 0)
(232.929 0 0)
(199.302 0 0)
(155.868 0 0)
(125.573 0 0)
(111.967 0 0)
(107.249 0 0)
(105.927 0 0)
(105.788 0 0)
(106.06 0 0)
(106.525 0 0)
(106.98 0 0)
(107.742 0 0)
(298.899 0 0)
(299.088 0 0)
(299.256 0 0)
(299.404 0 0)
(299.53 0 0)
(299.635 0 0)
(299.72 0 0)
(299.783 0 0)
(299.825 0 0)
(299.846 0 0)
(299.845 0 0)
(299.822 0 0)
(299.778 0 0)
(299.712 0 0)
(299.623 0 0)
(299.513 0 0)
(299.379 0 0)
(299.223 0 0)
(299.044 0 0)
(298.842 0 0)
(298.616 0 0)
(298.366 0 0)
(298.092 0 0)
(297.793 0 0)
(297.469 0 0)
(297.12 0 0)
(296.745 0 0)
(296.344 0 0)
(295.915 0 0)
(295.46 0 0)
(294.977 0 0)
(294.465 0 0)
(293.923 0 0)
(293.352 0 0)
(292.75 0 0)
(292.117 0 0)
(291.452 0 0)
(290.753 0 0)
(290.019 0 0)
(289.251 0 0)
(288.445 0 0)
(287.602 0 0)
(286.72 0 0)
(285.797 0 0)
(284.831 0 0)
(283.821 0 0)
(282.765 0 0)
(281.66 0 0)
(280.505 0 0)
(279.296 0 0)
(278.03 0 0)
(276.705 0 0)
(275.316 0 0)
(273.858 0 0)
(272.329 0 0)
(270.72 0 0)
(269.027 0 0)
(267.242 0 0)
(265.354 0 0)
(263.352 0 0)
(261.228 0 0)
(258.982 0 0)
(256.58 0 0)
(253.874 0 0)
(250.766 0 0)
(247.87 0 0)
(246.442 0 0)
(244.548 0 0)
(231.297 0 0)
(196.309 0 0)
(153.113 0 0)
(124.067 0 0)
(111.332 0 0)
(106.977 0 0)
(105.781 0 0)
(105.667 0 0)
(105.967 0 0)
(106.338 0 0)
(107.027 0 0)
(299.114 0 0)
(299.274 0 0)
(299.415 0 0)
(299.536 0 0)
(299.637 0 0)
(299.719 0 0)
(299.781 0 0)
(299.823 0 0)
(299.845 0 0)
(299.846 0 0)
(299.828 0 0)
(299.789 0 0)
(299.729 0 0)
(299.648 0 0)
(299.547 0 0)
(299.424 0 0)
(299.281 0 0)
(299.115 0 0)
(298.928 0 0)
(298.718 0 0)
(298.486 0 0)
(298.232 0 0)
(297.954 0 0)
(297.653 0 0)
(297.329 0 0)
(296.98 0 0)
(296.607 0 0)
(296.209 0 0)
(295.785 0 0)
(295.336 0 0)
(294.86 0 0)
(294.357 0 0)
(293.826 0 0)
(293.267 0 0)
(292.68 0 0)
(292.062 0 0)
(291.414 0 0)
(290.734 0 0)
(290.022 0 0)
(289.277 0 0)
(288.498 0 0)
(287.682 0 0)
(286.83 0 0)
(285.94 0 0)
(285.01 0 0)
(284.039 0 0)
(283.024 0 0)
(281.965 0 0)
(280.858 0 0)
(279.702 0 0)
(278.494 0 0)
(277.23 0 0)
(275.908 0 0)
(274.524 0 0)
(273.074 0 0)
(271.552 0 0)
(269.954 0 0)
(268.274 0 0)
(266.503 0 0)
(264.633 0 0)
(262.651 0 0)
(260.55 0 0)
(258.332 0 0)
(255.96 0 0)
(253.278 0 0)
(250.208 0 0)
(247.414 0 0)
(246.145 0 0)
(244.2 0 0)
(230.31 0 0)
(194.585 0 0)
(151.558 0 0)
(123.208 0 0)
(110.945 0 0)
(106.788 0 0)
(105.648 0 0)
(105.571 0 0)
(105.788 0 0)
(106.377 0 0)
(299.296 0 0)
(299.43 0 0)
(299.545 0 0)
(299.642 0 0)
(299.721 0 0)
(299.781 0 0)
(299.822 0 0)
(299.844 0 0)
(299.847 0 0)
(299.832 0 0)
(299.797 0 0)
(299.742 0 0)
(299.669 0 0)
(299.575 0 0)
(299.462 0 0)
(299.329 0 0)
(299.175 0 0)
(299.001 0 0)
(298.806 0 0)
(298.591 0 0)
(298.354 0 0)
(298.095 0 0)
(297.815 0 0)
(297.513 0 0)
(297.188 0 0)
(296.84 0 0)
(296.47 0 0)
(296.075 0 0)
(295.656 0 0)
(295.213 0 0)
(294.745 0 0)
(294.251 0 0)
(293.731 0 0)
(293.184 0 0)
(292.61 0 0)
(292.008 0 0)
(291.377 0 0)
(290.716 0 0)
(290.025 0 0)
(289.303 0 0)
(288.548 0 0)
(287.759 0 0)
(286.936 0 0)
(286.078 0 0)
(285.182 0 0)
(284.248 0 0)
(283.273 0 0)
(282.257 0 0)
(281.196 0 0)
(280.09 0 0)
(278.935 0 0)
(277.73 0 0)
(276.471 0 0)
(275.155 0 0)
(273.779 0 0)
(272.338 0 0)
(270.829 0 0)
(269.244 0 0)
(267.58 0 0)
(265.827 0 0)
(263.978 0 0)
(262.02 0 0)
(259.947 0 0)
(257.762 0 0)
(255.425 0 0)
(252.781 0 0)
(249.757 0 0)
(247.037 0 0)
(245.879 0 0)
(244.017 0 0)
(230.073 0 0)
(194.214 0 0)
(151.193 0 0)
(122.96 0 0)
(110.79 0 0)
(106.664 0 0)
(105.555 0 0)
(105.402 0 0)
(105.817 0 0)
(299.448 0 0)
(299.557 0 0)
(299.649 0 0)
(299.724 0 0)
(299.782 0 0)
(299.821 0 0)
(299.843 0 0)
(299.848 0 0)
(299.834 0 0)
(299.803 0 0)
(299.753 0 0)
(299.685 0 0)
(299.598 0 0)
(299.493 0 0)
(299.369 0 0)
(299.226 0 0)
(299.064 0 0)
(298.883 0 0)
(298.681 0 0)
(298.46 0 0)
(298.219 0 0)
(297.958 0 0)
(297.675 0 0)
(297.372 0 0)
(297.048 0 0)
(296.701 0 0)
(296.333 0 0)
(295.943 0 0)
(295.529 0 0)
(295.092 0 0)
(294.632 0 0)
(294.147 0 0)
(293.638 0 0)
(293.103 0 0)
(292.542 0 0)
(291.955 0 0)
(291.341 0 0)
(290.699 0 0)
(290.027 0 0)
(289.327 0 0)
(288.596 0 0)
(287.834 0 0)
(287.039 0 0)
(286.21 0 0)
(285.347 0 0)
(284.448 0 0)
(283.511 0 0)
(282.536 0 0)
(281.519 0 0)
(280.46 0 0)
(279.357 0 0)
(278.206 0 0)
(277.007 0 0)
(275.755 0 0)
(274.448 0 0)
(273.082 0 0)
(271.654 0 0)
(270.158 0 0)
(268.59 0 0)
(266.945 0 0)
(265.214 0 0)
(263.39 0 0)
(261.46 0 0)
(259.418 0 0)
(257.27 0 0)
(254.975 0 0)
(252.381 0 0)
(249.41 0 0)
(246.734 0 0)
(245.634 0 0)
(244.003 0 0)
(230.625 0 0)
(195.26 0 0)
(152.058 0 0)
(123.34 0 0)
(110.86 0 0)
(106.635 0 0)
(105.415 0 0)
(105.422 0 0)
(299.572 0 0)
(299.659 0 0)
(299.73 0 0)
(299.784 0 0)
(299.822 0 0)
(299.843 0 0)
(299.848 0 0)
(299.836 0 0)
(299.807 0 0)
(299.76 0 0)
(299.697 0 0)
(299.616 0 0)
(299.518 0 0)
(299.403 0 0)
(299.269 0 0)
(299.117 0 0)
(298.948 0 0)
(298.76 0 0)
(298.553 0 0)
(298.327 0 0)
(298.083 0 0)
(297.819 0 0)
(297.535 0 0)
(297.231 0 0)
(296.908 0 0)
(296.563 0 0)
(296.198 0 0)
(295.812 0 0)
(295.403 0 0)
(294.973 0 0)
(294.521 0 0)
(294.045 0 0)
(293.546 0 0)
(293.023 0 0)
(292.476 0 0)
(291.904 0 0)
(291.306 0 0)
(290.681 0 0)
(290.03 0 0)
(289.35 0 0)
(288.642 0 0)
(287.905 0 0)
(287.137 0 0)
(286.338 0 0)
(285.506 0 0)
(284.641 0 0)
(283.74 0 0)
(282.803 0 0)
(281.829 0 0)
(280.814 0 0)
(279.759 0 0)
(278.66 0 0)
(277.516 0 0)
(276.324 0 0)
(275.082 0 0)
(273.786 0 0)
(272.433 0 0)
(271.019 0 0)
(269.541 0 0)
(267.993 0 0)
(266.369 0 0)
(264.663 0 0)
(262.867 0 0)
(260.969 0 0)
(258.963 0 0)
(256.854 0 0)
(254.608 0 0)
(252.077 0 0)
(249.167 0 0)
(246.503 0 0)
(245.4 0 0)
(244.125 0 0)
(231.931 0 0)
(197.755 0 0)
(154.252 0 0)
(124.409 0 0)
(111.213 0 0)
(106.632 0 0)
(105.439 0 0)
(299.67 0 0)
(299.737 0 0)
(299.788 0 0)
(299.823 0 0)
(299.843 0 0)
(299.848 0 0)
(299.836 0 0)
(299.809 0 0)
(299.766 0 0)
(299.706 0 0)
(299.631 0 0)
(299.539 0 0)
(299.43 0 0)
(299.305 0 0)
(299.163 0 0)
(299.003 0 0)
(298.827 0 0)
(298.633 0 0)
(298.421 0 0)
(298.192 0 0)
(297.944 0 0)
(297.679 0 0)
(297.394 0 0)
(297.091 0 0)
(296.768 0 0)
(296.426 0 0)
(296.064 0 0)
(295.682 0 0)
(295.28 0 0)
(294.856 0 0)
(294.412 0 0)
(293.945 0 0)
(293.457 0 0)
(292.946 0 0)
(292.411 0 0)
(291.853 0 0)
(291.271 0 0)
(290.664 0 0)
(290.032 0 0)
(289.373 0 0)
(288.687 0 0)
(287.974 0 0)
(287.232 0 0)
(286.461 0 0)
(285.659 0 0)
(284.825 0 0)
(283.959 0 0)
(283.06 0 0)
(282.125 0 0)
(281.153 0 0)
(280.143 0 0)
(279.093 0 0)
(278.001 0 0)
(276.866 0 0)
(275.684 0 0)
(274.453 0 0)
(273.17 0 0)
(271.833 0 0)
(270.437 0 0)
(268.978 0 0)
(267.452 0 0)
(265.853 0 0)
(264.175 0 0)
(262.41 0 0)
(260.547 0 0)
(258.58 0 0)
(256.514 0 0)
(254.323 0 0)
(251.865 0 0)
(249.026 0 0)
(246.349 0 0)
(245.174 0 0)
(244.319 0 0)
(233.869 0 0)
(201.695 0 0)
(157.917 0 0)
(126.33 0 0)
(111.852 0 0)
(106.755 0 0)
(299.745 0 0)
(299.792 0 0)
(299.825 0 0)
(299.844 0 0)
(299.847 0 0)
(299.836 0 0)
(299.81 0 0)
(299.769 0 0)
(299.713 0 0)
(299.642 0 0)
(299.555 0 0)
(299.452 0 0)
(299.334 0 0)
(299.2 0 0)
(299.051 0 0)
(298.885 0 0)
(298.702 0 0)
(298.503 0 0)
(298.288 0 0)
(298.055 0 0)
(297.805 0 0)
(297.538 0 0)
(297.253 0 0)
(296.95 0 0)
(296.629 0 0)
(296.29 0 0)
(295.932 0 0)
(295.554 0 0)
(295.158 0 0)
(294.741 0 0)
(294.304 0 0)
(293.847 0 0)
(293.369 0 0)
(292.869 0 0)
(292.348 0 0)
(291.804 0 0)
(291.238 0 0)
(290.647 0 0)
(290.033 0 0)
(289.395 0 0)
(288.73 0 0)
(288.04 0 0)
(287.323 0 0)
(286.579 0 0)
(285.806 0 0)
(285.003 0 0)
(284.17 0 0)
(283.306 0 0)
(282.408 0 0)
(281.477 0 0)
(280.51 0 0)
(279.506 0 0)
(278.464 0 0)
(277.381 0 0)
(276.256 0 0)
(275.086 0 0)
(273.869 0 0)
(272.601 0 0)
(271.281 0 0)
(269.905 0 0)
(268.468 0 0)
(266.966 0 0)
(265.395 0 0)
(263.748 0 0)
(262.017 0 0)
(260.193 0 0)
(258.268 0 0)
(256.248 0 0)
(254.115 0 0)
(251.742 0 0)
(248.987 0 0)
(246.283 0 0)
(244.958 0 0)
(244.499 0 0)
(236.23 0 0)
(206.982 0 0)
(163.267 0 0)
(129.319 0 0)
(112.526 0 0)
(299.798 0 0)
(299.828 0 0)
(299.844 0 0)
(299.847 0 0)
(299.835 0 0)
(299.81 0 0)
(299.771 0 0)
(299.717 0 0)
(299.649 0 0)
(299.567 0 0)
(299.47 0 0)
(299.358 0 0)
(299.232 0 0)
(299.09 0 0)
(298.933 0 0)
(298.761 0 0)
(298.574 0 0)
(298.371 0 0)
(298.152 0 0)
(297.916 0 0)
(297.665 0 0)
(297.397 0 0)
(297.112 0 0)
(296.81 0 0)
(296.491 0 0)
(296.155 0 0)
(295.801 0 0)
(295.428 0 0)
(295.037 0 0)
(294.628 0 0)
(294.199 0 0)
(293.751 0 0)
(293.283 0 0)
(292.795 0 0)
(292.286 0 0)
(291.756 0 0)
(291.205 0 0)
(290.631 0 0)
(290.035 0 0)
(289.415 0 0)
(288.772 0 0)
(288.104 0 0)
(287.411 0 0)
(286.692 0 0)
(285.947 0 0)
(285.174 0 0)
(284.372 0 0)
(283.541 0 0)
(282.68 0 0)
(281.787 0 0)
(280.861 0 0)
(279.901 0 0)
(278.905 0 0)
(277.872 0 0)
(276.8 0 0)
(275.686 0 0)
(274.53 0 0)
(273.329 0 0)
(272.079 0 0)
(270.779 0 0)
(269.424 0 0)
(268.012 0 0)
(266.537 0 0)
(264.995 0 0)
(263.381 0 0)
(261.687 0 0)
(259.904 0 0)
(258.025 0 0)
(256.053 0 0)
(253.98 0 0)
(251.699 0 0)
(249.047 0 0)
(246.317 0 0)
(244.769 0 0)
(244.584 0 0)
(238.72 0 0)
(213.371 0 0)
(170.727 0 0)
(131.752 0 0)
(299.831 0 0)
(299.845 0 0)
(299.846 0 0)
(299.834 0 0)
(299.809 0 0)
(299.771 0 0)
(299.719 0 0)
(299.654 0 0)
(299.575 0 0)
(299.483 0 0)
(299.377 0 0)
(299.257 0 0)
(299.123 0 0)
(298.975 0 0)
(298.812 0 0)
(298.635 0 0)
(298.443 0 0)
(298.236 0 0)
(298.014 0 0)
(297.777 0 0)
(297.524 0 0)
(297.256 0 0)
(296.971 0 0)
(296.671 0 0)
(296.354 0 0)
(296.021 0 0)
(295.671 0 0)
(295.304 0 0)
(294.919 0 0)
(294.516 0 0)
(294.096 0 0)
(293.657 0 0)
(293.199 0 0)
(292.722 0 0)
(292.226 0 0)
(291.709 0 0)
(291.173 0 0)
(290.615 0 0)
(290.036 0 0)
(289.435 0 0)
(288.812 0 0)
(288.166 0 0)
(287.496 0 0)
(286.802 0 0)
(286.083 0 0)
(285.338 0 0)
(284.566 0 0)
(283.768 0 0)
(282.94 0 0)
(282.083 0 0)
(281.196 0 0)
(280.277 0 0)
(279.325 0 0)
(278.339 0 0)
(277.317 0 0)
(276.257 0 0)
(275.158 0 0)
(274.018 0 0)
(272.834 0 0)
(271.604 0 0)
(270.325 0 0)
(268.994 0 0)
(267.608 0 0)
(266.162 0 0)
(264.652 0 0)
(263.073 0 0)
(261.419 0 0)
(259.68 0 0)
(257.849 0 0)
(255.928 0 0)
(253.916 0 0)
(251.731 0 0)
(249.198 0 0)
(246.467 0 0)
(244.639 0 0)
(244.55 0 0)
(240.81 0 0)
(221.608 0 0)
(173.858 0 0)
(299.845 0 0)
(299.845 0 0)
(299.832 0 0)
(299.807 0 0)
(299.769 0 0)
(299.719 0 0)
(299.656 0 0)
(299.581 0 0)
(299.493 0 0)
(299.391 0 0)
(299.277 0 0)
(299.15 0 0)
(299.009 0 0)
(298.854 0 0)
(298.686 0 0)
(298.505 0 0)
(298.309 0 0)
(298.099 0 0)
(297.875 0 0)
(297.636 0 0)
(297.383 0 0)
(297.115 0 0)
(296.831 0 0)
(296.533 0 0)
(296.219 0 0)
(295.889 0 0)
(295.543 0 0)
(295.181 0 0)
(294.802 0 0)
(294.407 0 0)
(293.994 0 0)
(293.564 0 0)
(293.117 0 0)
(292.651 0 0)
(292.167 0 0)
(291.664 0 0)
(291.141 0 0)
(290.599 0 0)
(290.037 0 0)
(289.455 0 0)
(288.851 0 0)
(288.225 0 0)
(287.578 0 0)
(286.907 0 0)
(286.214 0 0)
(285.496 0 0)
(284.753 0 0)
(283.985 0 0)
(283.19 0 0)
(282.368 0 0)
(281.517 0 0)
(280.637 0 0)
(279.727 0 0)
(278.785 0 0)
(277.81 0 0)
(276.8 0 0)
(275.755 0 0)
(274.671 0 0)
(273.548 0 0)
(272.383 0 0)
(271.174 0 0)
(269.919 0 0)
(268.613 0 0)
(267.255 0 0)
(265.84 0 0)
(264.364 0 0)
(262.823 0 0)
(261.21 0 0)
(259.518 0 0)
(257.737 0 0)
(255.869 0 0)
(253.919 0 0)
(251.828 0 0)
(249.435 0 0)
(246.717 0 0)
(244.74 0 0)
(243.755 0 0)
(245.232 0 0)
(218.49 0 0)
(299.843 0 0)
(299.829 0 0)
(299.803 0 0)
(299.766 0 0)
(299.717 0 0)
(299.656 0 0)
(299.583 0 0)
(299.499 0 0)
(299.402 0 0)
(299.292 0 0)
(299.171 0 0)
(299.037 0 0)
(298.89 0 0)
(298.73 0 0)
(298.558 0 0)
(298.372 0 0)
(298.173 0 0)
(297.961 0 0)
(297.735 0 0)
(297.495 0 0)
(297.242 0 0)
(296.974 0 0)
(296.692 0 0)
(296.395 0 0)
(296.084 0 0)
(295.758 0 0)
(295.417 0 0)
(295.06 0 0)
(294.688 0 0)
(294.3 0 0)
(293.895 0 0)
(293.474 0 0)
(293.036 0 0)
(292.581 0 0)
(292.109 0 0)
(291.619 0 0)
(291.111 0 0)
(290.584 0 0)
(290.038 0 0)
(289.473 0 0)
(288.888 0 0)
(288.283 0 0)
(287.657 0 0)
(287.009 0 0)
(286.34 0 0)
(285.648 0 0)
(284.932 0 0)
(284.193 0 0)
(283.429 0 0)
(282.64 0 0)
(281.824 0 0)
(280.982 0 0)
(280.111 0 0)
(279.21 0 0)
(278.279 0 0)
(277.317 0 0)
(276.321 0 0)
(275.291 0 0)
(274.225 0 0)
(273.121 0 0)
(271.977 0 0)
(270.791 0 0)
(269.56 0 0)
(268.281 0 0)
(266.953 0 0)
(265.571 0 0)
(264.13 0 0)
(262.628 0 0)
(261.059 0 0)
(259.415 0 0)
(257.687 0 0)
(255.875 0 0)
(253.982 0 0)
(251.997 0 0)
(249.679 0 0)
(247.353 0 0)
(243.956 0 0)
(246.492 0 0)
(238.496 0 0)
(299.825 0 0)
(299.799 0 0)
(299.761 0 0)
(299.713 0 0)
(299.654 0 0)
(299.583 0 0)
(299.501 0 0)
(299.408 0 0)
(299.303 0 0)
(299.187 0 0)
(299.059 0 0)
(298.919 0 0)
(298.766 0 0)
(298.602 0 0)
(298.426 0 0)
(298.237 0 0)
(298.035 0 0)
(297.821 0 0)
(297.594 0 0)
(297.354 0 0)
(297.1 0 0)
(296.834 0 0)
(296.553 0 0)
(296.259 0 0)
(295.951 0 0)
(295.629 0 0)
(295.292 0 0)
(294.941 0 0)
(294.575 0 0)
(294.194 0 0)
(293.798 0 0)
(293.386 0 0)
(292.958 0 0)
(292.514 0 0)
(292.053 0 0)
(291.576 0 0)
(291.081 0 0)
(290.569 0 0)
(290.039 0 0)
(289.491 0 0)
(288.924 0 0)
(288.338 0 0)
(287.733 0 0)
(287.107 0 0)
(286.461 0 0)
(285.794 0 0)
(285.105 0 0)
(284.393 0 0)
(283.659 0 0)
(282.901 0 0)
(282.119 0 0)
(281.311 0 0)
(280.477 0 0)
(279.616 0 0)
(278.727 0 0)
(277.809 0 0)
(276.861 0 0)
(275.88 0 0)
(274.867 0 0)
(273.82 0 0)
(272.736 0 0)
(271.614 0 0)
(270.451 0 0)
(269.247 0 0)
(267.997 0 0)
(266.7 0 0)
(265.352 0 0)
(263.949 0 0)
(262.487 0 0)
(260.963 0 0)
(259.368 0 0)
(257.697 0 0)
(255.935 0 0)
(254.132 0 0)
(252.121 0 0)
(250.312 0 0)
(247.073 0 0)
(246.048 0 0)
(243.189 0 0)
(299.793 0 0)
(299.755 0 0)
(299.708 0 0)
(299.649 0 0)
(299.581 0 0)
(299.501 0 0)
(299.411 0 0)
(299.31 0 0)
(299.198 0 0)
(299.076 0 0)
(298.941 0 0)
(298.796 0 0)
(298.64 0 0)
(298.471 0 0)
(298.291 0 0)
(298.1 0 0)
(297.896 0 0)
(297.681 0 0)
(297.453 0 0)
(297.212 0 0)
(296.96 0 0)
(296.694 0 0)
(296.416 0 0)
(296.124 0 0)
(295.82 0 0)
(295.502 0 0)
(295.17 0 0)
(294.824 0 0)
(294.465 0 0)
(294.091 0 0)
(293.702 0 0)
(293.299 0 0)
(292.881 0 0)
(292.447 0 0)
(291.998 0 0)
(291.533 0 0)
(291.052 0 0)
(290.554 0 0)
(290.04 0 0)
(289.508 0 0)
(288.959 0 0)
(288.391 0 0)
(287.806 0 0)
(287.201 0 0)
(286.578 0 0)
(285.934 0 0)
(285.27 0 0)
(284.586 0 0)
(283.879 0 0)
(283.151 0 0)
(282.4 0 0)
(281.626 0 0)
(280.827 0 0)
(280.004 0 0)
(279.154 0 0)
(278.278 0 0)
(277.374 0 0)
(276.44 0 0)
(275.477 0 0)
(274.482 0 0)
(273.454 0 0)
(272.391 0 0)
(271.293 0 0)
(270.156 0 0)
(268.979 0 0)
(267.759 0 0)
(266.495 0 0)
(265.182 0 0)
(263.817 0 0)
(262.398 0 0)
(260.919 0 0)
(259.378 0 0)
(257.753 0 0)
(256.086 0 0)
(254.241 0 0)
(252.563 0 0)
(250.328 0 0)
(248.286 0 0)
(245.537 0 0)
(299.748 0 0)
(299.7 0 0)
(299.643 0 0)
(299.575 0 0)
(299.498 0 0)
(299.411 0 0)
(299.313 0 0)
(299.206 0 0)
(299.088 0 0)
(298.959 0 0)
(298.82 0 0)
(298.67 0 0)
(298.509 0 0)
(298.338 0 0)
(298.155 0 0)
(297.961 0 0)
(297.756 0 0)
(297.54 0 0)
(297.311 0 0)
(297.071 0 0)
(296.819 0 0)
(296.556 0 0)
(296.279 0 0)
(295.991 0 0)
(295.69 0 0)
(295.376 0 0)
(295.049 0 0)
(294.709 0 0)
(294.356 0 0)
(293.989 0 0)
(293.609 0 0)
(293.214 0 0)
(292.806 0 0)
(292.382 0 0)
(291.944 0 0)
(291.492 0 0)
(291.023 0 0)
(290.54 0 0)
(290.04 0 0)
(289.524 0 0)
(288.992 0 0)
(288.443 0 0)
(287.876 0 0)
(287.292 0 0)
(286.69 0 0)
(286.069 0 0)
(285.43 0 0)
(284.77 0 0)
(284.091 0 0)
(283.391 0 0)
(282.67 0 0)
(281.928 0 0)
(281.163 0 0)
(280.374 0 0)
(279.562 0 0)
(278.725 0 0)
(277.862 0 0)
(276.973 0 0)
(276.056 0 0)
(275.11 0 0)
(274.135 0 0)
(273.128 0 0)
(272.088 0 0)
(271.014 0 0)
(269.903 0 0)
(268.755 0 0)
(267.566 0 0)
(266.335 0 0)
(265.059 0 0)
(263.734 0 0)
(262.357 0 0)
(260.928 0 0)
(259.429 0 0)
(257.887 0 0)
(256.224 0 0)
(254.558 0 0)
(252.738 0 0)
(251.004 0 0)
(248.264 0 0)
(299.691 0 0)
(299.634 0 0)
(299.568 0 0)
(299.492 0 0)
(299.407 0 0)
(299.313 0 0)
(299.209 0 0)
(299.095 0 0)
(298.971 0 0)
(298.838 0 0)
(298.694 0 0)
(298.54 0 0)
(298.376 0 0)
(298.202 0 0)
(298.017 0 0)
(297.822 0 0)
(297.615 0 0)
(297.398 0 0)
(297.17 0 0)
(296.931 0 0)
(296.68 0 0)
(296.418 0 0)
(296.144 0 0)
(295.859 0 0)
(295.561 0 0)
(295.252 0 0)
(294.93 0 0)
(294.596 0 0)
(294.249 0 0)
(293.89 0 0)
(293.517 0 0)
(293.131 0 0)
(292.732 0 0)
(292.319 0 0)
(291.892 0 0)
(291.451 0 0)
(290.996 0 0)
(290.526 0 0)
(290.041 0 0)
(289.54 0 0)
(289.024 0 0)
(288.492 0 0)
(287.944 0 0)
(287.38 0 0)
(286.798 0 0)
(286.199 0 0)
(285.583 0 0)
(284.948 0 0)
(284.294 0 0)
(283.622 0 0)
(282.929 0 0)
(282.217 0 0)
(281.483 0 0)
(280.728 0 0)
(279.951 0 0)
(279.152 0 0)
(278.328 0 0)
(277.48 0 0)
(276.607 0 0)
(275.707 0 0)
(274.78 0 0)
(273.825 0 0)
(272.84 0 0)
(271.823 0 0)
(270.775 0 0)
(269.692 0 0)
(268.573 0 0)
(267.417 0 0)
(266.22 0 0)
(264.981 0 0)
(263.696 0 0)
(262.365 0 0)
(260.978 0 0)
(259.543 0 0)
(258.035 0 0)
(256.481 0 0)
(254.782 0 0)
(253.291 0 0)
(250.855 0 0)
(299.623 0 0)
(299.558 0 0)
(299.484 0 0)
(299.401 0 0)
(299.309 0 0)
(299.208 0 0)
(299.098 0 0)
(298.979 0 0)
(298.851 0 0)
(298.713 0 0)
(298.565 0 0)
(298.408 0 0)
(298.241 0 0)
(298.064 0 0)
(297.878 0 0)
(297.681 0 0)
(297.474 0 0)
(297.257 0 0)
(297.029 0 0)
(296.79 0 0)
(296.541 0 0)
(296.281 0 0)
(296.01 0 0)
(295.728 0 0)
(295.435 0 0)
(295.13 0 0)
(294.813 0 0)
(294.485 0 0)
(294.145 0 0)
(293.792 0 0)
(293.428 0 0)
(293.05 0 0)
(292.66 0 0)
(292.257 0 0)
(291.841 0 0)
(291.412 0 0)
(290.969 0 0)
(290.512 0 0)
(290.041 0 0)
(289.555 0 0)
(289.055 0 0)
(288.54 0 0)
(288.01 0 0)
(287.464 0 0)
(286.903 0 0)
(286.325 0 0)
(285.73 0 0)
(285.119 0 0)
(284.49 0 0)
(283.843 0 0)
(283.178 0 0)
(282.494 0 0)
(281.79 0 0)
(281.067 0 0)
(280.324 0 0)
(279.559 0 0)
(278.772 0 0)
(277.963 0 0)
(277.131 0 0)
(276.275 0 0)
(275.393 0 0)
(274.486 0 0)
(273.552 0 0)
(272.589 0 0)
(271.598 0 0)
(270.575 0 0)
(269.521 0 0)
(268.432 0 0)
(267.309 0 0)
(266.147 0 0)
(264.946 0 0)
(263.703 0 0)
(262.414 0 0)
(261.079 0 0)
(259.686 0 0)
(258.263 0 0)
(256.691 0 0)
(255.31 0 0)
(253.129 0 0)
(299.546 0 0)
(299.473 0 0)
(299.392 0 0)
(299.302 0 0)
(299.204 0 0)
(299.098 0 0)
(298.983 0 0)
(298.859 0 0)
(298.726 0 0)
(298.584 0 0)
(298.433 0 0)
(298.273 0 0)
(298.104 0 0)
(297.925 0 0)
(297.737 0 0)
(297.54 0 0)
(297.332 0 0)
(297.115 0 0)
(296.888 0 0)
(296.651 0 0)
(296.404 0 0)
(296.146 0 0)
(295.878 0 0)
(295.599 0 0)
(295.31 0 0)
(295.01 0 0)
(294.698 0 0)
(294.376 0 0)
(294.042 0 0)
(293.697 0 0)
(293.34 0 0)
(292.971 0 0)
(292.59 0 0)
(292.197 0 0)
(291.792 0 0)
(291.373 0 0)
(290.942 0 0)
(290.498 0 0)
(290.041 0 0)
(289.57 0 0)
(289.085 0 0)
(288.587 0 0)
(288.074 0 0)
(287.546 0 0)
(287.003 0 0)
(286.446 0 0)
(285.872 0 0)
(285.283 0 0)
(284.677 0 0)
(284.055 0 0)
(283.416 0 0)
(282.759 0 0)
(282.085 0 0)
(281.391 0 0)
(280.679 0 0)
(279.948 0 0)
(279.196 0 0)
(278.424 0 0)
(277.63 0 0)
(276.814 0 0)
(275.976 0 0)
(275.113 0 0)
(274.227 0 0)
(273.314 0 0)
(272.375 0 0)
(271.409 0 0)
(270.414 0 0)
(269.388 0 0)
(268.331 0 0)
(267.24 0 0)
(266.115 0 0)
(264.952 0 0)
(263.75 0 0)
(262.508 0 0)
(261.214 0 0)
(259.898 0 0)
(258.455 0 0)
(257.176 0 0)
(255.186 0 0)
(299.46 0 0)
(299.38 0 0)
(299.292 0 0)
(299.197 0 0)
(299.093 0 0)
(298.982 0 0)
(298.862 0 0)
(298.734 0 0)
(298.597 0 0)
(298.452 0 0)
(298.299 0 0)
(298.136 0 0)
(297.965 0 0)
(297.785 0 0)
(297.596 0 0)
(297.398 0 0)
(297.191 0 0)
(296.974 0 0)
(296.748 0 0)
(296.513 0 0)
(296.267 0 0)
(296.012 0 0)
(295.747 0 0)
(295.472 0 0)
(295.187 0 0)
(294.892 0 0)
(294.586 0 0)
(294.269 0 0)
(293.942 0 0)
(293.603 0 0)
(293.254 0 0)
(292.894 0 0)
(292.522 0 0)
(292.138 0 0)
(291.743 0 0)
(291.336 0 0)
(290.917 0 0)
(290.485 0 0)
(290.041 0 0)
(289.584 0 0)
(289.114 0 0)
(288.631 0 0)