/*--------------------------------*- C++ -*----------------------------------*\
| =========                 |                                                 |
| \\      /  F ield         | OpenFOAM: The Open Source CFD Toolbox           |
|  \\    /   O peration     | Version:  2312                                  |
|   \\  /    A nd           | Website:  www.openfoam.com                      |
|    \\/     M anipulation  |                                                 |
\*---------------------------------------------------------------------------*/
FoamFile
{
    version     2.0;
    format      ascii;
    arch        "LSB;label=32;scalar=64";
    class       surfaceScalarField;
    location    "0.817";
    object      phi;
}
// * * * * * * * * * * * * * * * * * * * * * * * * * * * * * * * * * * * * * //

dimensions      [0 3 -1 0 0 0 0];

oriented        oriented;

internalField   nonuniform List<scalar> 
62015
(
57.774
0.304039
-58.7472
56.7933
0.294329
55.8043
0.284543
54.8058
0.274688
53.7965
0.264771
52.775
0.254801
51.7396
0.244782
50.6883
0.234724
49.6189
0.224634
48.5289
0.214517
47.4152
0.204382
46.2743
0.194234
45.1022
0.184081
43.8939
0.173928
42.6439
0.163781
41.3456
0.153646
39.9913
0.14353
38.5729
0.13344
37.0828
0.123389
35.5183
0.113402
33.8897
0.103537
32.2293
0.0939037
30.5958
0.0846718
29.0647
0.0760401
27.7081
0.068176
26.5738
0.0611562
25.6768
0.0549512
25.004
0.0494512
24.526
0.0445098
24.2082
0.0399809
24.0179
0.0357382
23.9275
0.0316815
23.9153
0.0277355
23.9642
0.0238439
24.0616
0.0199665
24.1977
0.0160735
24.3654
0.0121439
24.5591
0.00816197
24.7745
0.00411668
25.0085
0
25.2584
-0.00419388
25.5224
-0.00846847
25.7987
-0.012827
26.0863
-0.0172703
26.3841
-0.0217994
26.6913
-0.0264141
27.0072
-0.0311142
27.3315
-0.0358981
27.6636
-0.0407651
28.0032
-0.045713
28.3501
-0.0507401
28.704
-0.0558442
29.0649
-0.0610229
29.4325
-0.0662738
29.8068
-0.0715939
30.1876
-0.0769804
30.575
-0.0824307
30.9689
-0.0879414
31.3692
-0.0935095
31.776
-0.0991314
32.1893
-0.104804
32.6089
-0.110524
33.0351
-0.116288
33.4677
-0.122092
33.9067
-0.127933
34.3523
-0.133807
34.8044
-0.139709
35.263
-0.145638
35.7281
-0.151588
36.1998
-0.157555
36.6781
-0.163537
37.163
-0.169528
37.6543
-0.175526
38.1528
-0.181525
38.6562
-0.187528
39.1713
-0.193502
39.6773
-0.199541
40.2385
-0.205331
-0.21184
40.6573
55.4477
0.592454
-56.3884
54.4992
0.573454
53.5426
0.554306
52.5767
0.535025
51.6002
0.515624
50.6117
0.496117
49.6094
0.476518
48.5915
0.456841
47.5557
0.4371
46.4994
0.417308
45.4198
0.397479
44.3132
0.377624
43.1757
0.357756
42.0024
0.337887
40.7879
0.318029
39.5255
0.298192
38.2082
0.278391
36.8284
0.258643
35.3805
0.238981
33.8655
0.219474
32.2991
0.200267
30.7195
0.181608
29.1874
0.163851
27.7735
0.147367
26.5391
0.132426
25.5198
0.119114
24.7215
0.107323
24.1269
0.0968191
23.707
0.0873184
23.4298
0.0785517
23.2662
0.0702907
23.1919
0.0623563
23.1876
0.0546131
23.2385
0.0469613
23.3334
0.0393276
23.4638
0.0316589
23.6231
0.0239164
23.8065
0.0160718
24.0102
0.00810465
24.2312
0
24.4672
-0.00825259
24.7164
-0.0166603
24.9775
-0.025228
25.2492
-0.0339584
25.5306
-0.0428524
25.821
-0.0519105
26.1199
-0.0611312
26.4267
-0.0705124
26.7411
-0.080052
27.0628
-0.0897463
27.3914
-0.0995916
27.7269
-0.109584
28.069
-0.119718
28.4176
-0.12999
28.7727
-0.140394
29.1342
-0.150925
29.5019
-0.161577
29.8759
-0.172344
30.2562
-0.183219
30.6427
-0.194197
31.0354
-0.205271
31.4343
-0.216434
31.8394
-0.227681
32.2507
-0.239002
32.6683
-0.250393
33.0921
-0.261845
33.5222
-0.273352
33.9586
-0.284906
34.4013
-0.296499
34.8502
-0.308125
35.3055
-0.319776
35.7671
-0.331444
36.2349
-0.343122
36.7095
-0.354798
37.189
-0.366483
37.6795
-0.378108
38.1617
-0.389854
38.6953
-0.401128
-0.413751
39.0984
53.1787
0.865456
-54.0886
52.2612
0.837572
51.3356
0.809474
50.4008
0.78118
49.4556
0.752711
48.4984
0.724087
47.5276
0.695328
46.5412
0.666455
45.5371
0.637487
44.5128
0.608443
43.4651
0.579341
42.3907
0.5502
41.2855
0.521038
40.1448
0.49187
38.9631
0.462714
37.7342
0.433589
36.4513
0.404515
35.1081
0.375529
33.7014
0.346696
32.2369
0.318153
30.7364
0.290165
29.2433
0.263152
27.8181
0.23764
26.525
0.214126
25.4132
0.192913
24.5067
0.174027
23.8034
0.157246
23.2834
0.142207
22.9185
0.128507
22.6798
0.115777
22.5415
0.103711
22.4825
0.0920687
22.4859
0.0806712
22.5389
0.0693849
22.6317
0.0581115
22.7567
0.0467794
22.9084
0.0353359
23.0822
0.0237421
23.2749
0.0119705
23.4838
0
23.7067
-0.0121835
23.9421
-0.02459
24.1887
-0.0372262
24.4455
-0.0500957
24.7115
-0.0632004
24.9862
-0.0765395
25.2689
-0.0901121
25.5593
-0.103915
25.8569
-0.117944
26.1615
-0.132195
26.473
-0.146662
26.7909
-0.161339
27.1153
-0.17622
27.446
-0.191297
27.7829
-0.206563
28.126
-0.222009
28.4752
-0.237628
28.8304
-0.253411
29.1916
-0.269349
29.5588
-0.285433
29.9321
-0.301653
30.3113
-0.318
30.6965
-0.334463
31.0877
-0.351034
31.4849
-0.367701
31.8881
-0.384454
32.2974
-0.401284
32.7127
-0.418179
33.134
-0.435128
33.5614
-0.452121
33.9949
-0.469147
34.4344
-0.486194
34.8799
-0.503254
35.3319
-0.520307
35.7886
-0.537368
36.2558
-0.554343
36.7155
-0.571483
37.223
-0.587951
-0.606325
37.6096
50.9825
1.12352
-51.8629
50.0946
1.08714
49.1987
1.05049
48.2936
1.01358
47.3781
0.976438
46.4507
0.939098
45.5098
0.901581
44.5534
0.863914
43.5793
0.826121
42.585
0.788227
41.5674
0.750255
40.5231
0.712227
39.4482
0.674167
38.3378
0.636096
37.1867
0.598037
35.989
0.560015
34.7385
0.522066
33.4306
0.484251
32.0652
0.446689
30.6533
0.40962
29.2228
0.373462
27.8207
0.338814
26.5057
0.306354
25.333
0.276637
24.3402
0.249923
23.5406
0.226129
22.926
0.204899
22.4748
0.185746
22.1606
0.168171
21.9573
0.151726
21.8425
0.13605
21.7977
0.120859
21.8084
0.105943
21.8635
0.091142
21.9544
0.0763409
22.0747
0.0614534
22.2193
0.0464163
22.3844
0.031183
22.5668
0.0157192
22.7644
0
22.9752
-0.0159922
23.1977
-0.0322697
23.4308
-0.0488405
23.6735
-0.0657089
23.9251
-0.082877
24.1849
-0.100344
24.4525
-0.118109
24.7273
-0.136166
25.0092
-0.154512
25.2978
-0.17314
25.5929
-0.192043
25.8944
-0.211214
26.2021
-0.230642
26.5158
-0.250321
26.8356
-0.270239
27.1612
-0.290386
27.4928
-0.310752
27.8302
-0.331325
28.1734
-0.352094
28.5224
-0.373047
28.8772
-0.394172
29.2378
-0.415457
29.6041
-0.436888
29.9762
-0.458453
30.3541
-0.480139
30.7378
-0.501932
31.1273
-0.52382
31.5226
-0.545787
31.9237
-0.56782
32.3306
-0.589905
32.7433
-0.612029
33.162
-0.634176
33.5863
-0.656335
34.0168
-0.678481
34.4519
-0.700633
34.8969
-0.72267
35.3351
-0.744911
35.818
-0.766298
-0.790087
36.1884
48.8652
1.36721
-49.7172
48.0057
1.32271
47.1382
1.27787
46.2616
1.23272
45.3746
1.1873
44.4757
1.14162
43.5634
1.09573
42.6355
1.04966
41.69
1.00342
40.7242
0.957062
39.7352
0.910601
38.7195
0.864068
37.6732
0.817489
36.5916
0.770891
35.4695
0.724303
34.3015
0.677763
33.0824
0.631326
31.8097
0.585094
30.4873
0.539268
29.1315
0.494223
27.7758
0.450555
26.4686
0.409038
25.2644
0.370444
24.2087
0.335316
23.328
0.30381
22.6268
0.275696
22.0924
0.250485
21.703
0.227584
21.4339
0.206412
21.2622
0.186472
21.1682
0.16736
21.136
0.148766
21.1531
0.130456
21.21
0.112255
21.2991
0.0940334
21.4149
0.075695
21.5529
0.0571686
21.7097
0.0384015
21.8827
0.0193547
22.0697
0
22.2691
-0.0196829
22.4795
-0.039708
22.6999
-0.0600843
22.9295
-0.080817
23.1675
-0.101908
23.4133
-0.123357
23.6666
-0.14516
23.9268
-0.167313
24.1938
-0.189811
24.4673
-0.212645
24.7471
-0.235807
25.0329
-0.259288
25.3248
-0.283076
25.6225
-0.307162
25.926
-0.331532
26.2352
-0.356175
26.5501
-0.381078
26.8706
-0.406227
27.1968
-0.431608
27.5285
-0.457207
27.8658
-0.483008
28.2087
-0.508998
28.5571
-0.53516
28.9111
-0.561479
29.2707
-0.58794
29.6358
-0.614524
30.0065
-0.641218
30.3828
-0.668002
30.7647
-0.694862
31.1522
-0.72178
31.5453
-0.748739
31.944
-0.77572
32.3481
-0.802711
32.7583
-0.82968
33.1728
-0.856651
33.5968
-0.88348
34.0145
-0.910544
34.4742
-0.936585
-0.965479
34.8285
46.8276
1.59707
-47.6522
45.9954
1.54481
45.1553
1.49215
44.3061
1.43913
43.4465
1.38578
42.5751
1.33214
41.6901
1.27825
40.7896
1.22413
39.8714
1.16982
38.9329
1.11536
37.9712
1.06077
36.9828
1.0061
35.9637
0.951361
34.9096
0.896596
33.8154
0.841842
32.6763
0.787152
31.4885
0.732613
30.2521
0.67839
28.9754
0.624798
27.6803
0.572378
26.4038
0.521914
25.1942
0.474316
24.0994
0.430388
23.1552
0.390587
22.3779
0.354917
21.7654
0.322993
21.3023
0.294199
20.9673
0.267854
20.7378
0.243327
20.5936
0.220081
20.5177
0.197689
20.4963
0.175825
20.5188
0.154238
20.5769
0.132745
20.6641
0.111205
20.7755
0.0895167
20.9072
0.0676021
21.0563
0.0454042
21.2203
0.0228804
21.3974
0
21.586
-0.0232593
21.7851
-0.0469128
21.9936
-0.0709701
22.2108
-0.095437
22.436
-0.120315
22.6687
-0.145604
22.9085
-0.171299
23.155
-0.197396
23.4079
-0.223887
23.6671
-0.250764
23.9324
-0.278016
24.2035
-0.305632
24.4804
-0.333601
24.7629
-0.361908
25.051
-0.390542
25.3447
-0.419486
25.6438
-0.448726
25.9484
-0.478246
26.2583
-0.50803
26.5737
-0.538061
26.8944
-0.568322
27.2205
-0.598796
27.5519
-0.629464
27.8887
-0.660308
28.2309
-0.69131
28.5784
-0.722451
28.9313
-0.753712
29.2896
-0.785073
29.6532
-0.816515
30.0222
-0.848018
30.3966
-0.879563
30.7763
-0.911127
31.1614
-0.942696
31.5521
-0.974234
31.9471
-1.00577
32.351
-1.03713
32.7492
-1.06875
33.1869
-1.0992
-1.1329
33.5258
44.8683
1.81363
-45.6665
44.0625
1.75396
43.2488
1.69383
42.426
1.63328
41.5928
1.57237
40.7476
1.51111
39.8889
1.44956
39.0147
1.38775
38.1228
1.32572
37.2105
1.26351
36.2749
1.20115
35.3126
1.13868
34.3198
1.07613
33.292
1.01354
32.2249
0.950974
31.1144
0.888498
29.9585
0.826251
28.7604
0.76449
27.5332
0.703676
26.3033
0.644537
25.1101
0.58803
23.9989
0.535146
23.0103
0.486644
22.1704
0.442838
21.4873
0.403553
20.9539
0.36825
20.5536
0.336206
20.2659
0.30668
20.0707
0.279001
19.9502
0.252615
19.8898
0.227083
19.8777
0.202068
19.9046
0.177315
19.9634
0.152631
20.0485
0.127872
20.1556
0.102931
20.2813
0.0777261
20.4229
0.0521972
20.5785
0.0262996
20.7462
0
20.9248
-0.0267249
21.1131
-0.0538911
21.3104
-0.0815094
21.5159
-0.109585
21.7291
-0.13812
21.9494
-0.167113
22.1764
-0.196559
22.4099
-0.226454
22.6497
-0.256787
22.8954
-0.287549
23.1469
-0.318729
23.4041
-0.350314
23.6668
-0.382291
23.935
-0.414645
24.2086
-0.447359
24.4874
-0.480419
24.7716
-0.513806
25.061
-0.547503
25.3557
-0.581491
25.6555
-0.615752
25.9605
-0.650266
26.2706
-0.685013
26.586
-0.719973
26.9065
-0.755126
27.2321
-0.790449
27.5629
-0.825923
27.8989
-0.861525
28.24
-0.897233
28.5863
-0.933026
28.9377
-0.96888
29.2943
-1.00477
29.6561
-1.04068
30.0229
-1.07659
30.3952
-1.11245
30.7716
-1.1483
31.1565
-1.18396
31.5361
-1.21989
31.9529
-1.25451
-1.29273
32.277
42.9848
2.0174
-43.7575
42.2045
1.95064
41.4163
1.88338
40.6189
1.81565
39.811
1.74749
38.9912
1.67896
38.1578
1.61009
37.3089
1.54093
36.4421
1.47151
35.5549
1.40188
34.6445
1.33208
33.7073
1.26214
32.7397
1.19211
31.7377
1.12204
30.6972
1.052
29.6154
0.982111
28.4925
0.912571
27.3356
0.843763
26.162
0.776325
25.0018
0.711176
23.8945
0.649403
22.8811
0.59201
21.9938
0.53964
21.2503
0.492419
20.6521
0.449987
20.1887
0.411666
19.8432
0.376653
19.5965
0.344163
19.4309
0.313509
19.3308
0.284129
19.2836
0.255582
19.2792
0.227529
19.3096
0.199711
19.3686
0.171934
19.4515
0.14405
19.5543
0.11595
19.6742
0.0875498
19.8088
0.0587871
19.9563
0.0296152
20.1152
0
20.2843
-0.030083
20.4626
-0.0606506
20.6493
-0.0917134
20.8438
-0.123277
21.0455
-0.155343
21.2541
-0.18791
21.4692
-0.220972
21.6904
-0.254523
21.9177
-0.288553
22.1506
-0.323051
22.3892
-0.358005
22.6332
-0.3934
22.8825
-0.429221
23.1371
-0.465452
23.3969
-0.502075
23.6618
-0.539073
23.9319
-0.576426
24.2069
-0.614115
24.487
-0.652118
24.7721
-0.690416
25.0622
-0.728987
25.3573
-0.767808
25.6573
-0.806857
25.9623
-0.846111
26.2723
-0.885547
26.5872
-0.925141
26.9071
-0.96487
27.2319
-1.00471
27.5617
-1.04463
27.8965
-1.08461
28.2362
-1.12463
28.5809
-1.16466
28.9304
-1.20468
29.2852
-1.24464
29.6439
-1.28458
30.0107
-1.32429
30.3726
-1.3643
30.7695
-1.40286
-1.44534
31.0794
41.1744
2.20885
-41.9225
40.4187
2.13533
39.655
2.06125
38.8821
1.98665
38.0987
1.91158
37.3033
1.8361
36.4942
1.76023
35.6695
1.68403
34.827
1.60755
33.964
1.53082
33.0776
1.45389
32.1647
1.37681
31.2215
1.29962
30.2445
1.22239
29.2305
1.14523
28.1781
1.0683
27.0903
0.991914
25.9778
0.916601
24.8622
0.843195
23.7754
0.772784
22.7555
0.706527
21.8374
0.645364
21.0457
0.589761
20.3902
0.539634
19.8678
0.494448
19.4659
0.453411
19.168
0.415662
18.9569
0.380393
18.8167
0.346916
18.7341
0.314672
18.6981
0.283223
18.7001
0.252235
18.7332
0.221449
18.792
0.190671
18.8724
0.159754
18.9711
0.128586
19.0854
0.0970822
19.2134
0.0651797
19.3533
0.0328306
19.5038
0
19.6638
-0.0333372
19.8326
-0.067198
20.0093
-0.101593
20.1934
-0.136528
20.3845
-0.172005
20.582
-0.208019
20.7858
-0.244568
20.9954
-0.281641
21.2108
-0.319228
21.4317
-0.357319
21.658
-0.395898
21.8896
-0.434951
22.1262
-0.47446
22.368
-0.514408
22.6148
-0.554775
22.8665
-0.595543
23.1231
-0.63669
23.3845
-0.678194
23.6509
-0.720033
23.922
-0.762185
24.1979
-0.804625
24.4787
-0.847331
24.7642
-0.890276
25.0545
-0.933436
25.3496
-0.976786
25.6494
-1.0203
25.954
-1.06395
26.2634
-1.10771
26.5776
-1.15156
26.8965
-1.19546
27.2201
-1.23939
27.5486
-1.28332
27.8817
-1.32724
28.2198
-1.37108
28.5617
-1.41488
28.9112
-1.45844
29.2564
-1.5023
29.6345
-1.54459
-1.59108
29.9308
39.4342
2.38843
-40.1586
38.7023
2.30846
37.9622
2.22787
37.2129
2.14671
36.4531
2.06504
35.6811
1.9829
34.8955
1.90035
34.0941
1.81742
33.2748
1.73418
32.435
1.65065
31.572
1.5669
30.6824
1.48298
29.763
1.39894
28.8108
1.31489
27.8234
1.23096
26.8016
1.1474
25.7513
1.06465
24.6871
0.98343
23.6334
0.904761
22.623
0.82986
21.6902
0.759883
20.8638
0.695629
20.1608
0.637349
19.5851
0.584748
19.1299
0.537134
18.7819
0.493629
18.5254
0.453337
18.3448
0.415447
18.2265
0.37928
18.1588
0.344287
18.1323
0.310041
18.1395
0.276213
18.1746
0.24255
18.2329
0.208861
18.3108
0.174997
18.4054
0.140849
18.5144
0.106332
18.6359
0.0713811
18.7686
0.0359489
18.9112
0
19.0628
-0.0364908
19.2225
-0.0735407
19.3898
-0.11116
19.5641
-0.149354
19.7451
-0.188124
19.9322
-0.227467
20.1252
-0.267376
20.324
-0.307842
20.5282
-0.348855
20.7377
-0.390401
20.9524
-0.432464
21.1722
-0.475029
21.3969
-0.518077
21.6265
-0.561588
21.8609
-0.605543
22.1001
-0.64992
22.344
-0.694696
22.5926
-0.739848
22.8458
-0.785353
23.1037
-0.831184
23.3662
-0.877318
23.6334
-0.923727
23.9052
-0.970385
24.1815
-1.01727
24.4625
-1.06434
24.748
-1.11158
25.0381
-1.15896
25.3328
-1.20645
25.6321
-1.25402
25.9359
-1.30165
26.2444
-1.34929
26.5574
-1.39692
26.8748
-1.44453
27.1971
-1.49204
27.523
-1.53951
27.8562
-1.5867
28.1853
-1.63419
28.5455
-1.68003
-1.73029
28.829
37.7617
2.55659
-38.4632
37.0526
2.47045
36.3354
2.38364
35.6088
2.29622
34.8716
2.20824
34.1222
2.11974
33.3591
2.03079
32.5801
1.94143
31.7832
1.85171
30.9658
1.76169
30.1251
1.67141
29.2583
1.58095
28.3622
1.49037
27.4346
1.39982
26.4746
1.30949
25.4852
1.21974
24.4755
1.13117
23.4633
1.04471
22.4752
0.961523
21.5425
0.882905
20.6954
0.809927
19.9559
0.74319
19.3344
0.682709
18.8302
0.627989
18.4342
0.578212
18.1332
0.532442
17.9125
0.489769
17.7583
0.449394
17.6587
0.410652
17.6037
0.373015
17.5852
0.336067
17.5967
0.29949
17.6333
0.263037
17.6908
0.22652
17.7661
0.189796
17.8566
0.152753
17.9605
0.115308
18.0759
0.0773973
18.2018
0.038973
18.3369
0
18.4804
-0.0395469
18.6317
-0.0796849
18.7901
-0.120424
18.9552
-0.161769
19.1265
-0.203721
19.3038
-0.246275
19.4868
-0.289425
19.6752
-0.333162
19.8689
-0.377472
20.0677
-0.422341
20.2714
-0.467754
20.48
-0.513692
20.6934
-0.560136
20.9115
-0.607066
21.1342
-0.654458
21.3615
-0.702291
21.5933
-0.750541
21.8297
-0.799182
22.0706
-0.848188
22.316
-0.897534
22.5658
-0.947192
22.82
-0.997134
23.0787
-1.04733
23.3418
-1.09776
23.6094
-1.14838
23.8813
-1.19917
24.1577
-1.25009
24.4384
-1.30113
24.7236
-1.35224
25.0131
-1.40339
25.3071
-1.45455
25.6054
-1.5057
25.908
-1.5568
26.2152
-1.6078
26.5259
-1.65873
26.8436
-1.70936
27.1575
-1.76029
27.5006
-1.80947
-1.86327
27.7718
36.1543
2.71374
-36.8336
35.4672
2.62171
34.7718
2.52897
34.0671
2.43556
33.3517
2.34155
32.6241
2.24698
31.8825
2.15191
31.1252
2.05639
30.3498
1.96048
29.5539
1.86423
28.735
1.76771
27.8903
1.67099
27.0173
1.57419
26.1146
1.47748
25.1831
1.38115
24.2283
1.28571
23.2625
1.19193
22.3061
1.10092
21.3861
1.01399
20.5316
0.932407
19.7672
0.857086
19.1088
0.788392
18.5615
0.726103
18.1209
0.669552
17.777
0.617826
17.5168
0.569955
17.3271
0.525036
17.1956
0.48229
17.1121
0.441078
17.0679
0.400891
17.056
0.36133
17.0711
0.322088
17.1085
0.282928
17.165
0.243666
17.2376
0.204161
17.3243
0.164306
17.4232
0.124018
17.5329
0.0832337
17.6522
0.041906
17.7803
0
17.9162
-0.042509
18.0595
-0.0856376
18.2095
-0.129396
18.3659
-0.173788
18.5282
-0.218813
18.6962
-0.264468
18.8697
-0.310744
19.0483
-0.357631
19.232
-0.405117
19.4206
-0.453184
19.614
-0.501817
19.812
-0.550996
20.0147
-0.6007
20.2219
-0.650908
20.4335
-0.701596
20.6496
-0.75274
20.8701
-0.804314
21.0949
-0.856292
21.324
-0.908646
21.5575
-0.961349
21.7952
-1.01437
22.0373
-1.06768
22.2836
-1.12126
22.5341
-1.17506
22.7889
-1.22906
23.048
-1.28322
23.3112
-1.33752
23.5788
-1.39192
23.8505
-1.44639
24.1264
-1.5009
24.4066
-1.5554
24.691
-1.60988
24.9795
-1.66429
25.2724
-1.71858
25.5686
-1.7728
25.8715
-1.82668
26.171
-1.88086
26.4979
-1.93321
-1.99034
26.7574
34.6094
2.86029
-35.2674
33.9435
2.76264
33.2693
2.66423
32.5856
2.5651
31.8911
2.46532
31.1844
2.36494
30.4636
2.26402
29.727
2.16261
28.9723
2.06077
28.1973
1.95857
27.3995
1.85608
26.5765
1.75341
25.7266
1.6507
24.8496
1.5482
23.9483
1.44631
23.0308
1.34572
22.1124
1.24739
21.2149
1.15258
20.3647
1.06268
19.5871
0.978828
18.9015
0.901746
18.318
0.831535
17.8374
0.767757
17.4532
0.709602
17.1548
0.656095
16.93
0.606258
16.767
0.559207
16.6551
0.51419
16.5853
0.470599
16.5503
0.427948
16.544
0.385857
16.5618
0.344031
16.5998
0.302242
16.655
0.260313
16.7251
0.218108
16.8079
0.175521
16.9021
0.13247
17.0063
0.0888959
17.1195
0.0447504
17.2408
0
17.3696
-0.0453796
17.5053
-0.0914047
17.6474
-0.138084
17.7955
-0.185422
17.9494
-0.233418
18.1086
-0.282066
18.273
-0.331358
18.4425
-0.381283
18.6168
-0.431826
18.7957
-0.482972
18.9793
-0.534701
19.1674
-0.586994
19.3599
-0.639829
19.5568
-0.693183
19.7579
-0.74703
19.9634
-0.801346
20.173
-0.856103
20.3869
-0.911274
20.6049
-0.966829
20.8271
-1.02274
21.0534
-1.07897
21.2838
-1.1355
21.5183
-1.19229
21.7569
-1.24931
21.9997
-1.30653
22.2465
-1.36391
22.4973
-1.42141
22.7523
-1.47902
23.0113
-1.53668
23.2743
-1.59436
23.5414
-1.65204
23.8125
-1.70967
24.0875
-1.76722
24.3668
-1.82464
24.6494
-1.88196
24.9382
-1.93892
25.2239
-1.99617
25.5354
-2.05152
-2.11178
25.7838
33.1246
2.99662
-33.7622
32.4791
2.8936
31.8253
2.78977
31.1618
2.68518
30.4875
2.57989
29.8008
2.47395
29.1001
2.36743
28.3834
2.26039
27.6488
2.15288
26.894
2.04499
26.1168
1.93682
25.3155
1.82848
24.489
1.7202
23.6387
1.6123
22.7696
1.50536
21.8926
1.40022
21.0247
1.29806
20.1886
1.20023
19.4085
1.10807
18.7056
1.0226
18.0939
0.94425
17.5787
0.872881
17.1578
0.807861
16.8232
0.748279
16.5645
0.693124
16.3704
0.641428
16.2304
0.592339
16.1353
0.545139
16.0773
0.499252
16.05
0.454216
16.0484
0.409672
16.0684
0.365339
16.1066
0.320997
16.1604
0.276477
16.2278
0.231648
16.307
0.186405
16.3966
0.140673
16.4956
0.094389
16.6029
0.0475092
16.7179
0
16.84
-0.048162
16.9685
-0.0969923
17.1032
-0.1465
17.2435
-0.196687
17.3893
-0.247553
17.5403
-0.299091
17.6962
-0.351293
17.8569
-0.404146
18.0223
-0.457635
18.1922
-0.511744
18.3665
-0.566451
18.5451
-0.621738
18.728
-0.677579
18.9151
-0.733951
19.1064
-0.790829
19.3017
-0.848184
19.5011
-0.905989
19.7046
-0.964215
19.9121
-1.02283
20.1235
-1.08181
20.339
-1.14111
20.5584
-1.20071
20.7818
-1.26057
21.0091
-1.32065
21.2403
-1.38093
21.4755
-1.44137
21.7146
-1.50193
21.9576
-1.56258
22.2044
-1.62327
22.4552
-1.68398
22.7099
-1.74467
22.9684
-1.80529
23.2307
-1.86582
23.497
-1.9262
23.7665
-1.98645
24.042
-2.04632
24.3146
-2.10648
24.6115
-2.16466
-2.22786
24.8492
31.6978
3.1231
-32.3157
31.0719
3.01496
30.4376
2.90596
29.7936
2.79615
29.1387
2.68558
28.4713
2.57433
27.7898
2.46246
27.0924
2.35002
26.3772
2.2371
25.6421
2.12378
24.8853
2.01019
24.1056
1.8965
23.3033
1.78301
22.4813
1.67018
21.647
1.55874
20.8134
1.44973
19.999
1.34447
19.2258
1.24437
18.515
1.15066
17.8833
1.06411
17.34
0.984899
16.8867
0.912649
16.5187
0.846577
16.2276
0.785699
16.0034
0.728998
15.8358
0.675532
15.7156
0.624485
15.6349
0.575179
15.587
0.52707
15.5663
0.479724
15.5685
0.4328
15.5902
0.386032
15.6283
0.33921
15.6806
0.292173
15.7454
0.244792
15.821
0.196971
15.9063
0.148632
16.0003
0.0997182
16.1021
0.0501849
16.2111
0
16.3268
-0.0508589
16.4486
-0.102406
16.5762
-0.15465
16.7092
-0.207593
16.8474
-0.261233
16.9905
-0.315563
17.1384
-0.370573
17.2909
-0.426249
17.4479
-0.482577
17.6092
-0.539538
17.7747
-0.597111
17.9444
-0.655275
18.1182
-0.714004
18.2961
-0.773274
18.4779
-0.833058
18.6637
-0.893327
18.8534
-0.954052
19.047
-1.0152
19.2445
-1.07675
19.4458
-1.13865
19.651
-1.20089
19.86
-1.26341
20.0727
-1.3262
20.2893
-1.38921
20.5097
-1.45241
20.7338
-1.51576
20.9617
-1.57922
21.1933
-1.64276
21.4287
-1.70634
21.6678
-1.76992
21.9106
-1.83346
22.1572
-1.89692
22.4073
-1.96028
22.6614
-2.02345
22.9185
-2.08649
23.1812
-2.14912
23.4414
-2.21202
23.7244
-2.27288
-2.33885
23.9519
30.3266
3.24008
-30.9255
29.7196
3.12706
29.1041
3.01311
28.4788
2.89831
27.8425
2.7827
27.1937
2.66637
26.5308
2.54937
25.8521
2.43178
25.1557
2.31369
24.4399
2.19521
23.7034
2.07649
22.9459
1.9578
22.1688
1.83951
21.3771
1.72224
20.5803
1.60692
19.793
1.49475
19.0343
1.38716
18.3243
1.28551
17.6809
1.19086
17.1163
1.10369
16.6357
1.02394
16.2377
0.951023
15.9164
0.884035
15.6633
0.82196
15.4689
0.763792
15.3243
0.708627
15.2212
0.655691
15.1529
0.604348
15.1135
0.554086
15.0984
0.504498
15.1038
0.455264
15.1266
0.406129
15.1644
0.356897
15.2152
0.307413
15.2773
0.257554
15.3495
0.207226
15.4307
0.156357
15.5199
0.104889
15.6165
0.05278
15.7199
-1.06719e-07
15.8295
-0.0534728
15.9449
-0.107652
16.0659
-0.162546
16.192
-0.218154
16.323
-0.274475
16.4587
-0.331501
16.5991
-0.389221
16.7438
-0.44762
16.8928
-0.506684
17.0459
-0.566391
17.2032
-0.626722
17.3644
-0.687652
17.5296
-0.749156
17.6987
-0.811209
17.8717
-0.873781
18.0484
-0.936844
18.2289
-1.00037
18.4132
-1.06432
18.6012
-1.12866
18.7929
-1.19337
18.9883
-1.2584
19.1873
-1.32373
19.3901
-1.38931
19.5964
-1.45511
19.8064
-1.52109
20.0201
-1.58721
20.2373
-1.65344
20.4582
-1.71973
20.6826
-1.78605
20.9106
-1.85235
21.1422
-1.91861
21.3774
-1.98476
21.616
-2.05079
21.8584
-2.11662
22.1037
-2.18229
22.3543
-2.24753
22.6027
-2.31302
22.8725
-2.37642
-2.44499
23.0903
29.009
3.34792
-29.5896
28.4202
3.23022
27.8227
3.11155
27.2154
2.99197
26.597
2.87155
25.9661
2.75036
25.3212
2.62847
24.6605
2.50596
23.9826
2.38294
23.286
2.25957
22.57
2.13604
21.8354
2.0127
21.0851
1.89007
20.3259
1.76894
19.5693
1.65041
18.8309
1.53584
18.1291
1.42667
17.4817
1.32413
16.9028
1.22905
16.4004
1.14165
15.9765
1.0616
15.6278
0.988155
15.3476
0.920347
15.1275
0.857143
14.959
0.797569
14.8341
0.740763
14.7458
0.685998
14.688
0.632679
14.656
0.580328
14.6455
0.528563
14.6535
0.477083
14.6772
0.425649
14.7145
0.374075
14.7637
0.322212
14.8233
0.269944
14.8921
0.217181
14.9693
0.163852
15.0541
0.109905
15.1457
0.055297
15.2437
0
15.3476
-0.0560068
15.457
-0.112736
15.5717
-0.170194
15.6912
-0.228381
15.8155
-0.287294
15.9443
-0.346923
16.0774
-0.407259
16.2148
-0.468286
16.3563
-0.529986
16.5017
-0.592339
16.6511
-0.655323
16.8044
-0.718914
16.9615
-0.783085
17.1223
-0.84781
17.2868
-0.913058
17.4549
-0.9788
17.6267
-1.045
17.8021
-1.11164
17.9811
-1.17866
18.1637
-1.24605
18.3498
-1.31376
18.5395
-1.38175
18.7327
-1.45
18.9293
-1.51846
19.1295
-1.58709
19.3332
-1.65586
19.5403
-1.72471
19.7509
-1.79362
19.965
-1.86255
20.1825
-1.93144
20.4034
-2.00027
20.6278
-2.06898
20.8555
-2.13754
21.0867
-2.20589
21.3208
-2.27405
21.5599
-2.34176
21.797
-2.4097
22.0542
-2.4755
-2.5465
22.2629
27.7428
3.44692
-28.3059
27.1715
3.32476
26.5914
3.20158
26.0014
3.07744
25.4003
2.95241
24.7867
2.82657
24.1591
2.70001
23.5161
2.57282
22.8564
2.44513
22.179
2.31715
21.484
2.18915
20.7734
2.06159
20.0517
1.93514
19.3276
1.81078
18.6138
1.68977
17.9261
1.57355
17.2816
1.4635
16.695
1.36066
16.1768
1.26558
15.7315
1.17822
15.3587
1.09804
15.0535
1.02417
14.8092
0.955601
14.6178
0.891317
14.4717
0.830382
14.3639
0.771983
14.2882
0.715442
14.2395
0.660203
14.2137
0.605822
14.2072
0.551941
14.2172
0.498278
14.2415
0.444609
14.2781
0.390757
14.3256
0.336582
14.3827
0.281973
14.4484
0.226843
14.5218
0.171127
14.6023
0.114771
14.6892
0.0577383
14.7822
0
14.8807
-0.0584629
14.9844
-0.117662
15.0931
-0.177602
15.2065
-0.238284
15.3243
-0.299703
15.4465
-0.361849
15.5729
-0.42471
15.7033
-0.48827
15.8377
-0.552512
15.9759
-0.617414
16.1179
-0.682952
16.2635
-0.749103
16.4129
-0.815838
16.5658
-0.883129
16.7223
-0.950946
16.8824
-1.01926
17.0459
-1.08803
17.2129
-1.15723
17.3834
-1.22682
17.5573
-1.29677
17.7346
-1.36704
17.9154
-1.43759
18.0995
-1.50838
18.287
-1.57938
18.4778
-1.65054
18.672
-1.72182
18.8696
-1.79318
19.0704
-1.86458
19.2746
-1.93598
19.4821
-2.00734
19.6929
-2.0786
19.907
-2.14974
20.1242
-2.22071
20.3449
-2.29144
20.5683
-2.36196
20.7965
-2.43201
21.0229
-2.50225
21.2682
-2.57034
-2.64363
21.468
26.5262
3.53741
-27.0724
25.9716
3.41098
25.4083
3.28349
24.835
3.15499
24.2506
3.02556
23.6537
2.89529
23.0431
2.76428
22.4174
2.63264
21.7757
2.50055
21.1178
2.36827
20.4446
2.23619
19.7595
2.10487
19.0685
1.97519
18.3819
1.8483
17.713
1.72556
17.0772
1.60842
16.4893
1.49812
15.961
1.39547
15.4992
1.30073
15.1058
1.21361
14.7784
1.1334
14.5116
1.05916
14.2985
0.989872
14.1321
0.924539
14.0053
0.862277
13.9122
0.802327
13.8474
0.744056
13.8065
0.686949
13.7859
0.630593
13.7827
0.574654
13.7943
0.518868
13.8189
0.463026
13.8547
0.406959
13.9005
0.350536
13.9552
0.293651
14.0178
0.236222
14.0877
0.178186
14.1641
0.119493
14.2466
0.0601062
14.3347
0
14.4281
-0.0608438
14.5265
-0.122436
14.6296
-0.18478
14.7371
-0.247876
14.8489
-0.311717
14.9649
-0.376294
15.0849
-0.441593
15.2087
-0.507599
15.3363
-0.574291
15.4677
-0.641648
15.6026
-0.709647
15.7412
-0.77826
15.8832
-0.84746
16.0287
-0.917217
16.1776
-0.9875
16.33
-1.05828
16.4857
-1.12951
16.6447
-1.20118
16.8071
-1.27323
16.9728
-1.34563
17.1418
-1.41834
17.314
-1.49133
17.4896
-1.56455
17.6683
-1.63797
17.8503
-1.71153
18.0355
-1.78521
18.224
-1.85896
18.4156
-1.93273
18.6104
-2.00649
18.8084
-2.08018
19.0095
-2.15377
19.2138
-2.22721
19.4211
-2.30045
19.6318
-2.37344
19.845
-2.4462
20.0628
-2.51846
20.279
-2.59089
20.5129
-2.66113
-2.73656
20.7044
25.3571
3.61969
-25.8871
24.8187
3.48918
24.2715
3.35756
23.7143
3.2249
23.146
3.09127
22.5654
2.95678
21.9714
2.82154
21.3628
2.68571
20.7394
2.54951
20.1015
2.41329
19.4513
2.27754
18.7934
2.14303
18.1354
2.01076
17.4885
1.88205
16.8662
1.75832
16.2824
1.64094
15.7494
1.53095
15.276
1.42888
14.8661
1.33472
14.5193
1.24797
14.2322
1.1678
13.999
1.09322
13.8132
1.02322
13.6683
0.956857
13.5583
0.893296
13.4778
0.831829
13.4223
0.77187
13.3881
0.712944
13.372
0.654664
13.3715
0.596723
13.3844
0.538872
13.4091
0.480916
13.444
0.422695
13.4881
0.364086
13.5404
0.304989
13.6001
0.245326
13.6665
0.185036
13.7391
0.124073
13.8174
0.062403
13.901
0
13.9896
-0.0631519
14.0829
-0.127062
14.1806
-0.191734
14.2826
-0.257165
14.3888
-0.323349
14.4989
-0.390275
14.6128
-0.457929
14.7304
-0.526294
14.8517
-0.59535
14.9765
-0.665073
15.1048
-0.73544
15.2365
-0.806423
15.3717
-0.877994
15.5101
-0.950121
15.6519
-1.02277
15.7969
-1.09592
15.9452
-1.16952
16.0967
-1.24354
16.2514
-1.31794
16.4093
-1.39269
16.5704
-1.46774
16.7346
-1.54306
16.9019
-1.6186
17.0724
-1.69433
17.246
-1.77019
17.4226
-1.84616
17.6024
-1.92218
17.7852
-1.99821
17.9711
-2.0742
18.1601
-2.15012
18.352
-2.22591
18.547
-2.30153
18.745
-2.37694
18.946
-2.45206
19.1496
-2.52694
19.3575
-2.60129
19.564
-2.67579
19.7872
-2.74807
-2.82551
19.9706
24.2338
3.69403
-24.7481
23.711
3.55963
23.1794
3.42407
22.6377
3.28744
22.0851
3.14981
21.5204
3.0113
20.9427
2.87207
20.3513
2.73232
19.7465
2.59233
19.1295
2.45257
18.5037
2.31367
17.8749
2.17655
17.2521
2.0424
16.6468
1.91262
16.0718
1.78862
15.5393
1.6716
15.059
1.56237
14.6366
1.46117
14.2738
1.36775
13.9687
1.28143
13.7171
1.20132
13.5132
1.1264
13.351
1.05569
13.2248
0.988312
13.1292
0.923472
13.0596
0.860519
13.0122
0.798912
12.9837
0.73821
12.9714
0.678058
12.9731
0.618166
12.987
0.558307
13.0116
0.498293
13.0456
0.437978
13.088
0.377244
13.138
0.315996
13.1948
0.254162
13.258
0.191684
13.3269
0.128518
13.4012
0.0646308
13.4805
-1.06612e-07
13.5645
-0.0653894
13.653
-0.131546
13.7458
-0.198471
13.8426
-0.266162
13.9433
-0.334612
14.0479
-0.403808
14.156
-0.473737
14.2678
-0.544379
14.383
-0.615714
14.5017
-0.687719
14.6237
-0.760367
14.749
-0.833631
14.8776
-0.907481
15.0094
-0.981887
15.1444
-1.05681
15.2825
-1.13223
15.4237
-1.20809
15.5681
-1.28437
15.7155
-1.36103
15.866
-1.43803
16.0195
-1.51532
16.1761
-1.59286
16.3357
-1.67062
16.4983
-1.74855
16.6639
-1.82661
16.8324
-1.90476
17.004
-1.98294
17.1784
-2.06112
17.3558
-2.13924
17.5362
-2.21727
17.7194
-2.29515
17.9056
-2.37285
18.0946
-2.4503
18.2865
-2.52746
18.4809
-2.60434
18.6795
-2.68067
18.8767
-2.75712
19.0896
-2.83133
-2.91067
19.2653
23.1546
3.76071
-23.6538
22.6468
3.6226
22.1302
3.48329
21.6036
3.34286
21.0663
3.20144
20.5172
3.05915
19.9557
2.91618
19.3818
2.77279
18.7962
2.62939
18.2013
2.48654
17.6015
2.34504
17.0039
2.20599
16.4182
2.07069
15.8556
1.94056
15.328
1.81693
14.8453
1.7008
14.4145
1.59267
14.0391
1.49255
13.7187
1.39995
13.4506
1.31409
13.2301
1.23403
13.0518
1.15875
12.9101
1.08734
12.8001
1.01894
12.7169
0.952837
12.6568
0.888426
12.6163
0.825207
12.5927
0.762773
12.5836
0.700794
12.5871
0.639004
12.6017
0.577188
12.626
0.515173
12.659
0.452821
12.6997
0.39002
12.7475
0.326683
12.8016
0.262739
12.8616
0.198135
12.9271
0.13283
12.9976
0.0667916
13.0729
0
13.1526
-0.0675587
13.2365
-0.135891
13.3246
-0.204999
13.4165
-0.274877
13.5121
-0.345518
13.6114
-0.416909
13.7141
-0.489034