/*--------------------------------*- C++ -*----------------------------------*\
| =========                 |                                                 |
| \\      /  F ield         | OpenFOAM: The Open Source CFD Toolbox           |
|  \\    /   O peration     | Version:  2206                                  |
|   \\  /    A nd           | Website:  www.openfoam.com                      |
|    \\/     M anipulation  |                                                 |
\*---------------------------------------------------------------------------*/
FoamFile
{
    version     2.0;
    format      ascii;
    arch        "LSB;label=32;scalar=64";
    class       volScalarField;
    location    "1.55";
    object      wave;
}
// * * * * * * * * * * * * * * * * * * * * * * * * * * * * * * * * * * * * * //

dimensions      [0 0 0 0 0 0 0];

internalField   nonuniform List<scalar> 
100
(
0.998287
0.976504
0.930189
0.860505
0.769204
0.658578
0.531408
0.390887
0.240547
0.0841632
-0.0743348
-0.230965
-0.381793
-0.52303
-0.651127
-0.762866
-0.855441
-0.926524
-0.974332
-0.997662
-0.995928
-0.969175
-0.918074
-0.843909
-0.748542
-0.634371
-0.504263
-0.361487
-0.209629
-0.0525055
0.105937
0.261719
0.410926
0.549809
0.67488
0.782996
0.871442
0.937995
0.980984
0.999328
0.992567
0.96087
0.905034
0.826462
0.727127
0.609525
0.476611
0.331723
0.178501
0.020795
-0.137433
-0.292209
-0.439644
-0.576034
-0.697953
-0.802338
-0.886566
-0.948521
-0.986648
-0.999988
-0.988206
-0.951598
-0.891084
-0.808183
-0.70498
-0.584066
-0.448478
-0.301624
-0.147193
0.0109365
0.168791
0.322405
0.46792
0.601679
0.720323
0.820871
0.900797
0.958092
0.991319
0.999641
0.98285
0.941367
0.876236
0.789091
0.682123
0.558018
0.419894
0.271222
0.115736
-0.042657
-0.199979
-0.352277
-0.495724
-0.626719
-0.741968
-0.838578
-0.914121
-0.966699
-0.994991
-0.998287
)
;

boundaryField
{
    movingWall
    {
        type            calculated;
        value           uniform 0;
    }
    fixedWalls
    {
        type            calculated;
        value           uniform 0;
    }
    frontAndBack
    {
        type            empty;
    }
}


// ************************************************************************* //
