/*--------------------------------*- C++ -*----------------------------------*\
| =========                 |                                                 |
| \\      /  F ield         | OpenFOAM: The Open Source CFD Toolbox           |
|  \\    /   O peration     | Version:  2312                                  |
|   \\  /    A nd           | Website:  www.openfoam.com                      |
|    \\/     M anipulation  |                                                 |
\*---------------------------------------------------------------------------*/
FoamFile
{
    version     2.0;
    format      ascii;
    arch        "LSB;label=32;scalar=64";
    class       volVectorField;
    location    "0.6";
    object      flux;
}
// * * * * * * * * * * * * * * * * * * * * * * * * * * * * * * * * * * * * * //

dimensions      [0 1 -1 1 0 0 0];

internalField   nonuniform List<vector> 
100
(
(7.52279 0 0)
(7.22082 0 0)
(6.92241 0 0)
(6.628 0 0)
(6.33804 0 0)
(6.05291 0 0)
(5.77294 0 0)
(5.49846 0 0)
(5.22975 0 0)
(4.96703 0 0)
(4.71054 0 0)
(4.46044 0 0)
(4.2169 0 0)
(3.98004 0 0)
(3.74997 0 0)
(3.52677 0 0)
(3.31049 0 0)
(3.10118 0 0)
(2.89885 0 0)
(2.7035 0 0)
(2.51511 0 0)
(2.33366 0 0)
(2.1591 0 0)
(1.99137 0 0)
(1.8304 0 0)
(1.6761 0 0)
(1.52839 0 0)
(1.38715 0 0)
(1.25229 0 0)
(1.12369 0 0)
(1.00121 0 0)
(0.884729 0 0)
(0.774115 0 0)
(0.669227 0 0)
(0.569921 0 0)
(0.47605 0 0)
(0.387466 0 0)
(0.304019 0 0)
(0.225555 0 0)
(0.151921 0 0)
(0.0829639 0 0)
(0.0185297 0 0)
(-0.0415354 0 0)
(-0.0973843 0 0)
(-0.149169 0 0)
(-0.197039 0 0)
(-0.241145 0 0)
(-0.281633 0 0)
(-0.318648 0 0)
(-0.352333 0 0)
(-0.382827 0 0)
(-0.410268 0 0)
(-0.434791 0 0)
(-0.456526 0 0)
(-0.475603 0 0)
(-0.492145 0 0)
(-0.506275 0 0)
(-0.518111 0 0)
(-0.527768 0 0)
(-0.535356 0 0)
(-0.540984 0 0)
(-0.544756 0 0)
(-0.546771 0 0)
(-0.547128 0 0)
(-0.545919 0 0)
(-0.543234 0 0)
(-0.53916 0 0)
(-0.533779 0 0)
(-0.52717 0 0)
(-0.519409 0 0)
(-0.51057 0 0)
(-0.50072 0 0)
(-0.489926 0 0)
(-0.478252 0 0)
(-0.465756 0 0)
(-0.452496 0 0)
(-0.438525 0 0)
(-0.423896 0 0)
(-0.408655 0 0)
(-0.39285 0 0)
(-0.376524 0 0)
(-0.359716 0 0)
(-0.342467 0 0)
(-0.324813 0 0)
(-0.306788 0 0)
(-0.288424 0 0)
(-0.269752 0 0)
(-0.250801 0 0)
(-0.231599 0 0)
(-0.21217 0 0)
(-0.192539 0 0)
(-0.17273 0 0)
(-0.152764 0 0)
(-0.132662 0 0)
(-0.112444 0 0)
(-0.0921292 0 0)
(-0.0717362 0 0)
(-0.0512828 0 0)
(-0.0307867 0 0)
(-0.0102651 0 0)
)
;

boundaryField
{
    movingWall
    {
        type            calculated;
        value           uniform (7.67459 0 0);
    }
    fixedWalls
    {
        type            calculated;
        value           nonuniform List<vector> 
201
(
(7.52279 0 0)
(7.22082 0 0)
(6.92241 0 0)
(6.628 0 0)
(6.33804 0 0)
(6.05291 0 0)
(5.77294 0 0)
(5.49846 0 0)
(5.22975 0 0)
(4.96703 0 0)
(4.71054 0 0)
(4.46044 0 0)
(4.2169 0 0)
(3.98004 0 0)
(3.74997 0 0)
(3.52677 0 0)
(3.31049 0 0)
(3.10118 0 0)
(2.89885 0 0)
(2.7035 0 0)
(2.51511 0 0)
(2.33366 0 0)
(2.1591 0 0)
(1.99137 0 0)
(1.8304 0 0)
(1.6761 0 0)
(1.52839 0 0)
(1.38715 0 0)
(1.25229 0 0)
(1.12369 0 0)
(1.00121 0 0)
(0.884729 0 0)
(0.774115 0 0)
(0.669227 0 0)
(0.569921 0 0)
(0.47605 0 0)
(0.387466 0 0)
(0.304019 0 0)
(0.225555 0 0)
(0.151921 0 0)
(0.0829639 0 0)
(0.0185297 0 0)
(-0.0415354 0 0)
(-0.0973843 0 0)
(-0.149169 0 0)
(-0.197039 0 0)
(-0.241145 0 0)
(-0.281633 0 0)
(-0.318648 0 0)
(-0.352333 0 0)
(-0.382827 0 0)
(-0.410268 0 0)
(-0.434791 0 0)
(-0.456526 0 0)
(-0.475603 0 0)
(-0.492145 0 0)
(-0.506275 0 0)
(-0.518111 0 0)
(-0.527768 0 0)
(-0.535356 0 0)
(-0.540984 0 0)
(-0.544756 0 0)
(-0.546771 0 0)
(-0.547128 0 0)
(-0.545919 0 0)
(-0.543234 0 0)
(-0.53916 0 0)
(-0.533779 0 0)
(-0.52717 0 0)
(-0.519409 0 0)
(-0.51057 0 0)
(-0.50072 0 0)
(-0.489926 0 0)
(-0.478252 0 0)
(-0.465756 0 0)
(-0.452496 0 0)
(-0.438525 0 0)
(-0.423896 0 0)
(-0.408655 0 0)
(-0.39285 0 0)
(-0.376524 0 0)
(-0.359716 0 0)
(-0.342467 0 0)
(-0.324813 0 0)
(-0.306788 0 0)
(-0.288424 0 0)
(-0.269752 0 0)
(-0.250801 0 0)
(-0.231599 0 0)
(-0.21217 0 0)
(-0.192539 0 0)
(-0.17273 0 0)
(-0.152764 0 0)
(-0.132662 0 0)
(-0.112444 0 0)
(-0.0921292 0 0)
(-0.0717362 0 0)
(-0.0512828 0 0)
(-0.0307867 0 0)
(-0.0102651 0 0)
(0 0 0)
(7.52279 0 0)
(7.22082 0 0)
(6.92241 0 0)
(6.628 0 0)
(6.33804 0 0)
(6.05291 0 0)
(5.77294 0 0)
(5.49846 0 0)
(5.22975 0 0)
(4.96703 0 0)
(4.71054 0 0)
(4.46044 0 0)
(4.2169 0 0)
(3.98004 0 0)
(3.74997 0 0)
(3.52677 0 0)
(3.31049 0 0)
(3.10118 0 0)
(2.89885 0 0)
(2.7035 0 0)
(2.51511 0 0)
(2.33366 0 0)
(2.1591 0 0)
(1.99137 0 0)
(1.8304 0 0)
(1.6761 0 0)
(1.52839 0 0)
(1.38715 0 0)
(1.25229 0 0)
(1.12369 0 0)
(1.00121 0 0)
(0.884729 0 0)
(0.774115 0 0)
(0.669227 0 0)
(0.569921 0 0)
(0.47605 0 0)
(0.387466 0 0)
(0.304019 0 0)
(0.225555 0 0)
(0.151921 0 0)
(0.0829639 0 0)
(0.0185297 0 0)
(-0.0415354 0 0)
(-0.0973843 0 0)
(-0.149169 0 0)
(-0.197039 0 0)
(-0.241145 0 0)
(-0.281633 0 0)
(-0.318648 0 0)
(-0.352333 0 0)
(-0.382827 0 0)
(-0.410268 0 0)
(-0.434791 0 0)
(-0.456526 0 0)
(-0.475603 0 0)
(-0.492145 0 0)
(-0.506275 0 0)
(-0.518111 0 0)
(-0.527768 0 0)
(-0.535356 0 0)
(-0.540984 0 0)
(-0.544756 0 0)
(-0.546771 0 0)
(-0.547128 0 0)
(-0.545919 0 0)
(-0.543234 0 0)
(-0.53916 0 0)
(-0.533779 0 0)
(-0.52717 0 0)
(-0.519409 0 0)
(-0.51057 0 0)
(-0.50072 0 0)
(-0.489926 0 0)
(-0.478252 0 0)
(-0.465756 0 0)
(-0.452496 0 0)
(-0.438525 0 0)
(-0.423896 0 0)
(-0.408655 0 0)
(-0.39285 0 0)
(-0.376524 0 0)
(-0.359716 0 0)
(-0.342467 0 0)
(-0.324813 0 0)
(-0.306788 0 0)
(-0.288424 0 0)
(-0.269752 0 0)
(-0.250801 0 0)
(-0.231599 0 0)
(-0.21217 0 0)
(-0.192539 0 0)
(-0.17273 0 0)
(-0.152764 0 0)
(-0.132662 0 0)
(-0.112444 0 0)
(-0.0921292 0 0)
(-0.0717362 0 0)
(-0.0512828 0 0)
(-0.0307867 0 0)
(-0.0102651 0 0)
)
;
    }
    frontAndBack
    {
        type            empty;
    }
}


// ************************************************************************* //
