/*--------------------------------*- C++ -*----------------------------------*\
| =========                 |                                                 |
| \\      /  F ield         | OpenFOAM: The Open Source CFD Toolbox           |
|  \\    /   O peration     | Version:  2312                                  |
|   \\  /    A nd           | Website:  www.openfoam.com                      |
|    \\/     M anipulation  |                                                 |
\*---------------------------------------------------------------------------*/
FoamFile
{
    version     2.0;
    format      ascii;
    arch        "LSB;label=32;scalar=64";
    class       volScalarField;
    location    "0.6";
    object      gradTx;
}
// * * * * * * * * * * * * * * * * * * * * * * * * * * * * * * * * * * * * * //

dimensions      [0 -1 0 1 0 0 0];

internalField   nonuniform List<scalar> 
100
(
7.52279
7.22082
6.92241
6.628
6.33804
6.05291
5.77294
5.49846
5.22975
4.96703
4.71054
4.46044
4.2169
3.98004
3.74997
3.52677
3.31049
3.10118
2.89885
2.7035
2.51511
2.33366
2.1591
1.99137
1.8304
1.6761
1.52839
1.38715
1.25229
1.12369
1.00121
0.884729
0.774115
0.669227
0.569921
0.47605
0.387466
0.304019
0.225555
0.151921
0.0829639
0.0185297
-0.0415354
-0.0973843
-0.149169
-0.197039
-0.241145
-0.281633
-0.318648
-0.352333
-0.382827
-0.410268
-0.434791
-0.456526
-0.475603
-0.492145
-0.506275
-0.518111
-0.527768
-0.535356
-0.540984
-0.544756
-0.546771
-0.547128
-0.545919
-0.543234
-0.53916
-0.533779
-0.52717
-0.519409
-0.51057
-0.50072
-0.489926
-0.478252
-0.465756
-0.452496
-0.438525
-0.423896
-0.408655
-0.39285
-0.376524
-0.359716
-0.342467
-0.324813
-0.306788
-0.288424
-0.269752
-0.250801
-0.231599
-0.21217
-0.192539
-0.17273
-0.152764
-0.132662
-0.112444
-0.0921292
-0.0717362
-0.0512828
-0.0307867
-0.0102651
)
;

boundaryField
{
    movingWall
    {
        type            calculated;
        value           uniform 7.67459;
    }
    fixedWalls
    {
        type            calculated;
        value           nonuniform List<scalar> 
201
(
7.52279
7.22082
6.92241
6.628
6.33804
6.05291
5.77294
5.49846
5.22975
4.96703
4.71054
4.46044
4.2169
3.98004
3.74997
3.52677
3.31049
3.10118
2.89885
2.7035
2.51511
2.33366
2.1591
1.99137
1.8304
1.6761
1.52839
1.38715
1.25229
1.12369
1.00121
0.884729
0.774115
0.669227
0.569921
0.47605
0.387466
0.304019
0.225555
0.151921
0.0829639
0.0185297
-0.0415354
-0.0973843
-0.149169
-0.197039
-0.241145
-0.281633
-0.318648
-0.352333
-0.382827
-0.410268
-0.434791
-0.456526
-0.475603
-0.492145
-0.506275
-0.518111
-0.527768
-0.535356
-0.540984
-0.544756
-0.546771
-0.547128
-0.545919
-0.543234
-0.53916
-0.533779
-0.52717
-0.519409
-0.51057
-0.50072
-0.489926
-0.478252
-0.465756
-0.452496
-0.438525
-0.423896
-0.408655
-0.39285
-0.376524
-0.359716
-0.342467
-0.324813
-0.306788
-0.288424
-0.269752
-0.250801
-0.231599
-0.21217
-0.192539
-0.17273
-0.152764
-0.132662
-0.112444
-0.0921292
-0.0717362
-0.0512828
-0.0307867
-0.0102651
0
7.52279
7.22082
6.92241
6.628
6.33804
6.05291
5.77294
5.49846
5.22975
4.96703
4.71054
4.46044
4.2169
3.98004
3.74997
3.52677
3.31049
3.10118
2.89885
2.7035
2.51511
2.33366
2.1591
1.99137
1.8304
1.6761
1.52839
1.38715
1.25229
1.12369
1.00121
0.884729
0.774115
0.669227
0.569921
0.47605
0.387466
0.304019
0.225555
0.151921
0.0829639
0.0185297
-0.0415354
-0.0973843
-0.149169
-0.197039
-0.241145
-0.281633
-0.318648
-0.352333
-0.382827
-0.410268
-0.434791
-0.456526
-0.475603
-0.492145
-0.506275
-0.518111
-0.527768
-0.535356
-0.540984
-0.544756
-0.546771
-0.547128
-0.545919
-0.543234
-0.53916
-0.533779
-0.52717
-0.519409
-0.51057
-0.50072
-0.489926
-0.478252
-0.465756
-0.452496
-0.438525
-0.423896
-0.408655
-0.39285
-0.376524
-0.359716
-0.342467
-0.324813
-0.306788
-0.288424
-0.269752
-0.250801
-0.231599
-0.21217
-0.192539
-0.17273
-0.152764
-0.132662
-0.112444
-0.0921292
-0.0717362
-0.0512828
-0.0307867
-0.0102651
)
;
    }
    frontAndBack
    {
        type            empty;
    }
}


// ************************************************************************* //
