/*--------------------------------*- C++ -*----------------------------------*\
| =========                 |                                                 |
| \\      /  F ield         | OpenFOAM: The Open Source CFD Toolbox           |
|  \\    /   O peration     | Version:  2312                                  |
|   \\  /    A nd           | Website:  www.openfoam.com                      |
|    \\/     M anipulation  |                                                 |
\*---------------------------------------------------------------------------*/
FoamFile
{
    version     2.0;
    format      ascii;
    arch        "LSB;label=32;scalar=64";
    class       volVectorField;
    location    "0.774";
    object      U;
}
// * * * * * * * * * * * * * * * * * * * * * * * * * * * * * * * * * * * * * //

dimensions      [0 1 -1 0 0 0 0];

internalField   nonuniform List<vector> 
31205
(
(102.941 0 0)
(104.429 0 0)
(106.118 0 0)
(107.971 0 0)
(109.956 0 0)
(112.045 0 0)
(114.212 0 0)
(116.44 0 0)
(118.71 0 0)
(121.009 0 0)
(123.328 0 0)
(125.657 0 0)
(127.989 0 0)
(130.319 0 0)
(132.642 0 0)
(134.955 0 0)
(137.256 0 0)
(139.541 0 0)
(141.809 0 0)
(144.059 0 0)
(146.291 0 0)
(148.502 0 0)
(150.693 0 0)
(152.863 0 0)
(155.013 0 0)
(157.141 0 0)
(159.248 0 0)
(161.334 0 0)
(163.398 0 0)
(165.442 0 0)
(167.465 0 0)
(169.468 0 0)
(171.449 0 0)
(173.411 0 0)
(175.353 0 0)
(177.275 0 0)
(179.177 0 0)
(181.06 0 0)
(182.924 0 0)
(184.77 0 0)
(186.597 0 0)
(188.405 0 0)
(190.196 0 0)
(191.968 0 0)
(193.723 0 0)
(195.461 0 0)
(197.182 0 0)
(198.885 0 0)
(200.572 0 0)
(202.242 0 0)
(203.896 0 0)
(205.534 0 0)
(207.156 0 0)
(208.762 0 0)
(210.353 0 0)
(211.928 0 0)
(213.488 0 0)
(215.033 0 0)
(216.563 0 0)
(218.078 0 0)
(219.578 0 0)
(221.064 0 0)
(222.536 0 0)
(223.993 0 0)
(225.436 0 0)
(226.865 0 0)
(228.28 0 0)
(229.681 0 0)
(231.069 0 0)
(232.443 0 0)
(233.804 0 0)
(235.151 0 0)
(236.485 0 0)
(237.804 0 0)
(239.116 0 0)
(240.396 0 0)
(241.722 0 0)
(242.853 0 0)
(244.531 0 0)
(104.538 0 0)
(106.181 0 0)
(107.98 0 0)
(109.902 0 0)
(111.923 0 0)
(114.021 0 0)
(116.176 0 0)
(118.373 0 0)
(120.6 0 0)
(122.846 0 0)
(125.104 0 0)
(127.367 0 0)
(129.628 0 0)
(131.885 0 0)
(134.133 0 0)
(136.37 0 0)
(138.593 0 0)
(140.802 0 0)
(142.994 0 0)
(145.168 0 0)
(147.324 0 0)
(149.461 0 0)
(151.579 0 0)
(153.677 0 0)
(155.756 0 0)
(157.814 0 0)
(159.853 0 0)
(161.872 0 0)
(163.871 0 0)
(165.85 0 0)
(167.809 0 0)
(169.75 0 0)
(171.671 0 0)
(173.573 0 0)
(175.456 0 0)
(177.32 0 0)
(179.167 0 0)
(180.995 0 0)
(182.805 0 0)
(184.597 0 0)
(186.372 0 0)
(188.13 0 0)
(189.87 0 0)
(191.594 0 0)
(193.301 0 0)
(194.992 0 0)
(196.666 0 0)
(198.325 0 0)
(199.967 0 0)
(201.594 0 0)
(203.206 0 0)
(204.802 0 0)
(206.383 0 0)
(207.949 0 0)
(209.5 0 0)
(211.037 0 0)
(212.559 0 0)
(214.067 0 0)
(215.56 0 0)
(217.04 0 0)
(218.505 0 0)
(219.957 0 0)
(221.395 0 0)
(222.82 0 0)
(224.231 0 0)
(225.629 0 0)
(227.013 0 0)
(228.385 0 0)
(229.743 0 0)
(231.088 0 0)
(232.421 0 0)
(233.741 0 0)
(235.049 0 0)
(236.342 0 0)
(237.628 0 0)
(238.884 0 0)
(240.184 0 0)
(241.297 0 0)
(242.936 0 0)
(106.395 0 0)
(108.147 0 0)
(110.016 0 0)
(111.976 0 0)
(114.007 0 0)
(116.094 0 0)
(118.221 0 0)
(120.377 0 0)
(122.553 0 0)
(124.74 0 0)
(126.933 0 0)
(129.127 0 0)
(131.316 0 0)
(133.499 0 0)
(135.672 0 0)
(137.833 0 0)
(139.98 0 0)
(142.112 0 0)
(144.228 0 0)
(146.328 0 0)
(148.41 0 0)
(150.474 0 0)
(152.52 0 0)
(154.547 0 0)
(156.556 0 0)
(158.546 0 0)
(160.517 0 0)
(162.47 0 0)
(164.404 0 0)
(166.319 0 0)
(168.217 0 0)
(170.096 0 0)
(171.957 0 0)
(173.8 0 0)
(175.625 0 0)
(177.433 0 0)
(179.224 0 0)
(180.998 0 0)
(182.754 0 0)
(184.494 0 0)
(186.218 0 0)
(187.925 0 0)
(189.616 0 0)
(191.292 0 0)
(192.951 0 0)
(194.595 0 0)
(196.224 0 0)
(197.838 0 0)
(199.436 0 0)
(201.02 0 0)
(202.589 0 0)
(204.144 0 0)
(205.684 0 0)
(207.21 0 0)
(208.722 0 0)
(210.221 0 0)
(211.705 0 0)
(213.176 0 0)
(214.633 0 0)
(216.077 0 0)
(217.508 0 0)
(218.926 0 0)
(220.331 0 0)
(221.722 0 0)
(223.101 0 0)
(224.468 0 0)
(225.821 0 0)
(227.163 0 0)
(228.492 0 0)
(229.808 0 0)
(231.113 0 0)
(232.405 0 0)
(233.685 0 0)
(234.952 0 0)
(236.213 0 0)
(237.444 0 0)
(238.718 0 0)
(239.811 0 0)
(241.413 0 0)
(108.407 0 0)
(110.227 0 0)
(112.132 0 0)
(114.103 0 0)
(116.125 0 0)
(118.186 0 0)
(120.274 0 0)
(122.382 0 0)
(124.501 0 0)
(126.627 0 0)
(128.753 0 0)
(130.877 0 0)
(132.995 0 0)
(135.105 0 0)
(137.204 0 0)
(139.29 0 0)
(141.363 0 0)
(143.422 0 0)
(145.465 0 0)
(147.492 0 0)
(149.502 0 0)
(151.495 0 0)
(153.471 0 0)
(155.43 0 0)
(157.371 0 0)
(159.294 0 0)
(161.2 0 0)
(163.089 0 0)
(164.96 0 0)
(166.814 0 0)
(168.65 0 0)
(170.47 0 0)
(172.272 0 0)
(174.058 0 0)
(175.827 0 0)
(177.58 0 0)
(179.317 0 0)
(181.037 0 0)
(182.742 0 0)
(184.431 0 0)
(186.104 0 0)
(187.762 0 0)
(189.405 0 0)
(191.033 0 0)
(192.646 0 0)
(194.244 0 0)
(195.828 0 0)
(197.398 0 0)
(198.953 0 0)
(200.495 0 0)
(202.022 0 0)
(203.536 0 0)
(205.036 0 0)
(206.523 0 0)
(207.996 0 0)
(209.457 0 0)
(210.904 0 0)
(212.338 0 0)
(213.76 0 0)
(215.168 0 0)
(216.565 0 0)
(217.949 0 0)
(219.32 0 0)
(220.679 0 0)
(222.026 0 0)
(223.361 0 0)
(224.684 0 0)
(225.995 0 0)
(227.295 0 0)
(228.583 0 0)
(229.859 0 0)
(231.123 0 0)
(232.377 0 0)
(233.617 0 0)
(234.852 0 0)
(236.058 0 0)
(237.306 0 0)
(238.379 0 0)
(239.945 0 0)
(110.505 0 0)
(112.358 0 0)
(114.272 0 0)
(116.234 0 0)
(118.232 0 0)
(120.255 0 0)
(122.298 0 0)
(124.351 0 0)
(126.411 0 0)
(128.473 0 0)
(130.533 0 0)
(132.588 0 0)
(134.635 0 0)
(136.673 0 0)
(138.7 0 0)
(140.714 0 0)
(142.716 0 0)
(144.703 0 0)
(146.675 0 0)
(148.631 0 0)
(150.572 0 0)
(152.497 0 0)
(154.406 0 0)
(156.299 0 0)
(158.174 0 0)
(160.034 0 0)
(161.877 0 0)
(163.703 0 0)
(165.514 0 0)
(167.308 0 0)
(169.086 0 0)
(170.847 0 0)
(172.593 0 0)
(174.324 0 0)
(176.038 0 0)
(177.738 0 0)
(179.421 0 0)
(181.09 0 0)
(182.744 0 0)
(184.383 0 0)
(186.008 0 0)
(187.618 0 0)
(189.214 0 0)
(190.795 0 0)
(192.363 0 0)
(193.917 0 0)
(195.457 0 0)
(196.983 0 0)
(198.496 0 0)
(199.996 0 0)
(201.483 0 0)
(202.957 0 0)
(204.418 0 0)
(205.866 0 0)
(207.301 0 0)
(208.724 0 0)
(210.135 0 0)
(211.533 0 0)
(212.919 0 0)
(214.294 0 0)
(215.656 0 0)
(217.006 0 0)
(218.345 0 0)
(219.672 0 0)
(220.987 0 0)
(222.291 0 0)
(223.584 0 0)
(224.865 0 0)
(226.135 0 0)
(227.394 0 0)
(228.642 0 0)
(229.879 0 0)
(231.106 0 0)
(232.319 0 0)
(233.528 0 0)
(234.709 0 0)
(235.931 0 0)
(236.983 0 0)
(238.516 0 0)
(112.641 0 0)
(114.502 0 0)
(116.406 0 0)
(118.343 0 0)
(120.305 0 0)
(122.284 0 0)
(124.274 0 0)
(126.271 0 0)
(128.269 0 0)
(130.266 0 0)
(132.259 0 0)
(134.246 0 0)
(136.224 0 0)
(138.192 0 0)
(140.149 0 0)
(142.094 0 0)
(144.026 0 0)
(145.944 0 0)
(147.848 0 0)
(149.737 0 0)
(151.611 0 0)
(153.47 0 0)
(155.314 0 0)
(157.143 0 0)
(158.956 0 0)
(160.754 0 0)
(162.536 0 0)
(164.303 0 0)
(166.054 0 0)
(167.79 0 0)
(169.512 0 0)
(171.218 0 0)
(172.909 0 0)
(174.585 0 0)
(176.247 0 0)
(177.895 0 0)
(179.528 0 0)
(181.146 0 0)
(182.751 0 0)
(184.342 0 0)
(185.919 0 0)
(187.483 0 0)
(189.032 0 0)
(190.569 0 0)
(192.092 0 0)
(193.603 0 0)
(195.1 0 0)
(196.585 0 0)
(198.056 0 0)
(199.516 0 0)
(200.963 0 0)
(202.397 0 0)
(203.819 0 0)
(205.23 0 0)
(206.628 0 0)
(208.015 0 0)
(209.389 0 0)
(210.752 0 0)
(212.104 0 0)
(213.444 0 0)
(214.773 0 0)
(216.09 0 0)
(217.397 0 0)
(218.692 0 0)
(219.976 0 0)
(221.249 0 0)
(222.512 0 0)
(223.764 0 0)
(225.005 0 0)
(226.235 0 0)
(227.456 0 0)
(228.665 0 0)
(229.865 0 0)
(231.052 0 0)
(232.235 0 0)
(233.391 0 0)
(234.587 0 0)
(235.617 0 0)
(237.118 0 0)
(114.784 0 0)
(116.633 0 0)
(118.513 0 0)
(120.415 0 0)
(122.333 0 0)
(124.262 0 0)
(126.197 0 0)
(128.134 0 0)
(130.07 0 0)
(132.003 0 0)
(133.93 0 0)
(135.85 0 0)
(137.76 0 0)
(139.661 0 0)
(141.55 0 0)
(143.427 0 0)
(145.292 0 0)
(147.143 0 0)
(148.981 0 0)
(150.805 0 0)
(152.616 0 0)
(154.411 0 0)
(156.193 0 0)
(157.96 0 0)
(159.713 0 0)
(161.451 0 0)
(163.174 0 0)
(164.883 0 0)
(166.578 0 0)
(168.259 0 0)
(169.925 0 0)
(171.578 0 0)
(173.216 0 0)
(174.84 0 0)
(176.451 0 0)
(178.048 0 0)
(179.632 0 0)
(181.202 0 0)
(182.759 0 0)
(184.303 0 0)
(185.834 0 0)
(187.352 0 0)
(188.857 0 0)
(190.35 0 0)
(191.831 0 0)
(193.298 0 0)
(194.754 0 0)
(196.198 0 0)
(197.629 0 0)
(199.049 0 0)
(200.457 0 0)
(201.853 0 0)
(203.238 0 0)
(204.611 0 0)
(205.973 0 0)
(207.324 0 0)
(208.664 0 0)
(209.992 0 0)
(211.31 0 0)
(212.616 0 0)
(213.912 0 0)
(215.197 0 0)
(216.472 0 0)
(217.736 0 0)
(218.989 0 0)
(220.233 0 0)
(221.466 0 0)
(222.688 0 0)
(223.901 0 0)
(225.103 0 0)
(226.296 0 0)
(227.478 0 0)
(228.651 0 0)
(229.812 0 0)
(230.969 0 0)
(232.1 0 0)
(233.271 0 0)
(234.28 0 0)
(235.748 0 0)
(116.914 0 0)
(118.737 0 0)
(120.582 0 0)
(122.441 0 0)
(124.31 0 0)
(126.186 0 0)
(128.063 0 0)
(129.94 0 0)
(131.814 0 0)
(133.682 0 0)
(135.545 0 0)
(137.399 0 0)
(139.243 0 0)
(141.078 0 0)
(142.902 0 0)
(144.714 0 0)
(146.514 0 0)
(148.301 0 0)
(150.076 0 0)
(151.837 0 0)
(153.586 0 0)
(155.32 0 0)
(157.042 0 0)
(158.75 0 0)
(160.444 0 0)
(162.125 0 0)
(163.792 0 0)
(165.445 0 0)
(167.085 0 0)
(168.712 0 0)
(170.326 0 0)
(171.926 0 0)
(173.513 0 0)
(175.087 0 0)
(176.649 0 0)
(178.197 0 0)
(179.733 0 0)
(181.256 0 0)
(182.767 0 0)
(184.265 0 0)
(185.751 0 0)
(187.225 0 0)
(188.688 0 0)
(190.138 0 0)
(191.576 0 0)
(193.003 0 0)
(194.418 0 0)
(195.822 0 0)
(197.214 0 0)
(198.595 0 0)
(199.965 0 0)
(201.324 0 0)
(202.672 0 0)
(204.009 0 0)
(205.336 0 0)
(206.652 0 0)
(207.957 0 0)
(209.251 0 0)
(210.535 0 0)
(211.809 0 0)
(213.073 0 0)
(214.326 0 0)
(215.57 0 0)
(216.803 0 0)
(218.026 0 0)
(219.24 0 0)
(220.443 0 0)
(221.637 0 0)
(222.822 0 0)
(223.996 0 0)
(225.161 0 0)
(226.317 0 0)
(227.463 0 0)
(228.599 0 0)
(229.73 0 0)
(230.836 0 0)
(231.982 0 0)
(232.969 0 0)
(234.406 0 0)
(119.014 0 0)
(120.802 0 0)
(122.605 0 0)
(124.416 0 0)
(126.233 0 0)
(128.053 0 0)
(129.871 0 0)
(131.688 0 0)
(133.5 0 0)
(135.306 0 0)
(137.104 0 0)
(138.895 0 0)
(140.676 0 0)
(142.446 0 0)
(144.207 0 0)
(145.956 0 0)
(147.693 0 0)
(149.419 0 0)
(151.133 0 0)
(152.834 0 0)
(154.522 0 0)
(156.199 0 0)
(157.862 0 0)
(159.513 0 0)
(161.151 0 0)
(162.776 0 0)
(164.389 0 0)
(165.989 0 0)
(167.576 0 0)
(169.151 0 0)
(170.713 0 0)
(172.263 0 0)
(173.801 0 0)
(175.327 0 0)
(176.84 0 0)
(178.341 0 0)
(179.831 0 0)
(181.308 0 0)
(182.774 0 0)
(184.228 0 0)
(185.671 0 0)
(187.103 0 0)
(188.523 0 0)
(189.931 0 0)
(191.329 0 0)
(192.716 0 0)
(194.091 0 0)
(195.456 0 0)
(196.811 0 0)
(198.154 0 0)
(199.487 0 0)
(200.809 0 0)
(202.122 0 0)
(203.423 0 0)
(204.715 0 0)
(205.996 0 0)
(207.268 0 0)
(208.529 0 0)
(209.781 0 0)
(211.022 0 0)
(212.254 0 0)
(213.477 0 0)
(214.689 0 0)
(215.892 0 0)
(217.086 0 0)
(218.27 0 0)
(219.445 0 0)
(220.611 0 0)
(221.767 0 0)
(222.914 0 0)
(224.052 0 0)
(225.181 0 0)
(226.302 0 0)
(227.412 0 0)
(228.518 0 0)
(229.599 0 0)
(230.72 0 0)
(231.686 0 0)
(233.09 0 0)
(121.074 0 0)
(122.821 0 0)
(124.576 0 0)
(126.337 0 0)
(128.1 0 0)
(129.862 0 0)
(131.622 0 0)
(133.379 0 0)
(135.13 0 0)
(136.874 0 0)
(138.611 0 0)
(140.339 0 0)
(142.058 0 0)
(143.768 0 0)
(145.467 0 0)
(147.155 0 0)
(148.832 0 0)
(150.498 0 0)
(152.153 0 0)
(153.796 0 0)
(155.428 0 0)
(157.047 0 0)
(158.655 0 0)
(160.25 0 0)
(161.834 0 0)
(163.406 0 0)
(164.966 0 0)
(166.515 0 0)
(168.051 0 0)
(169.576 0 0)
(171.089 0 0)
(172.59 0 0)
(174.08 0 0)
(175.558 0 0)
(177.025 0 0)
(178.481 0 0)
(179.926 0 0)
(181.359 0 0)
(182.781 0 0)
(184.193 0 0)
(185.593 0 0)
(186.983 0 0)
(188.362 0 0)
(189.731 0 0)
(191.089 0 0)
(192.437 0 0)
(193.774 0 0)
(195.101 0 0)
(196.418 0 0)
(197.725 0 0)
(199.022 0 0)
(200.308 0 0)
(201.585 0 0)
(202.853 0 0)
(204.11 0 0)
(205.358 0 0)
(206.597 0 0)
(207.826 0 0)
(209.045 0 0)
(210.255 0 0)
(211.456 0 0)
(212.648 0 0)
(213.83 0 0)
(215.004 0 0)
(216.168 0 0)
(217.324 0 0)
(218.47 0 0)
(219.608 0 0)
(220.737 0 0)
(221.857 0 0)
(222.969 0 0)
(224.071 0 0)
(225.166 0 0)
(226.25 0 0)
(227.331 0 0)
(228.389 0 0)
(229.484 0 0)
(230.429 0 0)
(231.802 0 0)
(123.087 0 0)
(124.788 0 0)
(126.493 0 0)
(128.201 0 0)
(129.909 0 0)
(131.614 0 0)
(133.316 0 0)
(135.014 0 0)
(136.705 0 0)
(138.389 0 0)
(140.066 0 0)
(141.734 0 0)
(143.393 0 0)
(145.043 0 0)
(146.683 0 0)
(148.313 0 0)
(149.932 0 0)
(151.541 0 0)
(153.139 0 0)
(154.726 0 0)
(156.302 0 0)
(157.867 0 0)
(159.421 0 0)
(160.964 0 0)
(162.495 0 0)
(164.016 0 0)
(165.525 0 0)
(167.023 0 0)
(168.511 0 0)
(169.987 0 0)
(171.452 0 0)
(172.907 0 0)
(174.35 0 0)
(175.783 0 0)
(177.205 0 0)
(178.617 0 0)
(180.018 0 0)
(181.408 0 0)
(182.788 0 0)
(184.158 0 0)
(185.518 0 0)
(186.867 0 0)
(188.207 0 0)
(189.536 0 0)
(190.856 0 0)
(192.166 0 0)
(193.465 0 0)
(194.756 0 0)
(196.036 0 0)
(197.307 0 0)
(198.569 0 0)
(199.821 0 0)
(201.064 0 0)
(202.297 0 0)
(203.522 0 0)
(204.737 0 0)
(205.943 0 0)
(207.14 0 0)
(208.328 0 0)
(209.508 0 0)
(210.678 0 0)
(211.84 0 0)
(212.993 0 0)
(214.137 0 0)
(215.273 0 0)
(216.4 0 0)
(217.519 0 0)
(218.629 0 0)
(219.731 0 0)
(220.824 0 0)
(221.91 0 0)
(222.986 0 0)
(224.056 0 0)
(225.115 0 0)
(226.171 0 0)
(227.205 0 0)
(228.275 0 0)
(229.2 0 0)
(230.54 0 0)
(125.048 0 0)
(126.7 0 0)
(128.354 0 0)
(130.008 0 0)
(131.66 0 0)
(133.309 0 0)
(134.954 0 0)
(136.593 0 0)
(138.226 0 0)
(139.852 0 0)
(141.471 0 0)
(143.081 0 0)
(144.682 0 0)
(146.274 0 0)
(147.857 0 0)
(149.431 0 0)
(150.994 0 0)
(152.548 0 0)
(154.091 0 0)
(155.624 0 0)
(157.147 0 0)
(158.66 0 0)
(160.162 0 0)
(161.653 0 0)
(163.135 0 0)
(164.605 0 0)
(166.066 0 0)
(167.516 0 0)
(168.956 0 0)
(170.385 0 0)
(171.804 0 0)
(173.213 0 0)
(174.612 0 0)
(176.001 0 0)
(177.38 0 0)
(178.748 0 0)
(180.107 0 0)
(181.456 0 0)
(182.795 0 0)
(184.125 0 0)
(185.445 0 0)
(186.755 0 0)
(188.056 0 0)
(189.347 0 0)
(190.629 0 0)
(191.902 0 0)
(193.166 0 0)
(194.42 0 0)
(195.665 0 0)
(196.901 0 0)
(198.129 0 0)
(199.347 0 0)
(200.556 0 0)
(201.757 0 0)
(202.949 0 0)
(204.132 0 0)
(205.307 0 0)
(206.473 0 0)
(207.63 0 0)
(208.779 0 0)
(209.92 0 0)
(211.052 0 0)
(212.176 0 0)
(213.292 0 0)
(214.399 0 0)
(215.499 0 0)
(216.59 0 0)
(217.673 0 0)
(218.748 0 0)
(219.816 0 0)
(220.875 0 0)
(221.927 0 0)
(222.971 0 0)
(224.005 0 0)
(225.037 0 0)
(226.047 0 0)
(227.092 0 0)
(227.996 0 0)
(229.306 0 0)
(126.954 0 0)
(128.556 0 0)
(130.157 0 0)
(131.758 0 0)
(133.355 0 0)
(134.948 0 0)
(136.537 0 0)
(138.119 0 0)
(139.696 0 0)
(141.265 0 0)
(142.827 0 0)
(144.381 0 0)
(145.926 0 0)
(147.463 0 0)
(148.991 0 0)
(150.51 0 0)
(152.02 0 0)
(153.52 0 0)
(155.011 0 0)
(156.492 0 0)
(157.964 0 0)
(159.426 0 0)
(160.878 0 0)
(162.32 0 0)
(163.753 0 0)
(165.176 0 0)
(166.589 0 0)
(167.993 0 0)
(169.387 0 0)
(170.771 0 0)
(172.145 0 0)
(173.51 0 0)
(174.866 0 0)
(176.212 0 0)
(177.549 0 0)
(178.876 0 0)
(180.194 0 0)
(181.503 0 0)
(182.802 0 0)
(184.093 0 0)
(185.374 0 0)
(186.646 0 0)
(187.91 0 0)
(189.164 0 0)
(190.41 0 0)
(191.646 0 0)
(192.875 0 0)
(194.094 0 0)
(195.305 0 0)
(196.507 0 0)
(197.701 0 0)
(198.886 0 0)
(200.063 0 0)
(201.231 0 0)
(202.391 0 0)
(203.543 0 0)
(204.687 0 0)
(205.822 0 0)
(206.95 0 0)
(208.069 0 0)
(209.181 0 0)
(210.284 0 0)
(211.38 0 0)
(212.467 0 0)
(213.547 0 0)
(214.619 0 0)
(215.684 0 0)
(216.741 0 0)
(217.79 0 0)
(218.831 0 0)
(219.865 0 0)
(220.891 0 0)
(221.91 0 0)
(222.921 0 0)
(223.928 0 0)
(224.915 0 0)
(225.936 0 0)
(226.82 0 0)
(228.098 0 0)
(128.803 0 0)
(130.354 0 0)
(131.903 0 0)
(133.45 0 0)
(134.993 0 0)
(136.532 0 0)
(138.066 0 0)
(139.593 0 0)
(141.115 0 0)
(142.629 0 0)
(144.136 0 0)
(145.636 0 0)
(147.127 0 0)
(148.611 0 0)
(150.086 0 0)
(151.552 0 0)
(153.01 0 0)
(154.459 0 0)
(155.9 0 0)
(157.331 0 0)
(158.753 0 0)
(160.166 0 0)
(161.57 0 0)
(162.965 0 0)
(164.351 0 0)
(165.728 0 0)
(167.096 0 0)
(168.454 0 0)
(169.804 0 0)
(171.144 0 0)
(172.476 0 0)
(173.798 0 0)
(175.112 0 0)
(176.417 0 0)
(177.713 0 0)
(179 0 0)
(180.278 0 0)
(181.548 0 0)
(182.809 0 0)
(184.061 0 0)
(185.305 0 0)
(186.541 0 0)
(187.768 0 0)
(188.986 0 0)
(190.196 0 0)
(191.398 0 0)
(192.592 0 0)
(193.777 0 0)
(194.954 0 0)
(196.123 0 0)
(197.284 0 0)
(198.437 0 0)
(199.582 0 0)
(200.719 0 0)
(201.849 0 0)
(202.97 0 0)
(204.084 0 0)
(205.189 0 0)
(206.287 0 0)
(207.378 0 0)
(208.461 0 0)
(209.536 0 0)
(210.604 0 0)
(211.664 0 0)
(212.717 0 0)
(213.762 0 0)
(214.8 0 0)
(215.83 0 0)
(216.854 0 0)
(217.87 0 0)
(218.879 0 0)
(219.88 0 0)
(220.875 0 0)
(221.861 0 0)
(222.845 0 0)
(223.808 0 0)
(224.805 0 0)
(225.669 0 0)
(226.916 0 0)
(130.594 0 0)
(132.094 0 0)
(133.592 0 0)
(135.086 0 0)
(136.577 0 0)
(138.062 0 0)
(139.542 0 0)
(141.017 0 0)
(142.485 0 0)
(143.946 0 0)
(145.4 0 0)
(146.848 0 0)
(148.287 0 0)
(149.719 0 0)
(151.143 0 0)
(152.559 0 0)
(153.967 0 0)
(155.367 0 0)
(156.758 0 0)
(158.141 0 0)
(159.516 0 0)
(160.882 0 0)
(162.24 0 0)
(163.589 0 0)
(164.93 0 0)
(166.262 0 0)
(167.586 0 0)
(168.901 0 0)
(170.208 0 0)
(171.506 0 0)
(172.796 0 0)
(174.077 0 0)
(175.351 0 0)
(176.615 0 0)
(177.872 0 0)
(179.12 0 0)
(180.36 0 0)
(181.592 0 0)
(182.816 0 0)
(184.031 0 0)
(185.239 0 0)
(186.438 0 0)
(187.63 0 0)
(188.813 0 0)
(189.989 0 0)
(191.157 0 0)
(192.317 0 0)
(193.469 0 0)
(194.614 0 0)
(195.751 0 0)
(196.88 0 0)
(198.001 0 0)
(199.115 0 0)
(200.222 0 0)
(201.321 0 0)
(202.412 0 0)
(203.496 0 0)
(204.573 0 0)
(205.642 0 0)
(206.704 0 0)
(207.759 0 0)
(208.807 0 0)
(209.847 0 0)
(210.88 0 0)
(211.907 0 0)
(212.926 0 0)
(213.938 0 0)
(214.942 0 0)
(215.94 0 0)
(216.932 0 0)
(217.916 0 0)
(218.893 0 0)
(219.864 0 0)
(220.826 0 0)
(221.786 0 0)
(222.726 0 0)
(223.7 0 0)
(224.544 0 0)
(225.761 0 0)
(132.329 0 0)
(133.778 0 0)
(135.225 0 0)
(136.667 0 0)
(138.106 0 0)
(139.54 0 0)
(140.968 0 0)
(142.391 0 0)
(143.807 0 0)
(145.217 0 0)
(146.621 0 0)
(148.017 0 0)
(149.407 0 0)
(150.789 0 0)
(152.164 0 0)
(153.532 0 0)
(154.892 0 0)
(156.244 0 0)
(157.588 0 0)
(158.925 0 0)
(160.254 0 0)
(161.575 0 0)
(162.888 0 0)
(164.193 0 0)
(165.49 0 0)
(166.779 0 0)
(168.06 0 0)
(169.334 0 0)
(170.599 0 0)
(171.856 0 0)
(173.106 0 0)
(174.348 0 0)
(175.582 0 0)
(176.808 0 0)
(178.026 0 0)
(179.237 0 0)
(180.44 0 0)
(181.635 0 0)
(182.822 0 0)
(184.002 0 0)
(185.174 0 0)
(186.339 0 0)
(187.496 0 0)
(188.646 0 0)
(189.788 0 0)
(190.923 0 0)
(192.05 0 0)
(193.17 0 0)
(194.283 0 0)
(195.388 0 0)
(196.486 0 0)
(197.577 0 0)
(198.661 0 0)
(199.738 0 0)
(200.807 0 0)
(201.869 0 0)
(202.925 0 0)
(203.973 0 0)
(205.014 0 0)
(206.048 0 0)
(207.076 0 0)
(208.096 0 0)
(209.11 0 0)
(210.117 0 0)
(211.117 0 0)
(212.11 0 0)
(213.097 0 0)
(214.076 0 0)
(215.05 0 0)
(216.016 0 0)
(216.976 0 0)
(217.929 0 0)
(218.876 0 0)
(219.815 0 0)
(220.752 0 0)
(221.67 0 0)
(222.62 0 0)
(223.444 0 0)
(224.631 0 0)
(134.006 0 0)
(135.406 0 0)
(136.802 0 0)
(138.195 0 0)
(139.583 0 0)
(140.966 0 0)
(142.345 0 0)
(143.717 0 0)
(145.084 0 0)
(146.445 0 0)
(147.799 0 0)
(149.147 0 0)
(150.488 0 0)
(151.823 0 0)
(153.151 0 0)
(154.471 0 0)
(155.785 0 0)
(157.091 0 0)
(158.39 0 0)
(159.682 0 0)
(160.967 0 0)
(162.244 0 0)
(163.514 0 0)
(164.776 0 0)
(166.031 0 0)
(167.279 0 0)
(168.519 0 0)
(169.752 0 0)
(170.978 0 0)
(172.196 0 0)
(173.407 0 0)
(174.61 0 0)
(175.806 0 0)
(176.995 0 0)
(178.176 0 0)
(179.35 0 0)
(180.517 0 0)
(181.676 0 0)
(182.829 0 0)
(183.974 0 0)
(185.112 0 0)
(186.243 0 0)
(187.367 0 0)
(188.483 0 0)
(189.593 0 0)
(190.695 0 0)
(191.791 0 0)
(192.88 0 0)
(193.961 0 0)
(195.036 0 0)
(196.104 0 0)
(197.165 0 0)
(198.219 0 0)
(199.267 0 0)
(200.307 0 0)
(201.341 0 0)
(202.368 0 0)
(203.389 0 0)
(204.403 0 0)
(205.41 0 0)
(206.41 0 0)
(207.404 0 0)
(208.392 0 0)
(209.373 0 0)
(210.347 0 0)
(211.315 0 0)
(212.277 0 0)
(213.232 0 0)
(214.18 0 0)
(215.123 0 0)
(216.059 0 0)
(216.988 0 0)
(217.912 0 0)
(218.828 0 0)
(219.742 0 0)
(220.638 0 0)
(221.565 0 0)
(222.37 0 0)
(223.527 0 0)
(135.627 0 0)
(136.979 0 0)
(138.326 0 0)
(139.67 0 0)
(141.009 0 0)
(142.344 0 0)
(143.673 0 0)
(144.998 0 0)
(146.317 0 0)
(147.63 0 0)
(148.937 0 0)
(150.238 0 0)
(151.533 0 0)
(152.821 0 0)
(154.103 0 0)
(155.379 0 0)
(156.648 0 0)
(157.91 0 0)
(159.166 0 0)
(160.414 0 0)
(161.656 0 0)
(162.891 0 0)
(164.12 0 0)
(165.341 0 0)
(166.556 0 0)
(167.763 0 0)
(168.964 0 0)
(170.158 0 0)
(171.345 0 0)
(172.525 0 0)
(173.698 0 0)
(174.864 0 0)
(176.023 0 0)
(177.176 0 0)
(178.321 0 0)
(179.46 0 0)
(180.592 0 0)
(181.717 0 0)
(182.835 0 0)
(183.947 0 0)
(185.051 0 0)
(186.149 0 0)
(187.241 0 0)
(188.325 0 0)
(189.403 0 0)
(190.475 0 0)
(191.539 0 0)
(192.597 0 0)
(193.649 0 0)
(194.694 0 0)
(195.732 0 0)
(196.764 0 0)
(197.79 0 0)
(198.809 0 0)
(199.821 0 0)
(200.827 0 0)
(201.827 0 0)
(202.82 0 0)
(203.807 0 0)
(204.788 0 0)
(205.762 0 0)
(206.73 0 0)
(207.692 0 0)
(208.648 0 0)
(209.597 0 0)
(210.54 0 0)
(211.477 0 0)
(212.408 0 0)
(213.333 0 0)
(214.252 0 0)
(215.164 0 0)
(216.071 0 0)
(216.971 0 0)
(217.865 0 0)
(218.756 0 0)
(219.63 0 0)
(220.534 0 0)
(221.32 0 0)
(222.448 0 0)
(137.194 0 0)
(138.498 0 0)
(139.798 0 0)
(141.094 0 0)
(142.386 0 0)
(143.674 0 0)
(144.956 0 0)
(146.234 0 0)
(147.507 0 0)
(148.774 0 0)
(150.035 0 0)
(151.291 0 0)
(152.541 0 0)
(153.785 0 0)
(155.023 0 0)
(156.256 0 0)
(157.482 0 0)
(158.701 0 0)
(159.915 0 0)
(161.122 0 0)
(162.323 0 0)
(163.518 0 0)
(164.706 0 0)
(165.888 0 0)
(167.063 0 0)
(168.232 0 0)
(169.394 0 0)
(170.55 0 0)
(171.7 0 0)
(172.843 0 0)
(173.98 0 0)
(175.11 0 0)
(176.234 0 0)
(177.351 0 0)
(178.462 0 0)
(179.566 0 0)
(180.664 0 0)
(181.756 0 0)
(182.841 0 0)
(183.92 0 0)
(184.993 0 0)
(186.059 0 0)
(187.119 0 0)
(188.172 0 0)
(189.219 0 0)
(190.26 0 0)
(191.295 0 0)
(192.323 0 0)
(193.345 0 0)
(194.361 0 0)
(195.371 0 0)
(196.375 0 0)
(197.372 0 0)
(198.363 0 0)
(199.348 0 0)
(200.327 0 0)
(201.3 0 0)
(202.267 0 0)
(203.228 0 0)
(204.183 0 0)
(205.131 0 0)
(206.074 0 0)
(207.011 0 0)
(207.941 0 0)
(208.866 0 0)
(209.785 0 0)
(210.698 0 0)
(211.605 0 0)
(212.506 0 0)
(213.402 0 0)
(214.291 0 0)
(215.175 0 0)
(216.053 0 0)
(216.925 0 0)
(217.794 0 0)
(218.646 0 0)
(219.528 0 0)
(220.295 0 0)
(221.394 0 0)
(138.707 0 0)
(139.965 0 0)
(141.219 0 0)
(142.47 0 0)
(143.716 0 0)
(144.958 0 0)
(146.195 0 0)
(147.428 0 0)
(148.655 0 0)
(149.878 0 0)
(151.096 0 0)
(152.308 0 0)
(153.515 0 0)
(154.717 0 0)
(155.912 0 0)
(157.103 0 0)
(158.287 0 0)
(159.466 0 0)
(160.639 0 0)
(161.806 0 0)
(162.968 0 0)
(164.123 0 0)
(165.273 0 0)
(166.416 0 0)
(167.554 0 0)
(168.685 0 0)
(169.811 0 0)
(170.931 0 0)
(172.044 0 0)
(173.152 0 0)
(174.253 0 0)
(175.348 0 0)
(176.438 0 0)
(177.521 0 0)
(178.598 0 0)
(179.67 0 0)
(180.735 0 0)
(181.794 0 0)
(182.847 0 0)
(183.895 0 0)
(184.936 0 0)
(185.971 0 0)
(187 0 0)
(188.024 0 0)
(189.041 0 0)
(190.052 0 0)
(191.058 0 0)
(192.057 0 0)
(193.051 0 0)
(194.038 0 0)
(195.02 0 0)
(195.996 0 0)
(196.966 0 0)
(197.93 0 0)
(198.889 0 0)
(199.841 0 0)
(200.788 0 0)
(201.729 0 0)
(202.664 0 0)
(203.593 0 0)
(204.517 0 0)
(205.435 0 0)
(206.347 0 0)
(207.253 0 0)
(208.154 0 0)
(209.049 0 0)
(209.939 0 0)
(210.822 0 0)
(211.701 0 0)
(212.573 0 0)
(213.44 0 0)
(214.302 0 0)
(215.158 0 0)
(216.007 0 0)
(216.855 0 0)
(217.686 0 0)
(218.545 0 0)
(219.294 0 0)
(220.364 0 0)
(140.168 0 0)
(141.382 0 0)
(142.591 0 0)
(143.797 0 0)
(144.999 0 0)
(146.197 0 0)
(147.391 0 0)
(148.58 0 0)
(149.765 0 0)
(150.945 0 0)
(152.12 0 0)
(153.291 0 0)
(154.456 0 0)
(155.616 0 0)
(156.771 0 0)
(157.921 0 0)
(159.066 0 0)
(160.206 0 0)
(161.34 0 0)
(162.468 0 0)
(163.591 0 0)
(164.709 0 0)
(165.821 0 0)
(166.928 0 0)
(168.029 0 0)
(169.125 0 0)
(170.214 0 0)
(171.299 0 0)
(172.377 0 0)
(173.45 0 0)
(174.518 0 0)
(175.58 0 0)
(176.636 0 0)
(177.686 0 0)
(178.731 0 0)
(179.77 0 0)
(180.804 0 0)
(181.831 0 0)
(182.853 0 0)
(183.87 0 0)
(184.881 0 0)
(185.886 0 0)
(186.885 0 0)
(187.879 0 0)
(188.868 0 0)
(189.85 0 0)
(190.827 0 0)
(191.798 0 0)
(192.764 0 0)
(193.724 0 0)
(194.679 0 0)
(195.628 0 0)
(196.571 0 0)
(197.509 0 0)
(198.441 0 0)
(199.368 0 0)
(200.289 0 0)
(201.205 0 0)
(202.115 0 0)
(203.02 0 0)
(203.919 0 0)
(204.812 0 0)
(205.7 0 0)
(206.583 0 0)
(207.46 0 0)
(208.332 0 0)
(209.199 0 0)
(210.06 0 0)
(210.915 0 0)
(211.765 0 0)
(212.61 0 0)
(213.45 0 0)
(214.284 0 0)
(215.112 0 0)
(215.938 0 0)
(216.748 0 0)
(217.586 0 0)
(218.316 0 0)
(219.359 0 0)
(141.579 0 0)
(142.749 0 0)
(143.916 0 0)
(145.079 0 0)
(146.238 0 0)
(147.394 0 0)
(148.545 0 0)
(149.693 0 0)
(150.836 0 0)
(151.975 0 0)
(153.109 0 0)
(154.239 0 0)
(155.365 0 0)
(156.486 0 0)
(157.602 0 0)
(158.713 0 0)
(159.819 0 0)
(160.92 0 0)
(162.017 0 0)
(163.108 0 0)
(164.195 0 0)
(165.276 0 0)
(166.352 0 0)
(167.423 0 0)
(168.489 0 0)
(169.55 0 0)
(170.605 0 0)
(171.655 0 0)
(172.7 0 0)
(173.74 0 0)
(174.774 0 0)
(175.804 0 0)
(176.828 0 0)
(177.846 0 0)
(178.859 0 0)
(179.867 0 0)
(180.87 0 0)
(181.867 0 0)
(182.859 0 0)
(183.846 0 0)
(184.827 0 0)
(185.803 0 0)
(186.774 0 0)
(187.739 0 0)
(188.699 0 0)
(189.654 0 0)
(190.603 0 0)
(191.547 0 0)
(192.486 0 0)
(193.419 0 0)
(194.347 0 0)
(195.27 0 0)
(196.188 0 0)
(197.1 0 0)
(198.007 0 0)
(198.908 0 0)
(199.804 0 0)
(200.695 0 0)
(201.581 0 0)
(202.461 0 0)
(203.337 0 0)
(204.206 0 0)
(205.071 0 0)
(205.931 0 0)
(206.785 0 0)
(207.634 0 0)
(208.478 0 0)
(209.316 0 0)
(210.15 0 0)
(210.978 0 0)
(211.801 0 0)
(212.619 0 0)
(213.432 0 0)
(214.239 0 0)
(215.044 0 0)
(215.834 0 0)
(216.65 0 0)
(217.362 0 0)
(218.378 0 0)
(142.941 0 0)
(144.069 0 0)
(145.194 0 0)
(146.316 0 0)
(147.434 0 0)
(148.549 0 0)
(149.66 0 0)
(150.767 0 0)
(151.87 0 0)
(152.97 0 0)
(154.065 0 0)
(155.156 0 0)
(156.243 0 0)
(157.326 0 0)
(158.404 0 0)
(159.478 0 0)
(160.547 0 0)
(161.612 0 0)
(162.672 0 0)
(163.727 0 0)
(164.778 0 0)
(165.824 0 0)
(166.866 0 0)
(167.902 0 0)
(168.934 0 0)
(169.961 0 0)
(170.983 0 0)
(172.001 0 0)
(173.013 0 0)
(174.021 0 0)
(175.023 0 0)
(176.021 0 0)
(177.014 0 0)
(178.001 0 0)
(178.984 0 0)
(179.962 0 0)
(180.935 0 0)
(181.902 0 0)
(182.865 0 0)
(183.823 0 0)
(184.776 0 0)
(185.723 0 0)
(186.666 0 0)
(187.604 0 0)
(188.536 0 0)
(189.464 0 0)
(190.386 0 0)
(191.303 0 0)
(192.216 0 0)
(193.123 0 0)
(194.025 0 0)
(194.922 0 0)
(195.815 0 0)
(196.702 0 0)
(197.584 0 0)
(198.461 0 0)
(199.333 0 0)
(200.199 0 0)
(201.061 0 0)
(201.918 0 0)
(202.77 0 0)
(203.617 0 0)
(204.458 0 0)
(205.295 0 0)
(206.127 0 0)
(206.953 0 0)
(207.775 0 0)
(208.592 0 0)
(209.404 0 0)
(210.21 0 0)
(211.012 0 0)
(211.809 0 0)
(212.601 0 0)
(213.387 0 0)
(214.172 0 0)
(214.941 0 0)
(215.737 0 0)
(216.431 0 0)
(217.42 0 0)
(144.256 0 0)
(145.344 0 0)
(146.429 0 0)
(147.51 0 0)
(148.589 0 0)
(149.664 0 0)
(150.736 0 0)
(151.804 0 0)
(152.869 0 0)
(153.931 0 0)
(154.988 0 0)
(156.042 0 0)
(157.091 0 0)
(158.137 0 0)
(159.179 0 0)
(160.217 0 0)
(161.25 0 0)
(162.28 0 0)
(163.305 0 0)
(164.326 0 0)
(165.342 0 0)
(166.355 0 0)
(167.363 0 0)
(168.366 0 0)
(169.365 0 0)
(170.36 0 0)
(171.35 0 0)
(172.335 0 0)
(173.316 0 0)
(174.292 0 0)
(175.264 0 0)
(176.231 0 0)
(177.194 0 0)
(178.152 0 0)
(179.105 0 0)
(180.053 0 0)
(180.997 0 0)
(181.936 0 0)
(182.871 0 0)
(183.801 0 0)
(184.725 0 0)
(185.646 0 0)
(186.561 0 0)
(187.472 0 0)
(188.378 0 0)
(189.279 0 0)
(190.175 0 0)
(191.067 0 0)
(191.953 0 0)
(192.835 0 0)
(193.712 0 0)
(194.585 0 0)
(195.452 0 0)
(196.315 0 0)
(197.173 0 0)
(198.026 0 0)
(198.874 0 0)
(199.717 0 0)
(200.556 0 0)
(201.39 0 0)
(202.218 0 0)
(203.043 0 0)
(203.862 0 0)
(204.676 0 0)
(205.486 0 0)
(206.291 0 0)
(207.091 0 0)
(207.886 0 0)
(208.677 0 0)
(209.462 0 0)
(210.243 0 0)
(211.019 0 0)
(211.791 0 0)
(212.557 0 0)
(213.321 0 0)
(214.071 0 0)
(214.846 0 0)
(215.523 0 0)
(216.485 0 0)
(145.526 0 0)
(146.574 0 0)
(147.62 0 0)
(148.663 0 0)
(149.704 0 0)
(150.741 0 0)
(151.775 0 0)
(152.806 0 0)
(153.834 0 0)
(154.859 0 0)
(155.88 0 0)
(156.897 0 0)
(157.911 0 0)
(158.922 0 0)
(159.928 0 0)
(160.931 0 0)
(161.931 0 0)
(162.926 0 0)
(163.917 0 0)
(164.905 0 0)
(165.888 0 0)
(166.868 0 0)
(167.844 0 0)
(168.815 0 0)
(169.782 0 0)
(170.745 0 0)
(171.704 0 0)
(172.659 0 0)
(173.61 0 0)
(174.556 0 0)
(175.498 0 0)
(176.435 0 0)
(177.369 0 0)
(178.298 0 0)
(179.222 0 0)
(180.142 0 0)
(181.058 0 0)
(181.97 0 0)
(182.876 0 0)
(183.779 0 0)
(184.677 0 0)
(185.57 0 0)
(186.459 0 0)
(187.344 0 0)
(188.224 0 0)
(189.099 0 0)
(189.97 0 0)
(190.837 0 0)
(191.698 0 0)
(192.556 0 0)
(193.408 0 0)
(194.256 0 0)
(195.1 0 0)
(195.939 0 0)
(196.773 0 0)
(197.603 0 0)
(198.428 0 0)
(199.248 0 0)
(200.064 0 0)
(200.875 0 0)
(201.682 0 0)
(202.484 0 0)
(203.281 0 0)
(204.074 0 0)
(204.862 0 0)
(205.646 0 0)
(206.424 0 0)
(207.199 0 0)
(207.968 0 0)
(208.733 0 0)
(209.494 0 0)
(210.25 0 0)
(211.001 0 0)
(211.747 0 0)
(212.491 0 0)
(213.222 0 0)
(213.976 0 0)
(214.637 0 0)
(215.572 0 0)
(146.751 0 0)
(147.762 0 0)
(148.771 0 0)
(149.777 0 0)
(150.78 0 0)
(151.781 0 0)
(152.779 0 0)
(153.774 0 0)
(154.766 0 0)
(155.755 0 0)
(156.741 0 0)
(157.724 0 0)
(158.704 0 0)
(159.68 0 0)
(160.653 0 0)
(161.622 0 0)
(162.588 0 0)
(163.551 0 0)
(164.51 0 0)
(165.465 0 0)
(166.417 0 0)
(167.365 0 0)
(168.309 0 0)
(169.249 0 0)
(170.186 0 0)
(171.119 0 0)
(172.048 0 0)
(172.973 0 0)
(173.894 0 0)
(174.811 0 0)
(175.724 0 0)
(176.633 0 0)
(177.538 0 0)
(178.439 0 0)
(179.336 0 0)
(180.229 0 0)
(181.117 0 0)
(182.002 0 0)
(182.882 0 0)
(183.758 0 0)
(184.63 0 0)
(185.497 0 0)
(186.361 0 0)
(187.22 0 0)
(188.075 0 0)
(188.925 0 0)
(189.771 0 0)
(190.613 0 0)
(191.451 0 0)
(192.284 0 0)
(193.113 0 0)
(193.937 0 0)
(194.757 0 0)
(195.573 0 0)
(196.384 0 0)
(197.191 0 0)
(197.994 0 0)
(198.792 0 0)
(199.586 0 0)
(200.375 0 0)
(201.16 0 0)
(201.94 0 0)
(202.716 0 0)
(203.488 0 0)
(204.255 0 0)
(205.017 0 0)
(205.775 0 0)
(206.529 0 0)
(207.278 0 0)
(208.023 0 0)
(208.764 0 0)
(209.5 0 0)
(210.231 0 0)
(210.958 0 0)
(211.683 0 0)
(212.394 0 0)
(213.129 0 0)
(213.773 0 0)
(214.682 0 0)
(147.934 0 0)
(148.909 0 0)
(149.882 0 0)
(150.852 0 0)
(151.82 0 0)
(152.785 0 0)
(153.748 0 0)
(154.709 0 0)
(155.667 0 0)
(156.622 0 0)
(157.574 0 0)
(158.523 0 0)
(159.47 0 0)
(160.413 0 0)
(161.353 0 0)
(162.29 0 0)
(163.225 0 0)
(164.155 0 0)
(165.083 0 0)
(166.007 0 0)
(166.928 0 0)
(167.846 0 0)
(168.76 0 0)
(169.67 0 0)
(170.577 0 0)
(171.481 0 0)
(172.381 0 0)
(173.277 0 0)
(174.169 0 0)
(175.058 0 0)
(175.943 0 0)
(176.825 0 0)
(177.702 0 0)
(178.576 0 0)
(179.446 0 0)
(180.312 0 0)
(181.175 0 0)
(182.033 0 0)
(182.887 0 0)
(183.738 0 0)
(184.584 0 0)
(185.427 0 0)