/*--------------------------------*- C++ -*----------------------------------*\
| =========                 |                                                 |
| \\      /  F ield         | OpenFOAM: The Open Source CFD Toolbox           |
|  \\    /   O peration     | Version:  2312                                  |
|   \\  /    A nd           | Website:  www.openfoam.com                      |
|    \\/     M anipulation  |                                                 |
\*---------------------------------------------------------------------------*/
FoamFile
{
    version     2.0;
    format      ascii;
    arch        "LSB;label=32;scalar=64";
    class       volVectorField;
    location    "0.705";
    object      U;
}
// * * * * * * * * * * * * * * * * * * * * * * * * * * * * * * * * * * * * * //

dimensions      [0 1 -1 0 0 0 0];

internalField   nonuniform List<vector> 
31205
(
(297.138 0 0)
(296.644 0 0)
(296.111 0 0)
(295.538 0 0)
(294.925 0 0)
(294.27 0 0)
(293.574 0 0)
(292.836 0 0)
(292.055 0 0)
(291.229 0 0)
(290.359 0 0)
(289.442 0 0)
(288.479 0 0)
(287.466 0 0)
(286.404 0 0)
(285.291 0 0)
(284.125 0 0)
(282.904 0 0)
(281.627 0 0)
(280.291 0 0)
(278.893 0 0)
(277.432 0 0)
(275.904 0 0)
(274.307 0 0)
(272.636 0 0)
(270.887 0 0)
(269.057 0 0)
(267.14 0 0)
(265.131 0 0)
(263.022 0 0)
(260.806 0 0)
(258.475 0 0)
(256.019 0 0)
(253.425 0 0)
(250.679 0 0)
(247.764 0 0)
(244.658 0 0)
(241.335 0 0)
(237.761 0 0)
(233.885 0 0)
(229.633 0 0)
(224.94 0 0)
(219.795 0 0)
(213.965 0 0)
(206.045 0 0)
(192.951 0 0)
(172.758 0 0)
(149.205 0 0)
(129.381 0 0)
(116.679 0 0)
(109.882 0 0)
(106.615 0 0)
(105.199 0 0)
(104.735 0 0)
(104.779 0 0)
(105.114 0 0)
(105.629 0 0)
(106.264 0 0)
(106.982 0 0)
(107.762 0 0)
(108.589 0 0)
(109.454 0 0)
(110.348 0 0)
(111.266 0 0)
(112.205 0 0)
(113.159 0 0)
(114.128 0 0)
(115.108 0 0)
(116.098 0 0)
(117.097 0 0)
(118.102 0 0)
(119.113 0 0)
(120.129 0 0)
(121.148 0 0)
(122.176 0 0)
(123.19 0 0)
(124.257 0 0)
(125.172 0 0)
(126.559 0 0)
(296.693 0 0)
(296.178 0 0)
(295.626 0 0)
(295.036 0 0)
(294.407 0 0)
(293.738 0 0)
(293.029 0 0)
(292.28 0 0)
(291.489 0 0)
(290.656 0 0)
(289.779 0 0)
(288.857 0 0)
(287.891 0 0)
(286.877 0 0)
(285.815 0 0)
(284.704 0 0)
(283.541 0 0)
(282.326 0 0)
(281.056 0 0)
(279.729 0 0)
(278.343 0 0)
(276.895 0 0)
(275.383 0 0)
(273.804 0 0)
(272.153 0 0)
(270.428 0 0)
(268.624 0 0)
(266.736 0 0)
(264.759 0 0)
(262.686 0 0)
(260.511 0 0)
(258.225 0 0)
(255.818 0 0)
(253.28 0 0)
(250.597 0 0)
(247.752 0 0)
(244.725 0 0)
(241.493 0 0)
(238.024 0 0)
(234.275 0 0)
(230.176 0 0)
(225.657 0 0)
(220.698 0 0)
(215.192 0 0)
(208.181 0 0)
(196.973 0 0)
(178.817 0 0)
(155.638 0 0)
(134.262 0 0)
(119.564 0 0)
(111.338 0 0)
(107.261 0 0)
(105.413 0 0)
(104.71 0 0)
(104.61 0 0)
(104.848 0 0)
(105.29 0 0)
(105.865 0 0)
(106.532 0 0)
(107.265 0 0)
(108.05 0 0)
(108.874 0 0)
(109.73 0 0)
(110.611 0 0)
(111.514 0 0)
(112.434 0 0)
(113.368 0 0)
(114.315 0 0)
(115.272 0 0)
(116.238 0 0)
(117.212 0 0)
(118.191 0 0)
(119.177 0 0)
(120.165 0 0)
(121.162 0 0)
(122.146 0 0)
(123.181 0 0)
(124.071 0 0)
(125.413 0 0)
(296.203 0 0)
(295.669 0 0)
(295.098 0 0)
(294.491 0 0)
(293.846 0 0)
(293.164 0 0)
(292.443 0 0)
(291.682 0 0)
(290.882 0 0)
(290.04 0 0)
(289.157 0 0)
(288.231 0 0)
(287.26 0 0)
(286.245 0 0)
(285.183 0 0)
(284.073 0 0)
(282.914 0 0)
(281.703 0 0)
(280.44 0 0)
(279.121 0 0)
(277.745 0 0)
(276.31 0 0)
(274.812 0 0)
(273.249 0 0)
(271.617 0 0)
(269.913 0 0)
(268.133 0 0)
(266.272 0 0)
(264.325 0 0)
(262.285 0 0)
(260.147 0 0)
(257.902 0 0)
(255.541 0 0)
(253.054 0 0)
(250.427 0 0)
(247.647 0 0)
(244.693 0 0)
(241.543 0 0)
(238.169 0 0)
(234.532 0 0)
(230.571 0 0)
(226.211 0 0)
(221.419 0 0)
(216.153 0 0)
(209.79 0 0)
(200.11 0 0)
(183.997 0 0)
(161.742 0 0)
(139.328 0 0)
(122.752 0 0)
(113.015 0 0)
(108.039 0 0)
(105.709 0 0)
(104.743 0 0)
(104.487 0 0)
(104.623 0 0)
(104.989 0 0)
(105.504 0 0)
(106.119 0 0)
(106.806 0 0)
(107.549 0 0)
(108.333 0 0)
(109.151 0 0)
(109.996 0 0)
(110.863 0 0)
(111.749 0 0)
(112.65 0 0)
(113.565 0 0)
(114.49 0 0)
(115.424 0 0)
(116.367 0 0)
(117.315 0 0)
(118.27 0 0)
(119.229 0 0)
(120.196 0 0)
(121.151 0 0)
(122.155 0 0)
(123.021 0 0)
(124.318 0 0)
(295.684 0 0)
(295.13 0 0)
(294.542 0 0)
(293.919 0 0)
(293.26 0 0)
(292.564 0 0)
(291.832 0 0)
(291.061 0 0)
(290.252 0 0)
(289.403 0 0)
(288.513 0 0)
(287.582 0 0)
(286.609 0 0)
(285.592 0 0)
(284.529 0 0)
(283.421 0 0)
(282.264 0 0)
(281.058 0 0)
(279.801 0 0)
(278.49 0 0)
(277.124 0 0)
(275.7 0 0)
(274.215 0 0)
(272.668 0 0)
(271.054 0 0)
(269.37 0 0)
(267.612 0 0)
(265.776 0 0)
(263.856 0 0)
(261.848 0 0)
(259.744 0 0)
(257.537 0 0)
(255.219 0 0)
(252.779 0 0)
(250.206 0 0)
(247.484 0 0)
(244.597 0 0)
(241.523 0 0)
(238.236 0 0)
(234.701 0 0)
(230.863 0 0)
(226.65 0 0)
(222.013 0 0)
(216.94 0 0)
(211.041 0 0)
(202.565 0 0)
(188.362 0 0)
(167.41 0 0)
(144.471 0 0)
(126.209 0 0)
(114.915 0 0)
(108.957 0 0)
(106.09 0 0)
(104.834 0 0)
(104.412 0 0)
(104.439 0 0)
(104.729 0 0)
(105.183 0 0)
(105.746 0 0)
(106.388 0 0)
(107.089 0 0)
(107.834 0 0)
(108.615 0 0)
(109.424 0 0)
(110.257 0 0)
(111.109 0 0)
(111.978 0 0)
(112.86 0 0)
(113.754 0 0)
(114.658 0 0)
(115.57 0 0)
(116.488 0 0)
(117.414 0 0)
(118.342 0 0)
(119.28 0 0)
(120.207 0 0)
(121.181 0 0)
(122.023 0 0)
(123.278 0 0)
(295.142 0 0)
(294.572 0 0)
(293.968 0 0)
(293.33 0 0)
(292.658 0 0)
(291.95 0 0)
(291.207 0 0)
(290.427 0 0)
(289.61 0 0)
(288.754 0 0)
(287.859 0 0)
(286.925 0 0)
(285.949 0 0)
(284.93 0 0)
(283.868 0 0)
(282.761 0 0)
(281.608 0 0)
(280.406 0 0)
(279.155 0 0)
(277.852 0 0)
(276.496 0 0)
(275.083 0 0)
(273.612 0 0)
(272.079 0 0)
(270.482 0 0)
(268.818 0 0)
(267.082 0 0)
(265.27 0 0)
(263.377 0 0)
(261.398 0 0)
(259.328 0 0)
(257.157 0 0)
(254.88 0 0)
(252.485 0 0)
(249.962 0 0)
(247.297 0 0)
(244.473 0 0)
(241.471 0 0)
(238.266 0 0)
(234.825 0 0)
(231.102 0 0)
(227.026 0 0)
(222.539 0 0)
(217.634 0 0)
(212.086 0 0)
(204.567 0 0)
(192.12 0 0)
(172.74 0 0)
(149.752 0 0)
(130.009 0 0)
(117.098 0 0)
(110.048 0 0)
(106.572 0 0)
(104.989 0 0)
(104.381 0 0)
(104.293 0 0)
(104.502 0 0)
(104.893 0 0)
(105.405 0 0)
(106.001 0 0)
(106.66 0 0)
(107.367 0 0)
(108.111 0 0)
(108.886 0 0)
(109.685 0 0)
(110.504 0 0)
(111.341 0 0)
(112.192 0 0)
(113.055 0 0)
(113.928 0 0)
(114.81 0 0)
(115.699 0 0)
(116.595 0 0)
(117.496 0 0)
(118.405 0 0)
(119.304 0 0)
(120.248 0 0)
(121.067 0 0)
(122.281 0 0)
(294.584 0 0)
(293.998 0 0)
(293.38 0 0)
(292.729 0 0)
(292.045 0 0)
(291.327 0 0)
(290.574 0 0)
(289.786 0 0)
(288.962 0 0)
(288.101 0 0)
(287.202 0 0)
(286.264 0 0)
(285.286 0 0)
(284.267 0 0)
(283.206 0 0)
(282.102 0 0)
(280.952 0 0)
(279.756 0 0)
(278.511 0 0)
(277.216 0 0)
(275.869 0 0)
(274.468 0 0)
(273.01 0 0)
(271.493 0 0)
(269.913 0 0)
(268.268 0 0)
(266.553 0 0)
(264.765 0 0)
(262.898 0 0)
(260.949 0 0)
(258.91 0 0)
(256.776 0 0)
(254.538 0 0)
(252.187 0 0)
(249.713 0 0)
(247.102 0 0)
(244.339 0 0)
(241.406 0 0)
(238.279 0 0)
(234.929 0 0)
(231.313 0 0)
(227.367 0 0)
(223.027 0 0)
(218.278 0 0)
(213.004 0 0)
(206.247 0 0)
(195.388 0 0)
(177.763 0 0)
(155.186 0 0)
(134.212 0 0)
(119.632 0 0)
(111.359 0 0)
(107.178 0 0)
(105.216 0 0)
(104.398 0 0)
(104.183 0 0)
(104.306 0 0)
(104.632 0 0)
(105.091 0 0)
(105.641 0 0)
(106.258 0 0)
(106.926 0 0)
(107.634 0 0)
(108.374 0 0)
(109.14 0 0)
(109.927 0 0)
(110.732 0 0)
(111.552 0 0)
(112.385 0 0)
(113.228 0 0)
(114.081 0 0)
(114.942 0 0)
(115.809 0 0)
(116.681 0 0)
(117.562 0 0)
(118.434 0 0)
(119.349 0 0)
(120.144 0 0)
(121.321 0 0)
(294.012 0 0)
(293.412 0 0)
(292.782 0 0)
(292.119 0 0)
(291.425 0 0)
(290.697 0 0)
(289.937 0 0)
(289.142 0 0)
(288.312 0 0)
(287.446 0 0)
(286.544 0 0)
(285.604 0 0)
(284.625 0 0)
(283.607 0 0)
(282.547 0 0)
(281.445 0 0)
(280.3 0 0)
(279.109 0 0)
(277.872 0 0)
(276.586 0 0)
(275.249 0 0)
(273.86 0 0)
(272.415 0 0)
(270.913 0 0)
(269.35 0 0)
(267.724 0 0)
(266.031 0 0)
(264.266 0 0)
(262.426 0 0)
(260.505 0 0)
(258.499 0 0)
(256.399 0 0)
(254.2 0 0)
(251.892 0 0)
(249.465 0 0)
(246.907 0 0)
(244.204 0 0)
(241.338 0 0)
(238.286 0 0)
(235.023 0 0)
(231.51 0 0)
(227.688 0 0)
(223.491 0 0)
(218.892 0 0)
(213.84 0 0)
(207.684 0 0)
(198.223 0 0)
(182.454 0 0)
(160.731 0 0)
(138.845 0 0)
(122.581 0 0)
(112.937 0 0)
(107.933 0 0)
(105.528 0 0)
(104.468 0 0)
(104.11 0 0)
(104.139 0 0)
(104.397 0 0)
(104.801 0 0)
(105.304 0 0)
(105.88 0 0)
(106.51 0 0)
(107.181 0 0)
(107.887 0 0)
(108.62 0 0)
(109.375 0 0)
(110.149 0 0)
(110.939 0 0)
(111.742 0 0)
(112.556 0 0)
(113.38 0 0)
(114.212 0 0)
(115.052 0 0)
(115.896 0 0)
(116.749 0 0)
(117.594 0 0)
(118.481 0 0)
(119.253 0 0)
(120.392 0 0)
(293.429 0 0)
(292.817 0 0)
(292.175 0 0)
(291.502 0 0)
(290.799 0 0)
(290.063 0 0)
(289.296 0 0)
(288.495 0 0)
(287.661 0 0)
(286.791 0 0)
(285.887 0 0)
(284.945 0 0)
(283.967 0 0)
(282.949 0 0)
(281.892 0 0)
(280.794 0 0)
(279.654 0 0)
(278.469 0 0)
(277.24 0 0)
(275.963 0 0)
(274.636 0 0)
(273.259 0 0)
(271.828 0 0)
(270.342 0 0)
(268.796 0 0)
(267.189 0 0)
(265.517 0 0)
(263.776 0 0)
(261.962 0 0)
(260.07 0 0)
(258.094 0 0)
(256.03 0 0)
(253.869 0 0)
(251.603 0 0)
(249.222 0 0)
(246.716 0 0)
(244.071 0 0)
(241.269 0 0)
(238.291 0 0)
(235.112 0 0)
(231.697 0 0)
(227.994 0 0)
(223.936 0 0)
(219.484 0 0)
(214.62 0 0)
(208.932 0 0)
(200.666 0 0)
(186.764 0 0)
(166.296 0 0)
(143.896 0 0)
(125.996 0 0)
(114.835 0 0)
(108.872 0 0)
(105.941 0 0)
(104.598 0 0)
(104.078 0 0)
(104.004 0 0)
(104.189 0 0)
(104.536 0 0)
(104.991 0 0)
(105.524 0 0)
(106.116 0 0)
(106.751 0 0)
(107.423 0 0)
(108.123 0 0)
(108.847 0 0)
(109.59 0 0)
(110.35 0 0)
(111.124 0 0)
(111.909 0 0)
(112.705 0 0)
(113.509 0 0)
(114.321 0 0)
(115.138 0 0)
(115.964 0 0)
(116.783 0 0)
(117.643 0 0)
(118.392 0 0)
(119.495 0 0)
(292.835 0 0)
(292.212 0 0)
(291.561 0 0)
(290.879 0 0)
(290.168 0 0)
(289.426 0 0)
(288.653 0 0)
(287.847 0 0)
(287.009 0 0)
(286.138 0 0)
(285.231 0 0)
(284.29 0 0)
(283.312 0 0)
(282.297 0 0)
(281.243 0 0)
(280.149 0 0)
(279.014 0 0)
(277.836 0 0)
(276.615 0 0)
(275.347 0 0)
(274.032 0 0)
(272.667 0 0)
(271.25 0 0)
(269.779 0 0)
(268.251 0 0)
(266.664 0 0)
(265.013 0 0)
(263.295 0 0)
(261.507 0 0)
(259.643 0 0)
(257.699 0 0)
(255.668 0 0)
(253.544 0 0)
(251.32 0 0)
(248.985 0 0)
(246.53 0 0)
(243.941 0 0)
(241.202 0 0)
(238.295 0 0)
(235.197 0 0)
(231.876 0 0)
(228.287 0 0)
(224.364 0 0)
(220.057 0 0)
(215.36 0 0)
(210.035 0 0)
(202.757 0 0)
(190.645 0 0)
(171.764 0 0)
(149.313 0 0)
(129.914 0 0)
(117.11 0 0)
(110.032 0 0)
(106.476 0 0)
(104.799 0 0)
(104.092 0 0)
(103.903 0 0)
(104.008 0 0)
(104.295 0 0)
(104.701 0 0)
(105.192 0 0)
(105.744 0 0)
(106.344 0 0)
(106.981 0 0)
(107.649 0 0)
(108.341 0 0)
(109.054 0 0)
(109.785 0 0)
(110.529 0 0)
(111.287 0 0)
(112.055 0 0)
(112.832 0 0)
(113.617 0 0)
(114.407 0 0)
(115.207 0 0)
(116 0 0)
(116.832 0 0)
(117.559 0 0)
(118.626 0 0)
(292.234 0 0)
(291.601 0 0)
(290.941 0 0)
(290.252 0 0)
(289.534 0 0)
(288.786 0 0)
(288.009 0 0)
(287.2 0 0)
(286.359 0 0)
(285.486 0 0)
(284.579 0 0)
(283.638 0 0)
(282.661 0 0)
(281.649 0 0)
(280.598 0 0)
(279.51 0 0)
(278.381 0 0)
(277.211 0 0)
(275.997 0 0)
(274.74 0 0)
(273.436 0 0)
(272.084 0 0)
(270.681 0 0)
(269.226 0 0)
(267.716 0 0)
(266.147 0 0)
(264.518 0 0)
(262.824 0 0)
(261.061 0 0)
(259.225 0 0)
(257.312 0 0)
(255.315 0 0)
(253.228 0 0)
(251.044 0 0)
(248.754 0 0)
(246.348 0 0)
(243.814 0 0)
(241.137 0 0)
(238.299 0 0)
(235.279 0 0)
(232.049 0 0)
(228.567 0 0)
(224.774 0 0)
(220.612 0 0)
(216.069 0 0)
(211.026 0 0)
(204.54 0 0)
(194.072 0 0)
(177.011 0 0)
(155.005 0 0)
(134.352 0 0)
(119.817 0 0)
(111.455 0 0)
(107.158 0 0)
(105.082 0 0)
(104.157 0 0)
(103.838 0 0)
(103.857 0 0)
(104.08 0 0)
(104.435 0 0)
(104.881 0 0)
(105.394 0 0)
(105.958 0 0)
(106.561 0 0)
(107.197 0 0)
(107.858 0 0)
(108.541 0 0)
(109.243 0 0)
(109.959 0 0)
(110.689 0 0)
(111.429 0 0)
(112.179 0 0)
(112.938 0 0)
(113.702 0 0)
(114.476 0 0)
(115.243 0 0)
(116.049 0 0)
(116.754 0 0)
(117.787 0 0)
(291.625 0 0)
(290.984 0 0)
(290.316 0 0)
(289.621 0 0)
(288.898 0 0)
(288.146 0 0)
(287.364 0 0)
(286.552 0 0)
(285.71 0 0)
(284.836 0 0)
(283.929 0 0)
(282.99 0 0)
(282.015 0 0)
(281.006 0 0)
(279.96 0 0)
(278.877 0 0)
(277.755 0 0)
(276.592 0 0)
(275.388 0 0)
(274.141 0 0)
(272.848 0 0)
(271.509 0 0)
(270.121 0 0)
(268.682 0 0)
(267.19 0 0)
(265.64 0 0)
(264.032 0 0)
(262.361 0 0)
(260.624 0 0)
(258.816 0 0)
(256.933 0 0)
(254.969 0 0)
(252.919 0 0)
(250.774 0 0)
(248.528 0 0)
(246.171 0 0)
(243.69 0 0)
(241.073 0 0)
(238.303 0 0)
(235.359 0 0)
(232.215 0 0)
(228.837 0 0)
(225.168 0 0)
(221.147 0 0)
(216.752 0 0)
(211.933 0 0)
(206.066 0 0)
(197.042 0 0)
(181.92 0 0)
(160.851 0 0)
(139.297 0 0)
(123.009 0 0)
(113.193 0 0)
(108.015 0 0)
(105.464 0 0)
(104.281 0 0)
(103.813 0 0)
(103.736 0 0)
(103.891 0 0)
(104.192 0 0)
(104.593 0 0)
(105.066 0 0)
(105.594 0 0)
(106.163 0 0)
(106.767 0 0)
(107.397 0 0)
(108.051 0 0)
(108.724 0 0)
(109.412 0 0)
(110.114 0 0)
(110.828 0 0)
(111.551 0 0)
(112.284 0 0)
(113.022 0 0)
(113.77 0 0)
(114.513 0 0)
(115.293 0 0)
(115.976 0 0)
(116.975 0 0)
(291.01 0 0)
(290.362 0 0)
(289.688 0 0)
(288.988 0 0)
(288.26 0 0)
(287.504 0 0)
(286.72 0 0)
(285.907 0 0)
(285.063 0 0)
(284.189 0 0)
(283.284 0 0)
(282.346 0 0)
(281.375 0 0)
(280.369 0 0)
(279.328 0 0)
(278.251 0 0)
(277.136 0 0)
(275.981 0 0)
(274.787 0 0)
(273.55 0 0)
(272.27 0 0)
(270.944 0 0)
(269.57 0 0)
(268.147 0 0)
(266.672 0 0)
(265.143 0 0)
(263.556 0 0)
(261.908 0 0)
(260.196 0 0)
(258.415 0 0)
(256.562 0 0)
(254.631 0 0)
(252.616 0 0)
(250.511 0 0)
(248.308 0 0)
(245.998 0 0)
(243.57 0 0)
(241.011 0 0)
(238.306 0 0)
(235.435 0 0)
(232.376 0 0)
(229.095 0 0)
(225.545 0 0)
(221.662 0 0)
(217.412 0 0)
(212.78 0 0)
(207.385 0 0)
(199.578 0 0)
(186.397 0 0)
(166.706 0 0)
(144.706 0 0)
(126.733 0 0)
(115.302 0 0)
(109.084 0 0)
(105.962 0 0)
(104.473 0 0)
(103.832 0 0)
(103.649 0 0)
(103.729 0 0)
(103.974 0 0)
(104.328 0 0)
(104.761 0 0)
(105.251 0 0)
(105.787 0 0)
(106.358 0 0)
(106.959 0 0)
(107.583 0 0)
(108.227 0 0)
(108.888 0 0)
(109.563 0 0)
(110.25 0 0)
(110.948 0 0)
(111.655 0 0)
(112.368 0 0)
(113.091 0 0)
(113.809 0 0)
(114.564 0 0)
(115.226 0 0)
(116.191 0 0)
(290.391 0 0)
(289.737 0 0)
(289.058 0 0)
(288.353 0 0)
(287.622 0 0)
(286.863 0 0)
(286.077 0 0)
(285.263 0 0)
(284.419 0 0)
(283.546 0 0)
(282.642 0 0)
(281.707 0 0)
(280.739 0 0)
(279.738 0 0)
(278.703 0 0)
(277.632 0 0)
(276.524 0 0)
(275.378 0 0)
(274.193 0 0)
(272.968 0 0)
(271.699 0 0)
(270.387 0 0)
(269.029 0 0)
(267.622 0 0)
(266.165 0 0)
(264.654 0 0)
(263.088 0 0)
(261.463 0 0)
(259.776 0 0)
(258.023 0 0)
(256.2 0 0)
(254.301 0 0)
(252.321 0 0)
(250.255 0 0)
(248.094 0 0)
(245.83 0 0)
(243.452 0 0)
(240.95 0 0)
(238.308 0 0)
(235.509 0 0)
(232.53 0 0)
(229.343 0 0)
(225.905 0 0)
(222.156 0 0)
(218.051 0 0)
(213.582 0 0)
(208.542 0 0)
(201.722 0 0)
(190.381 0 0)
(172.415 0 0)
(150.495 0 0)
(131.02 0 0)
(117.843 0 0)
(110.41 0 0)
(106.6 0 0)
(104.745 0 0)
(103.902 0 0)
(103.597 0 0)
(103.596 0 0)
(103.78 0 0)
(104.086 0 0)
(104.477 0 0)
(104.93 0 0)
(105.432 0 0)
(105.971 0 0)
(106.541 0 0)
(107.136 0 0)
(107.752 0 0)
(108.386 0 0)
(109.035 0 0)
(109.696 0 0)
(110.368 0 0)
(111.049 0 0)
(111.738 0 0)
(112.436 0 0)
(113.131 0 0)
(113.861 0 0)
(114.502 0 0)
(115.434 0 0)
(289.768 0 0)
(289.109 0 0)
(288.426 0 0)
(287.718 0 0)
(286.984 0 0)
(286.224 0 0)
(285.437 0 0)
(284.622 0 0)
(283.779 0 0)
(282.907 0 0)
(282.006 0 0)
(281.073 0 0)
(280.11 0 0)
(279.113 0 0)
(278.084 0 0)
(277.02 0 0)
(275.92 0 0)
(274.783 0 0)
(273.609 0 0)
(272.394 0 0)
(271.138 0 0)
(269.839 0 0)
(268.496 0 0)
(267.105 0 0)
(265.666 0 0)
(264.175 0 0)
(262.63 0 0)
(261.028 0 0)
(259.366 0 0)
(257.639 0 0)
(255.845 0 0)
(253.978 0 0)
(252.033 0 0)
(250.004 0 0)
(247.884 0 0)
(245.665 0 0)
(243.338 0 0)
(240.891 0 0)
(238.31 0 0)
(235.58 0 0)
(232.679 0 0)
(229.582 0 0)
(226.251 0 0)
(222.63 0 0)
(218.666 0 0)
(214.348 0 0)
(209.579 0 0)
(203.532 0 0)
(193.846 0 0)
(177.828 0 0)
(156.542 0 0)
(135.875 0 0)
(120.879 0 0)
(112.043 0 0)
(107.409 0 0)
(105.112 0 0)
(104.029 0 0)
(103.584 0 0)
(103.493 0 0)
(103.612 0 0)
(103.867 0 0)
(104.215 0 0)
(104.631 0 0)
(105.098 0 0)
(105.605 0 0)
(106.145 0 0)
(106.711 0 0)
(107.299 0 0)
(107.906 0 0)
(108.528 0 0)
(109.164 0 0)
(109.811 0 0)
(110.467 0 0)
(111.132 0 0)
(111.806 0 0)
(112.477 0 0)
(113.182 0 0)
(113.803 0 0)
(114.704 0 0)
(289.143 0 0)
(288.48 0 0)
(287.794 0 0)
(287.083 0 0)
(286.347 0 0)
(285.586 0 0)
(284.798 0 0)
(283.984 0 0)
(283.143 0 0)
(282.273 0 0)
(281.374 0 0)
(280.445 0 0)
(279.486 0 0)
(278.496 0 0)
(277.472 0 0)
(276.416 0 0)
(275.324 0 0)
(274.197 0 0)
(273.032 0 0)
(271.829 0 0)
(270.586 0 0)
(269.301 0 0)
(267.972 0 0)
(266.598 0 0)
(265.176 0 0)
(263.705 0 0)
(262.181 0 0)
(260.601 0 0)
(258.963 0 0)
(257.264 0 0)
(255.498 0 0)
(253.662 0 0)
(251.751 0 0)
(249.759 0 0)
(247.68 0 0)
(245.505 0 0)
(243.226 0 0)
(240.833 0 0)
(238.312 0 0)
(235.648 0 0)
(232.822 0 0)
(229.811 0 0)
(226.582 0 0)
(223.083 0 0)
(219.259 0 0)
(215.086 0 0)
(210.529 0 0)
(205.067 0 0)
(196.801 0 0)
(182.816 0 0)
(162.693 0 0)
(141.27 0 0)
(124.468 0 0)
(114.045 0 0)
(108.425 0 0)
(105.592 0 0)
(104.222 0 0)
(103.615 0 0)
(103.422 0 0)
(103.471 0 0)
(103.672 0 0)
(103.975 0 0)
(104.353 0 0)
(104.785 0 0)
(105.26 0 0)
(105.77 0 0)
(106.307 0 0)
(106.868 0 0)
(107.448 0 0)
(108.044 0 0)
(108.654 0 0)
(109.276 0 0)
(109.909 0 0)
(110.549 0 0)
(111.199 0 0)
(111.848 0 0)
(112.529 0 0)
(113.13 0 0)
(113.999 0 0)
(288.517 0 0)
(287.851 0 0)
(287.162 0 0)
(286.449 0 0)
(285.712 0 0)
(284.951 0 0)
(284.163 0 0)
(283.35 0 0)
(282.511 0 0)
(281.643 0 0)
(280.748 0 0)
(279.824 0 0)
(278.869 0 0)
(277.885 0 0)
(276.868 0 0)
(275.819 0 0)
(274.736 0 0)
(273.618 0 0)
(272.464 0 0)
(271.273 0 0)
(270.042 0 0)
(268.771 0 0)
(267.457 0 0)
(266.1 0 0)
(264.696 0 0)
(263.243 0 0)
(261.74 0 0)
(260.183 0 0)
(258.57 0 0)
(256.896 0 0)
(255.159 0 0)
(253.354 0 0)
(251.476 0 0)
(249.521 0 0)
(247.48 0 0)
(245.349 0 0)
(243.117 0 0)
(240.776 0 0)
(238.313 0 0)
(235.714 0 0)
(232.961 0 0)
(230.032 0 0)
(226.899 0 0)
(223.516 0 0)
(219.827 0 0)
(215.797 0 0)
(211.416 0 0)
(206.387 0 0)
(199.286 0 0)
(187.285 0 0)
(168.772 0 0)
(147.133 0 0)
(128.656 0 0)
(116.483 0 0)
(109.694 0 0)
(106.21 0 0)
(104.494 0 0)
(103.695 0 0)
(103.386 0 0)
(103.358 0 0)
(103.501 0 0)
(103.758 0 0)
(104.096 0 0)
(104.493 0 0)
(104.936 0 0)
(105.415 0 0)
(105.924 0 0)
(106.457 0 0)
(107.011 0 0)
(107.581 0 0)
(108.166 0 0)
(108.764 0 0)
(109.372 0 0)
(109.989 0 0)
(110.616 0 0)
(111.242 0 0)
(111.9 0 0)
(112.481 0 0)
(113.32 0 0)
(287.89 0 0)
(287.221 0 0)
(286.531 0 0)
(285.817 0 0)
(285.08 0 0)
(284.318 0 0)
(283.532 0 0)
(282.721 0 0)
(281.884 0 0)
(281.019 0 0)
(280.128 0 0)
(279.208 0 0)
(278.26 0 0)
(277.281 0 0)
(276.272 0 0)
(275.23 0 0)
(274.156 0 0)
(273.048 0 0)
(271.905 0 0)
(270.725 0 0)
(269.507 0 0)
(268.25 0 0)
(266.952 0 0)
(265.61 0 0)
(264.224 0 0)
(262.791 0 0)
(261.308 0 0)
(259.774 0 0)
(258.184 0 0)
(256.537 0 0)
(254.828 0 0)
(253.053 0 0)
(251.208 0 0)
(249.287 0 0)
(247.286 0 0)
(245.196 0 0)
(243.011 0 0)
(240.72 0 0)
(238.313 0 0)
(235.777 0 0)
(233.094 0 0)
(230.245 0 0)
(227.203 0 0)
(223.93 0 0)
(220.372 0 0)
(216.482 0 0)
(212.257 0 0)
(207.548 0 0)
(201.361 0 0)
(191.185 0 0)
(174.598 0 0)
(153.344 0 0)
(133.463 0 0)
(119.428 0 0)
(111.27 0 0)
(106.996 0 0)
(104.859 0 0)
(103.831 0 0)
(103.389 0 0)
(103.274 0 0)
(103.355 0 0)
(103.564 0 0)
(103.86 0 0)
(104.222 0 0)
(104.632 0 0)
(105.081 0 0)
(105.561 0 0)
(106.067 0 0)
(106.594 0 0)
(107.14 0 0)
(107.7 0 0)
(108.273 0 0)
(108.858 0 0)
(109.452 0 0)
(110.056 0 0)
(110.66 0 0)
(111.294 0 0)
(111.856 0 0)
(112.665 0 0)
(287.263 0 0)
(286.593 0 0)
(285.901 0 0)
(285.187 0 0)
(284.45 0 0)
(283.69 0 0)
(282.906 0 0)
(282.096 0 0)
(281.262 0 0)
(280.401 0 0)
(279.514 0 0)
(278.6 0 0)
(277.657 0 0)
(276.685 0 0)
(275.683 0 0)
(274.65 0 0)
(273.585 0 0)
(272.487 0 0)
(271.354 0 0)
(270.187 0 0)
(268.982 0 0)
(267.739 0 0)
(266.455 0 0)
(265.13 0 0)
(263.762 0 0)
(262.348 0 0)
(260.885 0 0)
(259.373 0 0)
(257.807 0 0)
(256.185 0 0)
(254.503 0 0)
(252.758 0 0)
(250.945 0 0)
(249.06 0 0)
(247.096 0 0)
(245.048 0 0)
(242.907 0 0)
(240.666 0 0)
(238.313 0 0)
(235.837 0 0)
(233.222 0 0)
(230.449 0 0)
(227.495 0 0)
(224.326 0 0)
(220.892 0 0)
(217.142 0 0)
(213.062 0 0)
(208.593 0 0)
(203.096 0 0)
(194.507 0 0)
(180.011 0 0)
(159.74 0 0)
(138.875 0 0)
(122.949 0 0)
(113.218 0 0)
(107.99 0 0)
(105.337 0 0)
(104.034 0 0)
(103.435 0 0)
(103.223 0 0)
(103.236 0 0)
(103.393 0 0)
(103.647 0 0)
(103.971 0 0)
(104.348 0 0)
(104.767 0 0)
(105.218 0 0)
(105.697 0 0)
(106.198 0 0)
(106.718 0 0)
(107.255 0 0)
(107.804 0 0)
(108.366 0 0)
(108.936 0 0)
(109.518 0 0)
(110.1 0 0)
(110.712 0 0)
(111.254 0 0)
(112.034 0 0)
(286.637 0 0)
(285.967 0 0)
(285.275 0 0)
(284.561 0 0)
(283.825 0 0)
(283.066 0 0)
(282.284 0 0)
(281.477 0 0)
(280.646 0 0)
(279.79 0 0)
(278.907 0 0)
(277.998 0 0)
(277.061 0 0)
(276.096 0 0)
(275.102 0 0)
(274.078 0 0)
(273.022 0 0)
(271.934 0 0)
(270.813 0 0)
(269.657 0 0)
(268.465 0 0)
(267.236 0 0)
(265.968 0 0)
(264.659 0 0)
(263.308 0 0)
(261.913 0 0)
(260.471 0 0)
(258.98 0 0)
(257.438 0 0)
(255.841 0 0)
(254.187 0 0)
(252.471 0 0)
(250.689 0 0)
(248.838 0 0)
(246.911 0 0)
(244.903 0 0)
(242.806 0 0)
(240.613 0 0)
(238.313 0 0)
(235.895 0 0)
(233.345 0 0)
(230.646 0 0)
(227.776 0 0)
(224.705 0 0)
(221.39 0 0)
(217.775 0 0)
(213.836 0 0)
(209.557 0 0)
(204.564 0 0)
(197.287 0 0)
(184.883 0 0)
(166.124 0 0)
(144.828 0 0)
(127.104 0 0)
(115.613 0 0)
(109.238 0 0)
(105.954 0 0)
(104.315 0 0)
(103.531 0 0)
(103.206 0 0)
(103.144 0 0)
(103.245 0 0)
(103.455 0 0)
(103.741 0 0)
(104.085 0 0)
(104.472 0 0)
(104.895 0 0)
(105.347 0 0)
(105.822 0 0)
(106.318 0 0)
(106.83 0 0)
(107.356 0 0)
(107.894 0 0)
(108.443 0 0)
(109.002 0 0)
(109.562 0 0)
(110.152 0 0)
(110.676 0 0)
(111.427 0 0)
(286.014 0 0)
(285.343 0 0)
(284.651 0 0)
(283.938 0 0)
(283.203 0 0)
(282.447 0 0)
(281.667 0 0)
(280.864 0 0)
(280.036 0 0)
(279.184 0 0)
(278.307 0 0)
(277.404 0 0)
(276.474 0 0)
(275.516 0 0)
(274.529 0 0)
(273.514 0 0)
(272.468 0 0)
(271.39 0 0)
(270.28 0 0)
(269.136 0 0)
(267.958 0 0)
(266.743 0 0)
(265.49 0 0)
(264.197 0 0)
(262.864 0 0)
(261.487 0 0)
(260.066 0 0)
(258.596 0 0)
(257.077 0 0)
(255.505 0 0)
(253.877 0 0)
(252.19 0 0)
(250.44 0 0)
(248.621 0 0)
(246.731 0 0)
(244.762 0 0)
(242.708 0 0)
(240.561 0 0)
(238.312 0 0)
(235.951 0 0)
(233.465 0 0)
(230.836 0 0)
(228.046 0 0)
(225.069 0 0)
(221.865 0 0)
(218.381 0 0)
(214.582 0 0)
(210.462 0 0)
(205.833 0 0)
(199.586 0 0)
(189.138 0 0)
(172.29 0 0)
(151.202 0 0)
(131.926 0 0)
(118.533 0 0)
(110.8 0 0)
(106.741 0 0)
(104.69 0 0)
(103.683 0 0)
(103.228 0 0)
(103.082 0 0)
(103.123 0 0)
(103.285 0 0)
(103.532 0 0)
(103.841 0 0)
(104.198 0 0)
(104.592 0 0)
(105.017 0 0)
(105.466 0 0)
(105.937 0 0)
(106.425 0 0)
(106.928 0 0)
(107.444 0 0)
(107.97 0 0)
(108.507 0 0)
(109.046 0 0)
(109.614 0 0)
(110.12 0 0)
(110.843 0 0)
(285.392 0 0)
(284.722 0 0)
(284.031 0 0)
(283.319 0 0)
(282.587 0 0)
(281.832 0 0)
(281.056 0 0)
(280.256 0 0)
(279.433 0 0)
(278.586 0 0)
(277.714 0 0)
(276.817 0 0)
(275.894 0 0)
(274.943 0 0)
(273.965 0 0)
(272.958 0 0)
(271.922 0 0)
(270.855 0 0)
(269.756 0 0)
(268.625 0 0)
(267.459 0 0)
(266.258 0 0)
(265.021 0 0)
(263.744 0 0)
(262.428 0 0)
(261.07 0 0)
(259.668 0 0)
(258.22 0 0)
(256.724 0 0)
(255.177 0 0)
(253.575 0 0)
(251.916 0 0)
(250.196 0 0)
(248.41 0 0)
(246.555 0 0)
(244.624 0 0)
(242.612 0 0)
(240.51 0 0)
(238.311 0 0)
(236.005 0 0)
(233.579 0 0)
(231.019 0 0)
(228.306 0 0)
(225.417 0 0)
(222.318 0 0)
(218.961 0 0)
(215.299 0 0)
(211.324 0 0)
(206.96 0 0)
(201.486 0 0)
(192.755 0 0)
(178.044 0 0)
(157.822 0 0)
(137.41 0 0)
(122.057 0 0)
(112.746 0 0)
(107.74 0 0)
(105.181 0 0)
(103.902 0 0)
(103.293 0 0)
(103.052 0 0)
(103.027 0 0)
(103.139 0 0)
(103.345 0 0)
(103.618 0 0)
(103.943 0 0)
(104.308 0 0)
(104.706 0 0)
(105.13 0 0)
(105.575 0 0)
(106.04 0 0)
(106.52 0 0)
(107.013 0 0)
(107.517 0 0)
(108.034 0 0)
(108.552 0 0)
(109.098 0 0)
(109.586 0 0)
(110.282 0 0)
(284.774 0 0)
(284.104 0 0)
(283.415 0 0)
(282.705 0 0)
(281.975 0 0)
(281.224 0 0)
(280.45 0 0)
(279.655 0 0)
(278.837 0 0)
(277.995 0 0)
(277.129 0 0)
(276.238 0 0)
(275.322 0 0)
(274.379 0 0)
(273.409 0 0)
(272.412 0 0)
(271.385 0 0)
(270.329 0 0)
(269.241 0 0)
(268.122 0 0)
(266.97 0 0)
(265.783 0 0)
(264.56 0 0)
(263.3 0 0)
(262.001 0 0)
(260.662 0 0)
(259.28 0 0)
(257.853 0 0)
(256.379 0 0)
(254.855 0 0)
(253.28 0 0)
(251.648 0 0)
(249.958 0 0)
(248.204 0 0)
(246.383 0 0)
(244.49 0 0)
(242.518 0 0)
(240.461 0 0)
(238.31 0 0)
(236.057 0 0)
(233.69 0 0)
(231.195 0 0)
(228.556 0 0)
(225.751 0 0)
(222.752 0 0)
(219.513 0 0)
(215.986 0 0)
(212.151 0 0)
(207.987 0 0)
(203.073 0 0)
(195.762 0 0)
(183.229 0 0)
(164.472 0 0)
(143.495 0 0)
(126.254 0 0)
(115.155 0 0)
(109.002 0 0)
(105.813 0 0)
(104.201 0 0)
(103.409 0 0)
(103.057 0 0)
(102.958 0 0)
(103.016 0 0)
(103.179 0 0)
(103.416 0 0)
(103.708 0 0)
(104.044 0 0)
(104.414 0 0)
(104.812 0 0)
(105.233 0 0)
(105.674 0 0)
(106.131 0 0)
(106.603 0 0)
(107.085 0 0)
(107.58 0 0)
(108.078 0 0)
(108.603 0 0)
(109.073 0 0)
(109.742 0 0)
(284.16 0 0)
(283.491 0 0)
(282.804 0 0)
(282.097 0 0)
(281.369 0 0)
(280.621 0 0)
(279.852 0 0)
(279.061 0 0)
(278.247 0 0)
(277.411 0 0)
(276.551 0 0)
(275.667 0 0)
(274.758 0 0)
(273.823 0 0)
(272.862 0 0)
(271.873 0 0)
(270.857 0 0)
(269.811 0 0)
(268.736 0 0)
(267.629 0 0)
(266.489 0 0)
(265.317 0 0)
(264.109 0 0)
(262.865 0 0)
(261.583 0 0)
(260.262 0 0)
(258.899 0 0)
(257.493 0 0)
(256.041 0 0)
(254.542 0 0)
(252.991 0 0)
(251.387 0 0)
(249.726 0 0)
(248.003 0 0)
(246.216 0 0)
(244.359 0 0)
(242.427 0 0)
(240.412 0 0)
(238.308 0 0)
(236.107 0 0)
(233.796 0 0)
(231.365 0 0)
(228.796 0 0)
(226.072 0 0)
(223.166 0 0)
(220.04 0 0)
(216.645 0 0)
(212.947 0 0)
(208.945 0 0)
(204.426 0 0)
(198.227 0 0)
(187.749 0 0)
(170.917 0 0)
(150.055 0 0)
(131.166 0 0)
(118.117 0 0)
(110.59 0 0)
(106.623 0 0)
(104.598 0 0)
(103.582 0 0)
(103.1 0 0)
(102.918 0 0)
(102.918 0 0)
(103.034 0 0)
(103.234 0 0)
(103.493 0 0)
(103.799 0 0)
(104.141 0 0)
(104.514 0 0)
(104.91 0 0)
(105.328 0 0)
(105.762 0 0)
(106.212 0 0)
(106.673 0 0)
(107.147 0 0)
(107.625 0 0)
(108.129 0 0)
(108.581 0 0)
(109.224 0 0)
(283.549 0 0)
(282.883 0 0)
(282.198 0 0)
(281.493 0 0)
(280.769 0 0)
(280.025 0 0)
(279.26 0 0)
(278.473 0 0)
(277.665 0 0)
(276.834 0 0)
(275.981 0 0)
(275.104 0 0)
(274.202 0 0)
(273.276 0 0)
(272.323 0 0)
(271.344 0 0)
(270.338 0 0)
(269.303 0 0)
(268.239 0 0)
(267.144 0 0)
(266.018 0 0)
(264.859 0 0)
(263.667 0 0)
(262.439 0 0)
(261.174 0 0)
(259.871 0 0)
(258.527 0 0)
(257.141 0 0)
(255.712 0 0)
(254.235 0 0)
(252.709 0 0)
(251.132 0 0)
(249.499 0 0)
(247.808 0 0)
(246.053 0 0)
(244.232 0 0)
(242.337 0 0)
(240.365 0 0)
(238.307 0 0)
(236.155 0 0)
(233.899 0 0)
(231.528 0 0)
(229.028 0 0)
(226.381 0 0)
(223.563 0 0)
(220.543 0 0)
(217.273 0 0)
(213.711 0 0)
(209.854 0 0)
(205.613 0 0)
(200.241 0 0)
(191.569 0 0)
(176.931 0 0)
(156.9 0 0)
(136.791 0 0)
(121.72 0 0)
(112.581 0 0)
(107.653 0 0)
(105.114 0 0)
(103.824 0 0)
(103.189 0 0)
(102.911 0 0)
(102.845 0 0)
(102.913 0 0)
(103.072 0 0)
(103.297 0 0)
(103.573 0 0)
(103.887 0 0)
(104.234 0 0)
(104.606 0 0)
(105 0 0)
(105.412 0 0)
(105.84 0 0)
(106.28 0 0)
(106.734 0 0)
(107.191 0 0)
(107.675 0 0)
(108.11 0 0)
(108.727 0 0)
(282.944 0 0)
(282.279 0 0)
(281.597 0 0)
(280.896 0 0)
(280.175 0 0)
(279.435 0 0)
(278.674 0 0)
(277.893 0 0)
(277.09 0 0)
(276.266 0 0)
(275.419 0 0)
(274.549 0 0)
(273.655 0 0)
(272.737 0 0)
(271.793 0 0)
(270.824 0 0)
(269.827 0 0)
(268.803 0 0)
(267.751 0 0)
(266.669 0 0)
(265.556 0 0)
(264.411 0 0)
(263.233 0 0)
(262.021 0 0)
(260.773 0 0)
(259.487 0 0)
(258.163 0 0)
(256.798 0 0)
(255.389 0 0)
(253.936 0 0)
(252.434 0 0)
(250.883 0 0)
(249.278 0 0)
(247.617 0 0)
(245.894 0 0)
(244.107 0 0)
(242.251 0 0)
(240.319 0 0)
(238.304 0 0)
(236.201 0 0)
(233.998 0 0)
(231.686 0 0)
(229.251 0 0)
(226.677 0 0)
(223.944 0 0)
(221.023 0 0)
(217.872 0 0)
(214.444 0 0)
(210.724 0 0)
(206.687 0 0)
(201.904 0 0)
(194.72 0 0)
(182.336 0 0)
(163.789 0 0)
(143.066 0 0)
(126.039 0 0)
(115.065 0 0)
(108.961 0 0)
(105.779 0 0)
(104.15 0 0)
(103.328 0 0)
(102.94 0 0)
(102.8 0 0)
(102.815 0 0)
(102.932 0 0)
(103.121 0 0)
(103.366 0 0)
(103.652 0 0)
(103.972 0 0)
(104.32 0 0)
(104.691 0 0)
(105.081 0 0)
(105.487 0 0)
(105.907 0 0)
(106.34 0 0)
(106.778 0 0)
(107.241 0 0)
(107.659 0 0)
(108.251 0 0)
(282.343 0 0)
(281.681 0 0)
(281.002 0 0)
(280.304 0 0)
(279.588 0 0)
(278.852 0 0)
(278.096 0 0)
(277.32 0 0)
(276.523 0 0)
(275.705 0 0)
(274.865 0 0)
(274.002 0 0)
(273.116 0 0)
(272.206 0 0)
(271.272 0 0)
(270.312 0 0)
(269.326 0 0)
(268.313 0 0)
(267.272 0 0)
(266.202 0 0)
(265.102 0 0)
(263.971 0 0)
(262.808 0 0)
(261.612 0 0)
(260.38 0 0)
(259.113 0 0)
(257.807 0 0)
(256.461 0 0)
(255.074 0 0)
(253.643 0 0)
(252.166 0 0)
(250.64 0 0)
(249.063 0 0)
(247.43 0 0)
(245.74 0 0)
(243.986 0 0)
(242.166 0 0)
(240.273 0 0)
(238.302 0 0)
(236.245 0 0)
(234.094 0 0)
(231.838 0 0)
(229.466 0 0)
(226.963 0 0)
(224.31 0 0)
(221.482 0 0)
(218.443 0 0)
(215.145 0 0)
(211.559 0 0)
(207.685 0 0)
(203.308 0 0)
(197.277 0 0)
(187.017 0 0)
(170.456 0 0)
(149.851 0 0)
(131.124 0 0)
(118.138 0 0)
(110.617 0 0)
(106.631 0 0)
(104.578 0 0)
(103.528 0 0)
(103.008 0 0)
(102.785 0 0)
(102.741 0 0)
(102.813 0 0)
(102.966 0 0)
(103.178 0 0)
(103.436 0 0)
(103.73 0 0)
(104.053 0 0)
(104.4 0 0)
(104.768 0 0)
(105.153 0 0)
(105.551 0 0)
(105.964 0 0)
(106.383 0 0)
(106.826 0 0)
(107.228 0 0)
(107.794 0 0)
(281.748 0 0)
(281.089 0 0)
(280.414 0 0)
(279.72 0 0)
(279.007 0 0)
(278.276 0 0)
(277.526 0 0)
(276.755 0 0)
(275.964 0 0)
(275.153 0 0)
(274.319 0 0)
(273.464 0 0)
(272.586 0 0)
(271.685 0 0)
(270.759 0 0)
(269.809 0 0)
(268.833 0 0)
(267.831 0 0)
(266.802 0 0)
(265.744 0 0)
(264.658 0 0)
(263.541 0 0)
(262.392 0 0)
(261.211 0 0)
(259.996 0 0)
(258.746 0 0)
(257.459 0 0)
(256.133 0 0)
(254.766 0 0)
(253.358 0 0)
(251.904 0 0)
(250.403 0 0)
(248.853 0 0)
(247.249 0 0)
(245.589 0 0)
(243.869 0 0)
(242.084 0 0)
(240.229 0 0)
(238.299 0 0)
(236.287 0 0)