/*--------------------------------*- C++ -*----------------------------------*\
| =========                 |                                                 |
| \\      /  F ield         | OpenFOAM: The Open Source CFD Toolbox           |
|  \\    /   O peration     | Version:  2312                                  |
|   \\  /    A nd           | Website:  www.openfoam.com                      |
|    \\/     M anipulation  |                                                 |
\*---------------------------------------------------------------------------*/
FoamFile
{
    version     2.0;
    format      ascii;
    arch        "LSB;label=32;scalar=64";
    class       volVectorField;
    location    "0.551";
    object      U;
}
// * * * * * * * * * * * * * * * * * * * * * * * * * * * * * * * * * * * * * //

dimensions      [0 1 -1 0 0 0 0];

internalField   nonuniform List<vector> 
31205
(
(243.224 0 0)
(240.995 0 0)
(238.698 0 0)
(236.327 0 0)
(233.879 0 0)
(231.35 0 0)
(228.735 0 0)
(226.029 0 0)
(223.224 0 0)
(220.315 0 0)
(217.292 0 0)
(214.148 0 0)
(210.871 0 0)
(207.449 0 0)
(203.868 0 0)
(200.11 0 0)
(196.154 0 0)
(191.977 0 0)
(187.547 0 0)
(182.826 0 0)
(177.766 0 0)
(172.308 0 0)
(166.374 0 0)
(159.873 0 0)
(152.743 0 0)
(145.033 0 0)
(137.008 0 0)
(129.155 0 0)
(122.035 0 0)
(116.075 0 0)
(111.439 0 0)
(108.061 0 0)
(105.745 0 0)
(104.267 0 0)
(103.424 0 0)
(103.056 0 0)
(103.041 0 0)
(103.292 0 0)
(103.744 0 0)
(104.35 0 0)
(105.077 0 0)
(105.898 0 0)
(106.795 0 0)
(107.753 0 0)
(108.76 0 0)
(109.808 0 0)
(110.889 0 0)
(111.998 0 0)
(113.129 0 0)
(114.28 0 0)
(115.446 0 0)
(116.626 0 0)
(117.817 0 0)
(119.016 0 0)
(120.223 0 0)
(121.436 0 0)
(122.654 0 0)
(123.876 0 0)
(125.101 0 0)
(126.328 0 0)
(127.557 0 0)
(128.786 0 0)
(130.016 0 0)
(131.245 0 0)
(132.474 0 0)
(133.702 0 0)
(134.929 0 0)
(136.155 0 0)
(137.379 0 0)
(138.6 0 0)
(139.82 0 0)
(141.037 0 0)
(142.252 0 0)
(143.463 0 0)
(144.676 0 0)
(145.868 0 0)
(147.115 0 0)
(148.182 0 0)
(149.789 0 0)
(241.209 0 0)
(238.98 0 0)
(236.682 0 0)
(234.312 0 0)
(231.865 0 0)
(229.338 0 0)
(226.725 0 0)
(224.02 0 0)
(221.217 0 0)
(218.31 0 0)
(215.29 0 0)
(212.147 0 0)
(208.871 0 0)
(205.45 0 0)
(201.868 0 0)
(198.108 0 0)
(194.149 0 0)
(189.965 0 0)
(185.525 0 0)
(180.79 0 0)
(175.711 0 0)
(170.226 0 0)
(164.257 0 0)
(157.721 0 0)
(150.577 0 0)
(142.914 0 0)
(135.04 0 0)
(127.45 0 0)
(120.669 0 0)
(115.059 0 0)
(110.73 0 0)
(107.591 0 0)
(105.444 0 0)
(104.077 0 0)
(103.302 0 0)
(102.971 0 0)
(102.971 0 0)
(103.222 0 0)
(103.664 0 0)
(104.253 0 0)
(104.958 0 0)
(105.754 0 0)
(106.623 0 0)
(107.551 0 0)
(108.528 0 0)
(109.543 0 0)
(110.592 0 0)
(111.668 0 0)
(112.767 0 0)
(113.884 0 0)
(115.017 0 0)
(116.163 0 0)
(117.321 0 0)
(118.487 0 0)
(119.661 0 0)
(120.841 0 0)
(122.026 0 0)
(123.216 0 0)
(124.408 0 0)
(125.602 0 0)
(126.799 0 0)
(127.996 0 0)
(129.194 0 0)
(130.391 0 0)
(131.589 0 0)
(132.786 0 0)
(133.981 0 0)
(135.176 0 0)
(136.369 0 0)
(137.56 0 0)
(138.749 0 0)
(139.935 0 0)
(141.12 0 0)
(142.3 0 0)
(143.484 0 0)
(144.646 0 0)
(145.861 0 0)
(146.904 0 0)
(148.463 0 0)
(239.088 0 0)
(236.858 0 0)
(234.559 0 0)
(232.189 0 0)
(229.742 0 0)
(227.214 0 0)
(224.601 0 0)
(221.895 0 0)
(219.092 0 0)
(216.184 0 0)
(213.163 0 0)
(210.018 0 0)
(206.74 0 0)
(203.314 0 0)
(199.727 0 0)
(195.959 0 0)
(191.989 0 0)
(187.792 0 0)
(183.333 0 0)
(178.574 0 0)
(173.464 0 0)
(167.939 0 0)
(161.923 0 0)
(155.342 0 0)
(148.185 0 0)
(140.591 0 0)
(132.904 0 0)
(125.622 0 0)
(119.22 0 0)
(113.99 0 0)
(109.989 0 0)
(107.101 0 0)
(105.133 0 0)
(103.885 0 0)
(103.183 0 0)
(102.893 0 0)
(102.913 0 0)
(103.167 0 0)
(103.602 0 0)
(104.176 0 0)
(104.861 0 0)
(105.633 0 0)
(106.476 0 0)
(107.376 0 0)
(108.323 0 0)
(109.308 0 0)
(110.326 0 0)
(111.37 0 0)
(112.436 0 0)
(113.521 0 0)
(114.622 0 0)
(115.736 0 0)
(116.861 0 0)
(117.995 0 0)
(119.137 0 0)
(120.285 0 0)
(121.438 0 0)
(122.596 0 0)
(123.756 0 0)
(124.919 0 0)
(126.084 0 0)
(127.25 0 0)
(128.417 0 0)
(129.584 0 0)
(130.75 0 0)
(131.916 0 0)
(133.082 0 0)
(134.246 0 0)
(135.409 0 0)
(136.569 0 0)
(137.729 0 0)
(138.885 0 0)
(140.041 0 0)
(141.191 0 0)
(142.345 0 0)
(143.479 0 0)
(144.664 0 0)
(145.683 0 0)
(147.196 0 0)
(236.921 0 0)
(234.689 0 0)
(232.388 0 0)
(230.016 0 0)
(227.567 0 0)
(225.038 0 0)
(222.422 0 0)
(219.715 0 0)
(216.909 0 0)
(213.998 0 0)
(210.972 0 0)
(207.823 0 0)
(204.538 0 0)
(201.105 0 0)
(197.507 0 0)
(193.727 0 0)
(189.741 0 0)
(185.523 0 0)
(181.038 0 0)
(176.246 0 0)
(171.094 0 0)
(165.517 0 0)
(159.442 0 0)
(152.812 0 0)
(145.652 0 0)
(138.15 0 0)
(130.688 0 0)
(123.749 0 0)
(117.75 0 0)
(112.911 0 0)
(109.242 0 0)
(106.608 0 0)
(104.821 0 0)
(103.693 0 0)
(103.068 0 0)
(102.822 0 0)
(102.863 0 0)
(103.124 0 0)
(103.554 0 0)
(104.117 0 0)
(104.784 0 0)
(105.534 0 0)
(106.353 0 0)
(107.226 0 0)
(108.145 0 0)
(109.101 0 0)
(110.089 0 0)
(111.103 0 0)
(112.139 0 0)
(113.193 0 0)
(114.262 0 0)
(115.345 0 0)
(116.439 0 0)
(117.542 0 0)
(118.652 0 0)
(119.769 0 0)
(120.891 0 0)
(122.018 0 0)
(123.147 0 0)
(124.28 0 0)
(125.414 0 0)
(126.549 0 0)
(127.686 0 0)
(128.823 0 0)
(129.959 0 0)
(131.096 0 0)
(132.231 0 0)
(133.366 0 0)
(134.499 0 0)
(135.631 0 0)
(136.761 0 0)
(137.888 0 0)
(139.015 0 0)
(140.137 0 0)
(141.262 0 0)
(142.368 0 0)
(143.522 0 0)
(144.518 0 0)
(145.988 0 0)
(234.737 0 0)
(232.502 0 0)
(230.199 0 0)
(227.824 0 0)
(225.373 0 0)
(222.841 0 0)
(220.223 0 0)
(217.512 0 0)
(214.703 0 0)
(211.787 0 0)
(208.756 0 0)
(205.6 0 0)
(202.307 0 0)
(198.863 0 0)
(195.252 0 0)
(191.455 0 0)
(187.449 0 0)
(183.206 0 0)
(178.689 0 0)
(173.858 0 0)
(168.657 0 0)
(163.021 0 0)
(156.883 0 0)
(150.208 0 0)
(143.065 0 0)
(135.689 0 0)
(128.487 0 0)
(121.915 0 0)
(116.326 0 0)
(111.874 0 0)
(108.525 0 0)
(106.135 0 0)
(104.521 0 0)
(103.509 0 0)
(102.958 0 0)
(102.756 0 0)
(102.819 0 0)
(103.088 0 0)
(103.514 0 0)
(104.066 0 0)
(104.717 0 0)
(105.447 0 0)
(106.243 0 0)
(107.091 0 0)
(107.983 0 0)
(108.912 0 0)
(109.871 0 0)
(110.856 0 0)
(111.862 0 0)
(112.886 0 0)
(113.926 0 0)
(114.978 0 0)
(116.042 0 0)
(117.114 0 0)
(118.194 0 0)
(119.281 0 0)
(120.373 0 0)
(121.469 0 0)
(122.569 0 0)
(123.672 0 0)
(124.776 0 0)
(125.882 0 0)
(126.989 0 0)
(128.096 0 0)
(129.204 0 0)
(130.311 0 0)
(131.418 0 0)
(132.523 0 0)
(133.628 0 0)
(134.731 0 0)
(135.832 0 0)
(136.932 0 0)
(138.03 0 0)
(139.124 0 0)
(140.221 0 0)
(141.299 0 0)
(142.424 0 0)
(143.396 0 0)
(144.826 0 0)
(232.549 0 0)
(230.312 0 0)
(228.007 0 0)
(225.63 0 0)
(223.176 0 0)
(220.641 0 0)
(218.019 0 0)
(215.305 0 0)
(212.491 0 0)
(209.569 0 0)
(206.532 0 0)
(203.367 0 0)
(200.064 0 0)
(196.608 0 0)
(192.982 0 0)
(189.167 0 0)
(185.137 0 0)
(180.865 0 0)
(176.313 0 0)
(171.437 0 0)
(166.181 0 0)
(160.483 0 0)
(154.284 0 0)
(147.578 0 0)
(140.478 0 0)
(133.266 0 0)
(126.355 0 0)
(120.166 0 0)
(114.984 0 0)
(110.903 0 0)
(107.857 0 0)
(105.694 0 0)
(104.24 0 0)
(103.337 0 0)
(102.855 0 0)
(102.694 0 0)
(102.779 0 0)
(103.054 0 0)
(103.478 0 0)
(104.02 0 0)
(104.655 0 0)
(105.367 0 0)
(106.14 0 0)
(106.965 0 0)
(107.831 0 0)
(108.734 0 0)
(109.665 0 0)
(110.622 0 0)
(111.599 0 0)
(112.595 0 0)
(113.605 0 0)
(114.628 0 0)
(115.662 0 0)
(116.705 0 0)
(117.756 0 0)
(118.814 0 0)
(119.876 0 0)
(120.943 0 0)
(122.014 0 0)
(123.087 0 0)
(124.163 0 0)
(125.24 0 0)
(126.318 0 0)
(127.397 0 0)
(128.476 0 0)
(129.555 0 0)
(130.633 0 0)
(131.71 0 0)
(132.787 0 0)
(133.862 0 0)
(134.935 0 0)
(136.007 0 0)
(137.077 0 0)
(138.144 0 0)
(139.213 0 0)
(140.265 0 0)
(141.361 0 0)
(142.31 0 0)
(143.701 0 0)
(230.365 0 0)
(228.125 0 0)
(225.818 0 0)
(223.438 0 0)
(220.982 0 0)
(218.443 0 0)
(215.818 0 0)
(213.099 0 0)
(210.28 0 0)
(207.352 0 0)
(204.307 0 0)
(201.133 0 0)
(197.819 0 0)
(194.349 0 0)
(190.706 0 0)
(186.87 0 0)
(182.815 0 0)
(178.51 0 0)
(173.919 0 0)
(168.995 0 0)
(163.682 0 0)
(157.92 0 0)
(151.666 0 0)
(144.948 0 0)
(137.925 0 0)
(130.913 0 0)
(124.321 0 0)
(118.523 0 0)
(113.737 0 0)
(110.008 0 0)
(107.243 0 0)
(105.29 0 0)
(103.983 0 0)
(103.179 0 0)
(102.76 0 0)
(102.637 0 0)
(102.742 0 0)
(103.023 0 0)
(103.444 0 0)
(103.976 0 0)
(104.597 0 0)
(105.29 0 0)
(106.042 0 0)
(106.844 0 0)
(107.686 0 0)
(108.563 0 0)
(109.468 0 0)
(110.397 0 0)
(111.347 0 0)
(112.314 0 0)
(113.297 0 0)
(114.292 0 0)
(115.297 0 0)
(116.312 0 0)
(117.334 0 0)
(118.363 0 0)
(119.397 0 0)
(120.436 0 0)
(121.478 0 0)
(122.523 0 0)
(123.57 0 0)
(124.619 0 0)
(125.669 0 0)
(126.72 0 0)
(127.771 0 0)
(128.823 0 0)
(129.873 0 0)
(130.923 0 0)
(131.972 0 0)
(133.02 0 0)
(134.066 0 0)
(135.111 0 0)
(136.154 0 0)
(137.194 0 0)
(138.236 0 0)
(139.261 0 0)
(140.33 0 0)
(141.256 0 0)
(142.609 0 0)
(228.185 0 0)
(225.943 0 0)
(223.634 0 0)
(221.251 0 0)
(218.792 0 0)
(216.251 0 0)
(213.621 0 0)
(210.898 0 0)
(208.073 0 0)
(205.139 0 0)
(202.085 0 0)
(198.901 0 0)
(195.574 0 0)
(192.089 0 0)
(188.428 0 0)
(184.569 0 0)
(180.485 0 0)
(176.146 0 0)
(171.513 0 0)
(166.537 0 0)
(161.165 0 0)
(155.341 0 0)
(149.044 0 0)
(142.338 0 0)
(135.427 0 0)
(128.651 0 0)
(122.4 0 0)
(116.993 0 0)
(112.589 0 0)
(109.189 0 0)
(106.683 0 0)
(104.921 0 0)
(103.748 0 0)
(103.035 0 0)
(102.674 0 0)
(102.585 0 0)
(102.707 0 0)
(102.994 0 0)
(103.412 0 0)
(103.934 0 0)
(104.541 0 0)
(105.216 0 0)
(105.948 0 0)
(106.728 0 0)
(107.546 0 0)
(108.398 0 0)
(109.277 0 0)
(110.181 0 0)
(111.104 0 0)
(112.044 0 0)
(112.999 0 0)
(113.966 0 0)
(114.944 0 0)
(115.931 0 0)
(116.926 0 0)
(117.927 0 0)
(118.934 0 0)
(119.945 0 0)
(120.959 0 0)
(121.977 0 0)
(122.997 0 0)
(124.018 0 0)
(125.041 0 0)
(126.065 0 0)
(127.089 0 0)
(128.113 0 0)
(129.137 0 0)
(130.16 0 0)
(131.182 0 0)
(132.203 0 0)
(133.223 0 0)
(134.241 0 0)
(135.258 0 0)
(136.271 0 0)
(137.287 0 0)
(138.287 0 0)
(139.328 0 0)
(140.231 0 0)
(141.548 0 0)
(226.01 0 0)
(223.767 0 0)
(221.455 0 0)
(219.07 0 0)
(216.608 0 0)
(214.063 0 0)
(211.43 0 0)
(208.701 0 0)
(205.871 0 0)
(202.929 0 0)
(199.866 0 0)
(196.671 0 0)
(193.331 0 0)
(189.829 0 0)
(186.147 0 0)
(182.263 0 0)
(178.149 0 0)
(173.773 0 0)
(169.094 0 0)
(164.065 0 0)
(158.631 0 0)
(152.751 0 0)
(146.426 0 0)
(139.763 0 0)
(133.001 0 0)
(126.492 0 0)
(120.596 0 0)
(115.576 0 0)
(111.536 0 0)
(108.442 0 0)
(106.174 0 0)
(104.586 0 0)
(103.536 0 0)
(102.904 0 0)
(102.595 0 0)
(102.538 0 0)
(102.675 0 0)
(102.967 0 0)
(103.381 0 0)
(103.894 0 0)
(104.487 0 0)
(105.145 0 0)
(105.858 0 0)
(106.615 0 0)
(107.411 0 0)
(108.239 0 0)
(109.094 0 0)
(109.971 0 0)
(110.869 0 0)
(111.783 0 0)
(112.711 0 0)
(113.652 0 0)
(114.603 0 0)
(115.564 0 0)
(116.531 0 0)
(117.505 0 0)
(118.485 0 0)
(119.469 0 0)
(120.457 0 0)
(121.448 0 0)
(122.441 0 0)
(123.436 0 0)
(124.432 0 0)
(125.429 0 0)
(126.427 0 0)
(127.425 0 0)
(128.422 0 0)
(129.419 0 0)
(130.415 0 0)
(131.41 0 0)
(132.404 0 0)
(133.396 0 0)
(134.388 0 0)
(135.375 0 0)
(136.366 0 0)
(137.34 0 0)
(138.354 0 0)
(139.236 0 0)
(140.517 0 0)
(223.841 0 0)
(221.596 0 0)
(219.282 0 0)
(216.895 0 0)
(214.43 0 0)
(211.881 0 0)
(209.244 0 0)
(206.51 0 0)
(203.672 0 0)
(200.722 0 0)
(197.65 0 0)
(194.443 0 0)
(191.087 0 0)
(187.568 0 0)
(183.864 0 0)
(179.953 0 0)
(175.806 0 0)
(171.39 0 0)
(166.663 0 0)
(161.577 0 0)
(156.084 0 0)
(150.155 0 0)
(143.824 0 0)
(137.235 0 0)
(130.659 0 0)
(124.443 0 0)
(118.912 0 0)
(114.27 0 0)
(110.574 0 0)
(107.763 0 0)
(105.713 0 0)
(104.282 0 0)
(103.343 0 0)
(102.785 0 0)
(102.525 0 0)
(102.495 0 0)
(102.647 0 0)
(102.942 0 0)
(103.352 0 0)
(103.856 0 0)
(104.435 0 0)
(105.076 0 0)
(105.77 0 0)
(106.507 0 0)
(107.281 0 0)
(108.085 0 0)
(108.916 0 0)
(109.769 0 0)
(110.642 0 0)
(111.53 0 0)
(112.433 0 0)
(113.348 0 0)
(114.273 0 0)
(115.208 0 0)
(116.149 0 0)
(117.097 0 0)
(118.051 0 0)
(119.009 0 0)
(119.97 0 0)
(120.935 0 0)
(121.902 0 0)
(122.871 0 0)
(123.842 0 0)
(124.813 0 0)
(125.785 0 0)
(126.757 0 0)
(127.729 0 0)
(128.701 0 0)
(129.671 0 0)
(130.641 0 0)
(131.61 0 0)
(132.577 0 0)
(133.543 0 0)
(134.505 0 0)
(135.471 0 0)
(136.42 0 0)
(137.409 0 0)
(138.269 0 0)
(139.515 0 0)
(221.678 0 0)
(219.431 0 0)
(217.115 0 0)
(214.726 0 0)
(212.257 0 0)
(209.705 0 0)
(207.062 0 0)
(204.322 0 0)
(201.478 0 0)
(198.519 0 0)
(195.435 0 0)
(192.215 0 0)
(188.844 0 0)
(185.304 0 0)
(181.576 0 0)
(177.636 0 0)
(173.454 0 0)
(168.995 0 0)
(164.217 0 0)
(159.075 0 0)
(153.525 0 0)
(147.561 0 0)
(141.248 0 0)
(134.768 0 0)
(128.411 0 0)
(122.511 0 0)
(117.347 0 0)
(113.07 0 0)
(109.696 0 0)
(107.146 0 0)
(105.294 0 0)
(104.008 0 0)
(103.169 0 0)
(102.679 0 0)
(102.461 0 0)
(102.456 0 0)
(102.62 0 0)
(102.919 0 0)
(103.325 0 0)
(103.819 0 0)
(104.385 0 0)
(105.01 0 0)
(105.686 0 0)
(106.403 0 0)
(107.155 0 0)
(107.937 0 0)
(108.745 0 0)
(109.574 0 0)
(110.422 0 0)
(111.286 0 0)
(112.164 0 0)
(113.054 0 0)
(113.954 0 0)
(114.863 0 0)
(115.779 0 0)
(116.702 0 0)
(117.63 0 0)
(118.563 0 0)
(119.499 0 0)
(120.439 0 0)
(121.381 0 0)
(122.324 0 0)
(123.27 0 0)
(124.216 0 0)
(125.163 0 0)
(126.11 0 0)
(127.057 0 0)
(128.004 0 0)
(128.95 0 0)
(129.895 0 0)
(130.839 0 0)
(131.781 0 0)
(132.723 0 0)
(133.661 0 0)
(134.602 0 0)
(135.527 0 0)
(136.49 0 0)
(137.33 0 0)
(138.542 0 0)
(219.521 0 0)
(217.272 0 0)
(214.954 0 0)
(212.562 0 0)
(210.09 0 0)
(207.533 0 0)
(204.885 0 0)
(202.139 0 0)
(199.286 0 0)
(196.318 0 0)
(193.222 0 0)
(189.988 0 0)
(186.599 0 0)
(183.038 0 0)
(179.284 0 0)
(175.312 0 0)
(171.092 0 0)
(166.588 0 0)
(161.758 0 0)
(156.558 0 0)
(150.959 0 0)
(144.976 0 0)
(138.71 0 0)
(132.373 0 0)
(126.266 0 0)
(120.699 0 0)
(115.899 0 0)
(111.971 0 0)
(108.898 0 0)
(106.587 0 0)
(104.916 0 0)
(103.76 0 0)
(103.011 0 0)
(102.582 0 0)
(102.403 0 0)
(102.422 0 0)
(102.597 0 0)
(102.897 0 0)
(103.299 0 0)
(103.784 0 0)
(104.337 0 0)
(104.947 0 0)
(105.604 0 0)
(106.302 0 0)
(107.033 0 0)
(107.794 0 0)
(108.579 0 0)
(109.386 0 0)
(110.21 0 0)
(111.051 0 0)
(111.905 0 0)
(112.77 0 0)
(113.646 0 0)
(114.53 0 0)
(115.422 0 0)
(116.32 0 0)
(117.223 0 0)
(118.131 0 0)
(119.043 0 0)
(119.958 0 0)
(120.875 0 0)
(121.794 0 0)
(122.715 0 0)
(123.637 0 0)
(124.56 0 0)
(125.482 0 0)
(126.405 0 0)
(127.328 0 0)
(128.249 0 0)
(129.17 0 0)
(130.09 0 0)
(131.009 0 0)
(131.927 0 0)
(132.841 0 0)
(133.758 0 0)
(134.66 0 0)
(135.599 0 0)
(136.418 0 0)
(137.597 0 0)
(217.37 0 0)
(215.119 0 0)
(212.799 0 0)
(210.403 0 0)
(207.928 0 0)
(205.367 0 0)
(202.713 0 0)
(199.959 0 0)
(197.098 0 0)
(194.119 0 0)
(191.01 0 0)
(187.76 0 0)
(184.352 0 0)
(180.767 0 0)
(176.986 0 0)
(172.98 0 0)
(168.72 0 0)
(164.168 0 0)
(159.284 0 0)
(154.03 0 0)
(148.391 0 0)
(142.41 0 0)
(136.222 0 0)
(130.063 0 0)
(124.233 0 0)
(119.006 0 0)
(114.564 0 0)
(110.966 0 0)
(108.172 0 0)
(106.08 0 0)
(104.573 0 0)
(103.535 0 0)
(102.869 0 0)
(102.496 0 0)
(102.352 0 0)
(102.391 0 0)
(102.575 0 0)
(102.877 0 0)
(103.274 0 0)
(103.75 0 0)
(104.291 0 0)
(104.885 0 0)
(105.526 0 0)
(106.205 0 0)
(106.916 0 0)
(107.656 0 0)
(108.419 0 0)
(109.204 0 0)
(110.006 0 0)
(110.823 0 0)
(111.653 0 0)
(112.496 0 0)
(113.347 0 0)
(114.208 0 0)
(115.076 0 0)
(115.95 0 0)
(116.829 0 0)
(117.713 0 0)
(118.601 0 0)
(119.492 0 0)
(120.386 0 0)
(121.281 0 0)
(122.178 0 0)
(123.076 0 0)
(123.975 0 0)
(124.874 0 0)
(125.773 0 0)
(126.672 0 0)
(127.571 0 0)
(128.468 0 0)
(129.365 0 0)
(130.26 0 0)
(131.154 0 0)
(132.045 0 0)
(132.939 0 0)
(133.819 0 0)
(134.733 0 0)
(135.532 0 0)
(136.678 0 0)
(215.224 0 0)
(212.972 0 0)
(210.649 0 0)
(208.251 0 0)
(205.771 0 0)
(203.204 0 0)
(200.544 0 0)
(197.783 0 0)
(194.912 0 0)
(191.921 0 0)
(188.798 0 0)
(185.531 0 0)
(182.102 0 0)
(178.493 0 0)
(174.68 0 0)
(170.639 0 0)
(166.335 0 0)
(161.734 0 0)
(156.796 0 0)
(151.493 0 0)
(145.828 0 0)
(139.874 0 0)
(133.796 0 0)
(127.849 0 0)
(122.315 0 0)
(117.433 0 0)
(113.337 0 0)
(110.05 0 0)
(107.513 0 0)
(105.622 0 0)
(104.263 0 0)
(103.333 0 0)
(102.741 0 0)
(102.418 0 0)
(102.306 0 0)
(102.363 0 0)
(102.556 0 0)
(102.859 0 0)
(103.251 0 0)
(103.718 0 0)
(104.246 0 0)
(104.826 0 0)
(105.45 0 0)
(106.111 0 0)
(106.803 0 0)
(107.522 0 0)
(108.265 0 0)
(109.028 0 0)
(109.808 0 0)
(110.603 0 0)
(111.411 0 0)
(112.23 0 0)
(113.059 0 0)
(113.896 0 0)
(114.741 0 0)
(115.592 0 0)
(116.448 0 0)
(117.309 0 0)
(118.174 0 0)
(119.041 0 0)
(119.912 0 0)
(120.784 0 0)
(121.658 0 0)
(122.533 0 0)
(123.408 0 0)
(124.284 0 0)
(125.161 0 0)
(126.037 0 0)
(126.912 0 0)
(127.787 0 0)
(128.661 0 0)
(129.533 0 0)
(130.405 0 0)
(131.273 0 0)
(132.144 0 0)
(133.001 0 0)
(133.892 0 0)
(134.672 0 0)
(135.787 0 0)
(213.085 0 0)
(210.831 0 0)
(208.506 0 0)
(206.103 0 0)
(203.619 0 0)
(201.047 0 0)
(198.38 0 0)
(195.61 0 0)
(192.728 0 0)
(189.724 0 0)
(186.586 0 0)
(183.3 0 0)
(179.848 0 0)
(176.212 0 0)
(172.367 0 0)
(168.287 0 0)
(163.939 0 0)
(159.286 0 0)
(154.296 0 0)
(148.952 0 0)
(143.279 0 0)
(137.38 0 0)
(131.447 0 0)
(125.738 0 0)
(120.517 0 0)
(115.977 0 0)
(112.213 0 0)
(109.216 0 0)
(106.915 0 0)
(105.207 0 0)
(103.984 0 0)
(103.15 0 0)
(102.626 0 0)
(102.348 0 0)
(102.265 0 0)
(102.339 0 0)
(102.539 0 0)
(102.842 0 0)
(103.229 0 0)
(103.687 0 0)
(104.204 0 0)
(104.77 0 0)
(105.377 0 0)
(106.02 0 0)
(106.694 0 0)
(107.394 0 0)
(108.116 0 0)
(108.858 0 0)
(109.617 0 0)
(110.39 0 0)
(111.176 0 0)
(111.973 0 0)
(112.78 0 0)
(113.595 0 0)
(114.417 0 0)
(115.246 0 0)
(116.08 0 0)
(116.918 0 0)
(117.76 0 0)
(118.605 0 0)
(119.452 0 0)
(120.302 0 0)
(121.154 0 0)
(122.006 0 0)
(122.859 0 0)
(123.713 0 0)
(124.567 0 0)
(125.42 0 0)
(126.274 0 0)
(127.126 0 0)
(127.978 0 0)
(128.828 0 0)
(129.677 0 0)
(130.524 0 0)
(131.373 0 0)
(132.208 0 0)
(133.076 0 0)
(133.837 0 0)
(134.921 0 0)
(210.953 0 0)
(208.696 0 0)
(206.367 0 0)
(203.961 0 0)
(201.472 0 0)
(198.893 0 0)
(196.219 0 0)
(193.439 0 0)
(190.546 0 0)
(187.528 0 0)
(184.373 0 0)
(181.066 0 0)
(177.591 0 0)
(173.925 0 0)
(170.046 0 0)
(165.925 0 0)
(161.529 0 0)
(156.826 0 0)
(151.788 0 0)
(146.414 0 0)
(140.755 0 0)
(134.941 0 0)
(129.184 0 0)
(123.739 0 0)
(118.838 0 0)
(114.636 0 0)
(111.186 0 0)
(108.459 0 0)
(106.374 0 0)
(104.831 0 0)
(103.731 0 0)
(102.985 0 0)
(102.522 0 0)
(102.285 0 0)
(102.228 0 0)
(102.317 0 0)
(102.523 0 0)
(102.826 0 0)
(103.209 0 0)
(103.658 0 0)
(104.163 0 0)
(104.715 0 0)
(105.307 0 0)
(105.933 0 0)
(106.589 0 0)
(107.27 0 0)
(107.972 0 0)
(108.694 0 0)
(109.432 0 0)
(110.185 0 0)
(110.95 0 0)
(111.725 0 0)
(112.511 0 0)
(113.304 0 0)
(114.104 0 0)
(114.911 0 0)
(115.723 0 0)
(116.539 0 0)
(117.359 0 0)
(118.182 0 0)
(119.008 0 0)
(119.836 0 0)
(120.665 0 0)
(121.496 0 0)
(122.327 0 0)
(123.159 0 0)
(123.991 0 0)
(124.823 0 0)
(125.655 0 0)
(126.485 0 0)
(127.315 0 0)
(128.144 0 0)
(128.972 0 0)
(129.797 0 0)
(130.624 0 0)
(131.439 0 0)
(132.284 0 0)
(133.026 0 0)
(134.08 0 0)
(208.826 0 0)
(206.567 0 0)
(204.235 0 0)
(201.824 0 0)
(199.329 0 0)
(196.744 0 0)
(194.06 0 0)
(191.271 0 0)
(188.365 0 0)
(185.332 0 0)
(182.159 0 0)
(178.83 0 0)
(175.328 0 0)
(171.631 0 0)
(167.715 0 0)
(163.551 0 0)
(159.107 0 0)
(154.355 0 0)
(149.276 0 0)
(143.887 0 0)
(138.266 0 0)
(132.57 0 0)
(127.02 0 0)
(121.857 0 0)
(117.28 0 0)
(113.403 0 0)
(110.25 0 0)
(107.772 0 0)
(105.885 0 0)
(104.492 0 0)
(103.503 0 0)
(102.837 0 0)
(102.429 0 0)
(102.229 0 0)
(102.196 0 0)
(102.297 0 0)
(102.509 0 0)
(102.811 0 0)
(103.189 0 0)
(103.63 0 0)
(104.123 0 0)
(104.662 0 0)
(105.239 0 0)
(105.849 0 0)
(106.487 0 0)
(107.15 0 0)
(107.834 0 0)
(108.536 0 0)
(109.254 0 0)
(109.986 0 0)
(110.731 0 0)
(111.486 0 0)
(112.25 0 0)
(113.022 0 0)
(113.802 0 0)
(114.587 0 0)
(115.378 0 0)
(116.173 0 0)
(116.971 0 0)
(117.773 0 0)
(118.578 0 0)
(119.384 0 0)
(120.192 0 0)
(121.002 0 0)
(121.812 0 0)
(122.623 0 0)
(123.433 0 0)
(124.244 0 0)
(125.055 0 0)
(125.864 0 0)
(126.673 0 0)
(127.481 0 0)
(128.288 0 0)
(129.092 0 0)
(129.898 0 0)
(130.692 0 0)
(131.515 0 0)
(132.24 0 0)
(133.265 0 0)
(206.706 0 0)
(204.444 0 0)
(202.108 0 0)
(199.692 0 0)
(197.191 0 0)
(194.598 0 0)
(191.905 0 0)
(189.104 0 0)
(186.184 0 0)
(183.135 0 0)
(179.941 0 0)
(176.589 0 0)
(173.058 0 0)
(169.328 0 0)
(165.373 0 0)
(161.165 0 0)
(156.673 0 0)
(151.875 0 0)
(146.765 0 0)
(141.38 0 0)
(135.826 0 0)
(130.279 0 0)
(124.961 0 0)
(120.094 0 0)
(115.839 0 0)
(112.275 0 0)
(109.398 0 0)
(107.149 0 0)
(105.442 0 0)
(104.186 0 0)
(103.297 0 0)
(102.703 0 0)
(102.346 0 0)
(102.179 0 0)
(102.167 0 0)
(102.28 0 0)
(102.497 0 0)
(102.798 0 0)
(103.171 0 0)
(103.603 0 0)
(104.086 0 0)
(104.611 0 0)
(105.174 0 0)
(105.768 0 0)
(106.389 0 0)
(107.034 0 0)
(107.7 0 0)
(108.383 0 0)
(109.082 0 0)
(109.795 0 0)
(110.519 0 0)
(111.254 0 0)
(111.998 0 0)
(112.75 0 0)
(113.509 0 0)
(114.274 0 0)
(115.044 0 0)
(115.818 0 0)
(116.596 0 0)
(117.377 0 0)
(118.161 0 0)
(118.947 0 0)
(119.734 0 0)
(120.523 0 0)
(121.313 0 0)
(122.103 0 0)
(122.893 0 0)
(123.683 0 0)
(124.473 0 0)
(125.262 0 0)
(126.05 0 0)
(126.838 0 0)
(127.624 0 0)
(128.408 0 0)
(129.193 0 0)
(129.967 0 0)
(130.77 0 0)
(131.476 0 0)
(132.473 0 0)
(204.592 0 0)
(202.326 0 0)
(199.986 0 0)
(197.565 0 0)
(195.057 0 0)
(192.455 0 0)
(189.752 0 0)
(186.938 0 0)
(184.004 0 0)
(180.936 0 0)
(177.721 0 0)
(174.343 0 0)
(170.783 0 0)
(167.017 0 0)
(163.021 0 0)
(158.767 0 0)
(154.229 0 0)
(149.39 0 0)
(144.262 0 0)
(138.906 0 0)
(133.448 0 0)
(128.078 0 0)
(123.015 0 0)
(118.451 0 0)
(114.512 0 0)
(111.244 0 0)
(108.624 0 0)
(106.585 0 0)
(105.042 0 0)
(103.909 0 0)
(103.111 0 0)
(102.582 0 0)
(102.271 0 0)
(102.135 0 0)
(102.142 0 0)
(102.266 0 0)
(102.486 0 0)
(102.786 0 0)
(103.153 0 0)
(103.577 0 0)
(104.049 0 0)
(104.562 0 0)
(105.111 0 0)
(105.689 0 0)
(106.294 0 0)
(106.922 0 0)
(107.57 0 0)
(108.235 0 0)
(108.916 0 0)
(109.609 0 0)
(110.315 0 0)
(111.03 0 0)
(111.755 0 0)
(112.487 0 0)
(113.226 0 0)
(113.971 0 0)
(114.721 0 0)
(115.475 0 0)
(116.233 0 0)
(116.994 0 0)
(117.758 0 0)
(118.524 0 0)
(119.291 0 0)
(120.06 0 0)
(120.829 0 0)
(121.599 0 0)
(122.369 0 0)
(123.139 0 0)
(123.909 0 0)
(124.678 0 0)
(125.447 0 0)
(126.214 0 0)
(126.981 0 0)
(127.745 0 0)
(128.51 0 0)
(129.265 0 0)
(130.046 0 0)
(130.735 0 0)
(131.704 0 0)
(202.484 0 0)
(200.214 0 0)
(197.869 0 0)
(195.442 0 0)
(192.926 0 0)
(190.315 0 0)
(187.601 0 0)
(184.773 0 0)
(181.822 0 0)
(178.735 0 0)
(175.497 0 0)
(172.092 0 0)
(168.499 0 0)
(164.696 0 0)
(160.658 0 0)
(156.359 0 0)
(151.777 0 0)
(146.907 0 0)
(141.778 0 0)
(136.474 0 0)
(131.143 0 0)
(125.979 0 0)
(121.186 0 0)
(116.927 0 0)
(113.294 0 0)
(110.305 0 0)
(107.923 0 0)
(106.075 0 0)
(104.68 0 0)
(103.66 0 0)
(102.944 0 0)
(102.474 0 0)
(102.204 0 0)
(102.096 0 0)
(102.12 0 0)
(102.253 0 0)
(102.476 0 0)
(102.775 0 0)
(103.137 0 0)
(103.553 0 0)
(104.014 0 0)
(104.515 0 0)
(105.05 0 0)
(105.614 0 0)
(106.203 0 0)
(106.815 0 0)
(107.445 0 0)
(108.093 0 0)
(108.755 0 0)
(109.431 0 0)
(110.117 0 0)
(110.814 0 0)
(111.519 0 0)
(112.233 0 0)
(112.952 0 0)
(113.678 0 0)
(114.408 0 0)
(115.143 0 0)
(115.882 0 0)
(116.623 0 0)
(117.367 0 0)
(118.114 0 0)
(118.861 0 0)
(119.611 0 0)
(120.361 0 0)
(121.111 0 0)
(121.862 0 0)
(122.612 0 0)
(123.363 0 0)
(124.113 0 0)
(124.862 0 0)
(125.61 0 0)
(126.357 0 0)
(127.101 0 0)
(127.847 0 0)
(128.583 0 0)
(129.344 0 0)
(130.017 0 0)
(130.958 0 0)
(200.381 0 0)
(198.108 0 0)
(195.757 0 0)
(193.323 0 0)
(190.799 0 0)
(188.178 0 0)
(185.451 0 0)
(182.609 0 0)
(179.64 0 0)
(176.532 0 0)
(173.269 0 0)
(169.834 0 0)
(166.207 0 0)
(162.365 0 0)
(158.284 0 0)
(153.941 0 0)
(149.321 0 0)
(144.432 0 0)
(139.323 0 0)
(134.099 0 0)
(128.923 0 0)
(123.988 0 0)
(119.476 0 0)
(115.519 0 0)
(112.179 0 0)
(109.452 0 0)
(107.287 0 0)
(105.614 0 0)
(104.354 0 0)
(103.435 0 0)
(102.793 0 0)
(102.377 0 0)
(102.144 0 0)
(102.061 0 0)
(102.1 0 0)
(102.242 0 0)
(102.468 0 0)
(102.764 0 0)
(103.121 0 0)
(103.529 0 0)
(103.981 0 0)
(104.47 0 0)
(104.991 0 0)
(105.541 0 0)
(106.115 0 0)
(106.711 0 0)
(107.325 0 0)
(107.955 0 0)
(108.6 0 0)
(109.258 0 0)
(109.927 0 0)
(110.605 0 0)
(111.292 0 0)
(111.987 0 0)
(112.688 0 0)
(113.395 0 0)
(114.106 0 0)
(114.822 0 0)
(115.542 0 0)
(116.264 0 0)
(116.99 0 0)
(117.717 0 0)
(118.446 0 0)
(119.176 0 0)
(119.907 0 0)
(120.638 0 0)
(121.37 0 0)
(122.102 0 0)
(122.833 0 0)
(123.564 0 0)
(124.294 0 0)
(125.023 0 0)
(125.752 0 0)
(126.477 0 0)
(127.205 0 0)
(127.921 0 0)
(128.663 0 0)
(129.32 0 0)
(130.235 0 0)
(198.285 0 0)
(196.006 0 0)
(193.649 0 0)
(191.207 0 0)
(188.674 0 0)
(186.042 0 0)
(183.301 0 0)
(180.443 0 0)
(177.455 0 0)
(174.324 0 0)
(171.035 0 0)
(167.569 0 0)
(163.906 0 0)
(160.025 0 0)
(155.901 0 0)
(151.516 0 0)
(146.866 0 0)
(141.973 0 0)
(136.907 0 0)
(131.792 0 0)
(126.799 0 0)
(122.111 0 0)
(117.886 0 0)
(114.225 0 0)
(111.162 0 0)
(108.676 0 0)
(106.712 0 0)
(105.198 0 0)
(104.06 0 0)
(103.232 0 0)
(102.658 0 0)
(102.29 0 0)
(102.091 0 0)
(102.03 0 0)
(102.084 0 0)
(102.232 0 0)
(102.46 0 0)
(102.755 0 0)
(103.107 0 0)
(103.507 0 0)
(103.948 0 0)
(104.426 0 0)
(104.935 0 0)
(105.471 0 0)
(106.03 0 0)
(106.61 0 0)
(107.208 0 0)
(107.822 0 0)
(108.45 0 0)
(109.091 0 0)
(109.742 0 0)
(110.403 0 0)
(111.072 0 0)
(111.749 0 0)
(112.432 0 0)
(113.121 0 0)
(113.814 0 0)
(114.512 0 0)
(115.213 0 0)
(115.917 0 0)
(116.624 0 0)
(117.333 0 0)
(118.043 0 0)
(118.755 0 0)
(119.467 0 0)
(120.181 0 0)
(120.894 0 0)
(121.607 0 0)
(122.32 0 0)
(123.033 0 0)
(123.745 0 0)
(124.455 0 0)
(125.165 0 0)
(125.873 0 0)
(126.581 0 0)
(127.28 0 0)
(128.003 0 0)
(128.643 0 0)
(129.533 0 0)
(196.193 0 0)
(193.909 0 0)
(191.545 0 0)
(189.095 0 0)
(186.552 0 0)
(183.907 0 0)
(181.152 0 0)
(178.276 0 0)
(175.268 0 0)
(172.113 0 0)
(168.795 0 0)
(165.296 0 0)
(161.597 0 0)
(157.674 0 0)
(153.509 0 0)
(149.088 0 0)
(144.419 0 0)
(139.541 0 0)
(134.544 0 0)
(129.566 0 0)
(124.779 0 0)
(120.351 0 0)
(116.413 0 0)
(113.038 0 0)
(110.236 0 0)
(107.974 0 0)
(106.192 0 0)
(104.821 0 0)
(103.794 0 0)
(103.049 0 0)
(102.536 0 0)
(102.212 0 0)
(102.044 0 0)
(102.003 0 0)
(102.069 0 0)
(102.224 0 0)
(102.454 0 0)
(102.746 0 0)
(103.093 0 0)
(103.485 0 0)
(103.917 0 0)
(104.384 0 0)
(104.88 0 0)
(105.403 0 0)
(105.948 0 0)
(106.513 0 0)
(107.096 0 0)
(107.694 0 0)
(108.306 0 0)
(108.93 0 0)
(109.564 0 0)
(110.208 0 0)
(110.86 0 0)
(111.519 0 0)
(112.185 0 0)
(112.856 0 0)
(113.531 0 0)
(114.211 0 0)
(114.895 0 0)
(115.581 0 0)
(116.27 0 0)
(116.961 0 0)
(117.654 0 0)
(118.347 0 0)
(119.042 0 0)
(119.737 0 0)
(120.433 0 0)
(121.128 0 0)
(121.823 0 0)
(122.518 0 0)
(123.212 0 0)
(123.904 0 0)
(124.596 0 0)
(125.286 0 0)
(125.977 0 0)
(126.658 0 0)
(127.362 0 0)
(127.987 0 0)
(128.852 0 0)
(194.107 0 0)
(191.817 0 0)
(189.445 0 0)
(186.986 0 0)
(184.432 0 0)
(181.773 0 0)
(179.003 0 0)
(176.108 0 0)
(173.077 0 0)
(169.896 0 0)
(166.548 0 0)
(163.015 0 0)
(159.278 0 0)
(155.315 0 0)
(151.111 0 0)
(146.662 0 0)
(141.988 0 0)
(137.147 0 0)
(132.245 0 0)
(127.431 0 0)
(122.869 0 0)
(118.71 0 0)
(115.055 0 0)
(111.952 0 0)
(109.394 0 0)
(107.337 0 0)
(105.722 0 0)
(104.482 0 0)
(103.554 0 0)
(102.884 0 0)
(102.426 0 0)
(102.142 0 0)
(102.002 0 0)
(101.98 0 0)
(102.057 0 0)
(102.218 0 0)
(102.448 0 0)
(102.738 0 0)
(103.08 0 0)
(103.465 0 0)
(103.888 0 0)
(104.343 0 0)
(104.828 0 0)
(105.337 0 0)
(105.869 0 0)
(106.42 0 0)
(106.987 0 0)
(107.57 0 0)
(108.166 0 0)
(108.774 0 0)
(109.392 0 0)
(110.019 0 0)
(110.655 0 0)
(111.297 0 0)
(111.945 0 0)
(112.599 0 0)
(113.258 0 0)
(113.921 0 0)
(114.587 0 0)
(115.256 0 0)
(115.928 0 0)
(116.601 0 0)
(117.276 0 0)
(117.953 0 0)
(118.63 0 0)
(119.308 0 0)
(119.986 0 0)
(120.664 0 0)
(121.342 0 0)
(122.019 0 0)
(122.695 0 0)
(123.371 0 0)
(124.045 0 0)
(124.718 0 0)
(125.391 0 0)
(126.055 0 0)
(126.741 0 0)
(127.351 0 0)
(128.191 0 0)
(192.025 0 0)
(189.728 0 0)
(187.349 0 0)
(184.879 0 0)
(182.312 0 0)
(179.64 0 0)
(176.852 0 0)
(173.937 0 0)
(170.882 0 0)
(167.674 0 0)
(164.295 0 0)
(160.726 0 0)
(156.95 0 0)
(152.949 0 0)
(148.712 0 0)
(144.244 0 0)
(139.583 0 0)
(134.802 0 0)
(130.023 0 0)
(125.395 0 0)
(121.075 0 0)
(117.186 0 0)
(113.808 0 0)
(110.962 0 0)
(108.629 0 0)
(106.761 0 0)
(105.297 0 0)
(104.175 0 0)
(103.338 0 0)
(102.736 0 0)
(102.328 0 0)
(102.08 0 0)
(101.965 0 0)
(101.96 0 0)
(102.047 0 0)
(102.212 0 0)
(102.444 0 0)
(102.731 0 0)
(103.067 0 0)
(103.445 0 0)
(103.859 0 0)
(104.304 0 0)
(104.777 0 0)
(105.274 0 0)
(105.792 0 0)
(106.329 0 0)
(106.883 0 0)
(107.45 0 0)
(108.031 0 0)
(108.624 0 0)
(109.226 0 0)
(109.837 0 0)
(110.456 0 0)
(111.082 0 0)
(111.714 0 0)
(112.352 0 0)
(112.994 0 0)
(113.64 0 0)
(114.289 0 0)
(114.941 0 0)
(115.596 0 0)
(116.253 0 0)
(116.911 0 0)
(117.571 0 0)
(118.231 0 0)
(118.892 0 0)
(119.553 0 0)
(120.214 0 0)
(120.875 0 0)
(121.535 0 0)
(122.195 0 0)
(122.854 0 0)
(123.511 0 0)
(124.167 0 0)
(124.823 0 0)
(125.47 0 0)
(126.139 0 0)
(126.734 0 0)
(127.551 0 0)
(189.948 0 0)
(187.643 0 0)
(185.255 0 0)
(182.774 0 0)
(180.194 0 0)
(177.506 0 0)
(174.699 0 0)
(171.763 0 0)
(168.683 0 0)
(165.445 0 0)
(162.033 0 0)
(158.429 0 0)
(154.615 0 0)
(150.578 0 0)
(146.315 0 0)
(141.843 0 0)
(137.214 0 0)
(132.519 0 0)
(127.887 0 0)
(123.467 0 0)
(119.397 0 0)
(115.779 0 0)
(112.665 0 0)
(110.061 0 0)
(107.937 0 0)
(106.24 0 0)
(104.913 0 0)
(103.898 0 0)
(103.143 0 0)
(102.603 0 0)
(102.24 0 0)
(102.025 0 0)
(101.933 0 0)
(101.943 0 0)
(102.039 0 0)
(102.208 0 0)
(102.44 0 0)
(102.725 0 0)
(103.056 0 0)
(103.426 0 0)
(103.831 0 0)
(104.266 0 0)
(104.728 0 0)
(105.213 0 0)
(105.718 0 0)
(106.242 0 0)
(106.781 0 0)
(107.335 0 0)
(107.901 0 0)
(108.478 0 0)
(109.065 0 0)
(109.661 0 0)
(110.264 0 0)
(110.875 0 0)
(111.491 0 0)
(112.112 0 0)
(112.738 0 0)
(113.368 0 0)
(114.001 0 0)
(114.637 0 0)
(115.276 0 0)
(115.916 0 0)
(116.558 0 0)
(117.201 0 0)
(117.845 0 0)
(118.489 0 0)
(119.134 0 0)
(119.779 0 0)
(120.423 0 0)
(121.067 0 0)
(121.71 0 0)
(122.352 0 0)
(122.993 0 0)
(123.633 0 0)
(124.272 0 0)
(124.904 0 0)
(125.555 0 0)
(126.136 0 0)
(126.929 0 0)
(187.874 0 0)
(185.562 0 0)
(183.163 0 0)
(180.67 0 0)
(178.076 0 0)
(175.371 0 0)
(172.544 0 0)
(169.585 0 0)
(166.478 0 0)
(163.21 0 0)
(159.765 0 0)
(156.124 0 0)
(152.274 0 0)
(148.206 0 0)
(143.927 0 0)
(139.467 0 0)
(134.892 0 0)
(130.308 0 0)
(125.848 0 0)
(121.651 0 0)
(117.837 0 0)
(114.483 0 0)
(111.621 0 0)
(109.243 0 0)
(107.309 0 0)
(105.769 0 0)
(104.567 0 0)
(103.648 0 0)
(102.967 0 0)
(102.483 0 0)
(102.161 0 0)
(101.976 0 0)
(101.904 0 0)
(101.928 0 0)
(102.032 0 0)
(102.205 0 0)
(102.437 0 0)
(102.719 0 0)