/*--------------------------------*- C++ -*----------------------------------*\
| =========                 |                                                 |
| \\      /  F ield         | OpenFOAM: The Open Source CFD Toolbox           |
|  \\    /   O peration     | Version:  2312                                  |
|   \\  /    A nd           | Website:  www.openfoam.com                      |
|    \\/     M anipulation  |                                                 |
\*---------------------------------------------------------------------------*/
FoamFile
{
    version     2.0;
    format      ascii;
    arch        "LSB;label=32;scalar=64";
    class       surfaceScalarField;
    location    "0.977";
    object      phi;
}
// * * * * * * * * * * * * * * * * * * * * * * * * * * * * * * * * * * * * * //

dimensions      [0 3 -1 0 0 0 0];

oriented        oriented;

internalField   nonuniform List<scalar> 
62015
(
77.3636
0.406962
-77.8533
76.8733
0.398161
76.3824
0.389174
75.8913
0.380007
75.4
0.370667
74.9086
0.36116
74.4173
0.351493
73.9262
0.341676
73.4353
0.331713
72.9447
0.321613
72.4543
0.311385
71.9641
0.301034
71.4741
0.29057
70.9842
0.280002
70.4943
0.269336
70.0042
0.258581
69.5137
0.247747
69.0226
0.236842
68.5305
0.225875
68.0373
0.214855
67.5425
0.203791
67.0456
0.192694
66.5461
0.181572
66.0435
0.170436
65.5371
0.159297
65.0262
0.148164
64.5099
0.137048
63.9872
0.125962
63.4571
0.114916
62.9184
0.103922
62.3695
0.0929931
61.8088
0.0821417
61.2344
0.0713829
60.6442
0.0607296
60.0356
0.0501984
59.4054
0.0398049
58.75
0.029568
58.0649
0.0195062
57.3446
0.00964205
56.5826
0
55.7696
-0.00939193
54.8908
-0.0184992
53.9292
-0.0272802
52.8808
-0.035679
51.7412
-0.0436496
50.3478
-0.0511398
48.1148
-0.0578261
44.2402
-0.0625234
38.7831
-0.0634453
33.1974
-0.0605337
29.0275
-0.0566648
26.6192
-0.054674
25.4599
-0.0551043
24.9839
-0.0572263
24.8487
-0.0603009
24.8853
-0.0638872
25.0148
-0.0677617
25.1998
-0.0718142
25.4212
-0.0759895
25.6691
-0.0802575
25.9374
-0.0846013
26.2225
-0.0890093
26.5217
-0.0934736
26.8336
-0.0979881
27.1566
-0.102548
27.4901
-0.107148
27.8331
-0.111784
28.1851
-0.116453
28.5457
-0.121151
28.9145
-0.125873
29.2912
-0.130618
29.6756
-0.13538
30.0673
-0.140158
30.4667
-0.144945
30.8719
-0.149746
31.2883
-0.154532
31.6985
-0.159381
32.1558
-0.164033
-0.169291
32.4958
74.9637
0.800846
-75.4445
74.4826
0.783465
74.0015
0.765723
73.5206
0.747633
73.04
0.729209
72.5598
0.710463
72.08
0.69141
71.6009
0.672063
71.1224
0.652437
70.6445
0.632547
70.1672
0.612407
69.6906
0.592033
69.2145
0.57144
68.7389
0.550643
68.2637
0.52966
67.7887
0.508507
67.3138
0.487199
66.8386
0.465754
66.363
0.444191
65.8866
0.422525
65.4091
0.400776
64.93
0.378962
64.4489
0.357102
63.9653
0.335215
63.4786
0.313321
62.9879
0.291441
62.4927
0.269595
61.9919
0.247806
61.4846
0.226095
60.9696
0.204486
60.4456
0.183003
59.9111
0.16167
59.3643
0.140515
58.8033
0.119565
58.2257
0.09885
57.6287
0.0784007
57.009
0.0582518
56.3626
0.0384403
55.6845
0.0190078
54.969
0
54.2082
-0.0185298
53.3899
-0.0365193
52.4976
-0.053891
51.5217
-0.070543
50.4665
-0.0863736
49.2539
-0.10131
47.4709
-0.11499
44.3289
-0.125683
39.4739
-0.129844
33.9172
-0.125627
29.3208
-0.117272
26.4476
-0.111376
24.9841
-0.11051
24.3443
-0.113637
24.1225
-0.11911
24.109
-0.125842
24.2048
-0.133262
24.3636
-0.14109
24.5626
-0.149186
24.7897
-0.157479
25.0382
-0.165925
25.3039
-0.174501
25.584
-0.183188
25.8767
-0.191973
26.1807
-0.200845
26.4948
-0.209795
26.8185
-0.218815
27.151
-0.227897
27.4919
-0.237033
27.8409
-0.246217
28.1975
-0.255441
28.5616
-0.264699
28.9328
-0.273984
29.3115
-0.283287
29.6958
-0.292614
30.0907
-0.301911
30.4801
-0.311326
30.9135
-0.320368
-0.330545
31.2397
72.6282
1.18192
-73.1001
72.1566
1.15618
71.6853
1.12991
71.2147
1.10314
70.7447
1.07589
70.2755
1.04817
69.8072
1.02001
69.3398
0.991416
68.8734
0.962422
68.408
0.933044
67.9436
0.903305
67.4802
0.873226
67.0176
0.84283
66.5559
0.812141
66.0949
0.781181
65.6345
0.749974
65.1744
0.718544
64.7146
0.686917
64.2547
0.655117
63.7944
0.623171
63.3334
0.591104
62.8714
0.558944
62.4078
0.526718
61.9422
0.494453
61.474
0.46218
61.0026
0.429928
60.5272
0.397727
60.047
0.365608
59.561
0.333604
59.0683
0.301748
58.5676
0.270075
58.0575
0.238622
57.5364
0.207426
57.0024
0.176527
56.4535
0.145968
55.8871
0.115795
55.3003
0.0860555
54.6893
0.0568027
54.0498
0.0280961
53.3764
0
52.6626
-0.0274103
51.8982
-0.0540481
51.0682
-0.0798069
50.1596
-0.104547
49.1753
-0.128112
48.086
-0.150394
46.6226
-0.171107
44.0986
-0.188477
39.9068
-0.197769
34.5796
-0.194479
29.6967
-0.182108
26.3782
-0.170823
24.5845
-0.166807
23.7589
-0.169616
23.4396
-0.176687
23.3714
-0.186066
23.4323
-0.196682
23.5649
-0.208005
23.742
-0.219775
23.9492
-0.231856
24.1787
-0.244177
24.4259
-0.256693
24.6879
-0.269374
24.9625
-0.2822
25.2483
-0.295152
25.5443
-0.308218
25.8496
-0.321383
26.1637
-0.334637
26.486
-0.347969
26.8161
-0.361368
27.1538
-0.374823
27.4987
-0.388325
27.8505
-0.401865
28.2095
-0.415427
28.574
-0.429023
28.9486
-0.442574
29.3184
-0.456288
29.729
-0.469473
-0.484256
30.041
70.3584
1.55048
-70.8211
69.8964
1.5166
69.4352
1.48205
68.9749
1.44685
68.5156
1.41102
68.0575
1.37459
67.6006
1.33759
67.1449
1.30004
66.6905
1.26196
66.2375
1.2234
65.7857
1.18436
65.3352
1.14489
64.8858
1.10502
64.4376
1.06476
63.9905
1.02415
63.5442
0.983229
63.0986
0.94202
62.6536
0.900557
62.2088
0.858871
61.764
0.816998
61.3189
0.77497
60.8731
0.732823
60.4263
0.690592
59.9779
0.648313
59.5274
0.606024
59.0741
0.563762
58.6176
0.521568
58.1568
0.47948
57.6911
0.437543
57.2194
0.395797
56.7406
0.354288
56.2533
0.313062
55.7562
0.27217
55.2476
0.23166
54.7255
0.191589
54.1875
0.152013
53.631
0.112996
53.0527
0.0746036
52.4486
0.0369109
51.8139
0
51.1428
-0.0360352
50.4268
-0.0710867
49.6528
-0.105025
48.8064
-0.137678
47.8863
-0.168842
46.8866
-0.19836
45.6462
-0.226025
43.616
-0.250327
40.0789
-0.266084
35.1338
-0.26613
30.1197
-0.251229
26.4031
-0.23374
24.2626
-0.224698
23.2292
-0.225631
22.8
-0.233327
22.6721
-0.24477
22.6962
-0.258199
22.8026
-0.272728
22.9582
-0.287923
23.1462
-0.303568
23.3577
-0.319544
23.5874
-0.335783
23.8321
-0.352243
24.0896
-0.368892
24.3582
-0.385706
24.637
-0.402665
24.925
-0.419753
25.2216
-0.436953
25.5263
-0.454251
25.8386
-0.471634
26.1583
-0.489086
26.485
-0.506596
26.8184
-0.524152
27.1588
-0.541734
27.5046
-0.559355
27.86
-0.576918
28.2112
-0.59468
28.6004
-0.611776
-0.630876
28.8984
68.1542
1.90686
-68.6073
67.702
1.86507
67.251
1.82246
66.8013
1.77907
66.3529
1.73492
65.9059
1.69004
65.4604
1.64447
65.0164
1.59824
64.574
1.55137
64.1331
1.50391
63.6938
1.45589
63.256
1.40733
62.8197
1.35828
62.3848
1.30878
61.9512
1.25885
61.5187
1.20854
61.0872
1.15788
60.6566
1.10692
60.2265
1.05569
59.7967
1.00423
59.367
0.952589
58.9369
0.900803
58.5061
0.848917
58.0742
0.796974
57.6407
0.745019
57.2049
0.693099
56.7664
0.641261
56.3242
0.589555
55.8777
0.53803
55.426
0.486739
54.9679
0.435735
54.5024
0.385074
54.028
0.334817
53.5432
0.285023
53.0462
0.235759
52.5349
0.187092
52.0069
0.139099
51.4591
0.0918592
50.888
0.04546
50.2892
0
49.6575
-0.0444108
48.9858
-0.0876463
48.2629
-0.129556
47.4744
-0.169947
46.6144
-0.208573
45.6862
-0.245217
44.6039
-0.279718
42.9605
-0.310961
40.0365
-0.334004
35.5817
-0.339669
30.5877
-0.324569
26.5334
-0.300933
24.0306
-0.285081
22.7617
-0.2823
22.2056
-0.289405
22.0101
-0.302194
21.9945
-0.317991
22.0738
-0.335412
22.2079
-0.353781
22.3773
-0.372763
22.5715
-0.392181
22.7845
-0.411937
23.0128
-0.431969
23.254
-0.452234
23.5064
-0.472702
23.7688
-0.493345
24.0404
-0.514142
24.3204
-0.535074
24.6084
-0.556122
24.9039
-0.577268
25.2065
-0.598497
25.516
-0.619792
25.832
-0.641139
26.1547
-0.662512
26.4827
-0.68393
26.8199
-0.705273
27.1534
-0.72685
27.5225
-0.747632
-0.770783
27.8067
66.0147
2.25137
-66.4579
65.5727
2.2019
65.1321
2.15148
64.693
2.10014
64.2555
2.04792
63.8197
1.99485
63.3857
1.94098
62.9534
1.88634
62.5228
1.83097
62.0941
1.7749
61.6672
1.71817
61.242
1.66083
60.8185
1.60292
60.3967
1.54448
59.9763
1.48554
59.5574
1.42617
59.1397
1.36639
58.723
1.30625
58.3072
1.24581
57.892
1.1851
57.4772
1.12418
57.0623
1.06309
56.6471
1.00188
56.2312
0.940615
55.814
0.879334
55.395
0.818095
54.9737
0.756953
54.5494
0.695964
54.1213
0.635187
53.6886
0.574682
53.2504
0.514512
52.8055
0.454742
52.3527
0.395439
51.8905
0.336676
51.4174
0.278526
50.9313
0.22107
50.4301
0.164393
49.911
0.108587
49.3708
0.0537523
48.8056
0
48.2107
-0.0525449
47.5799
-0.10374
46.9039
-0.153418
46.1693
-0.20137
45.3665
-0.24732
44.4999
-0.290987
43.5318
-0.332207
42.184
-0.370259
39.8089
-0.400944
35.9129
-0.414119
31.0872
-0.401744
26.7759
-0.37311
23.9024
-0.349022
22.3656
-0.340424
21.66
-0.345404
21.3859
-0.358631
21.326
-0.376258
21.3766
-0.396218
21.4891
-0.417494
21.6401
-0.439585
21.8175
-0.462236
22.0145
-0.485306
22.2272
-0.508712
22.4528
-0.532396
22.6898
-0.556317
22.9367
-0.580444
23.1927
-0.604749
23.457
-0.629209
23.7291
-0.6538
24.0086
-0.678504
24.295
-0.703299
24.5881
-0.728166
24.8876
-0.75309
25.1936
-0.778041
25.5047
-0.803038
25.8246
-0.827946
26.1412
-0.853112
26.4913
-0.877372
-0.904318
26.7622
63.9388
2.58435
-64.372
63.5071
2.52742
63.0771
2.46941
62.6488
2.41037
62.2223
2.35033
61.7978
2.28934
61.3751
2.22743
60.9545
2.16466
60.5358
2.10105
60.1191
2.03665
59.7044
1.97152
59.2917
1.90569
58.8808
1.83921
58.4718
1.77213
58.0645
1.7045
57.6588
1.63637
57.2545
1.56778
56.8516
1.49879
56.4497
1.42945
56.0487
1.35981
55.6483
1.28994
55.2482
1.21987
54.8481
1.14968
54.4475
1.07941
54.0461
1.00913
53.6433
0.938903
53.2386
0.868782
52.8314
0.798836
52.421
0.72913
52.0066
0.659732
51.5873
0.590713
51.1621
0.522146
50.7298
0.454108
50.2892
0.386677
49.8387
0.31994
49.3765
0.253984
48.9007
0.188904
48.4087
0.124804
47.8976
0.0617955
47.364
0
46.8034
-0.0604442
46.2106
-0.11938
45.5779
-0.176629
44.8932
-0.231966
44.145
-0.285097
43.3346
-0.335686
42.4516
-0.383522
41.3231
-0.428188
39.417
-0.466494
36.1083
-0.488471
31.5895
-0.481948
27.1268
-0.450672
23.8905
-0.417661
22.0519
-0.401002
21.1688
-0.401952
20.8014
-0.414448
20.6908
-0.433236
20.7102
-0.455321
20.8004
-0.479211
20.933
-0.504176
21.094
-0.52985
21.2756
-0.556038
21.4732
-0.582625
21.6841
-0.609537
21.9063
-0.636723
22.1385
-0.664143
22.3796
-0.691764
22.629
-0.719558
22.8861
-0.747498
23.1503
-0.77556
23.4214
-0.803723
23.699
-0.831963
23.9828
-0.860261
24.2729
-0.888586
24.568
-0.916956
24.8714
-0.945223
25.1721
-0.973769
25.5041
-1.00131
-1.03181
25.7624
61.9251
2.90612
-62.3481
61.5039
2.84195
61.0845
2.7766
60.6671
2.7101
60.2517
2.64249
59.8384
2.57382
59.4271
2.50414
59.0181
2.43349
58.6112
2.36192
58.2064
2.28947
57.8038
2.21621
57.4033
2.14218
57.0049
2.06743
56.6085
1.99201
56.214
1.91598
55.8212
1.83939
55.4301
1.7623
55.0405
1.68476
54.6523
1.60684
54.2651
1.52859
53.8787
1.45007
53.4929
1.37135
53.1073
1.29248
52.7217
1.21353
52.3355
1.13457
51.9483
1.05567
51.5596
0.976883
51.1688
0.898293
50.7754
0.81997
50.3785
0.741988
49.9773
0.664426
49.5709
0.587365
49.1582
0.510888
48.7381
0.435084
48.3091
0.360044
47.8697
0.285868
47.4178
0.212658
46.9514
0.140528
46.4678
0.0695971
45.9638
0
45.4355
-0.0681152
44.8782
-0.13458
44.2855
-0.199203
43.647
-0.26175
42.9505
-0.321917
42.1931
-0.379327
41.3767
-0.433692
40.4068
-0.484775
38.8821
-0.530419
36.1492
-0.561805
32.0548
-0.563995
27.5696
-0.533521
24.0031
-0.492076
21.8325
-0.465231
20.739
-0.459854
20.2595
-0.470114
20.0895
-0.489206
20.0741
-0.512916
20.1407
-0.53909
20.2548
-0.56668
20.3997
-0.595166
20.5662
-0.624276
20.7495
-0.653858
20.9462
-0.683816
21.1543
-0.714084
21.3725
-0.744615
21.5995
-0.775369
21.8347
-0.806312
22.0775
-0.837415
22.3273
-0.86865
22.5838
-0.899992
22.8466
-0.931413
23.1155
-0.962896
23.3905
-0.994401
23.6704
-1.02595
23.9583
-1.05738
24.2437
-1.08911
24.5587
-1.11973
-1.15356
24.8048
59.9723
3.21699
-60.3849
59.5616
3.14582
59.1529
3.07335
58.7464
2.99962
58.342
2.92469
57.9399
2.84859
57.54
2.77139
57.1425
2.69313
56.7472
2.61386
56.3542
2.53365
55.9636
2.45253
55.5751
2.37057
55.1889
2.28783
54.8049
2.20436
54.4229
2.12022
54.0428
2.03547
53.6646
1.95018
53.288
1.8644
52.9129
1.77819
52.5392
1.69163
52.1664
1.60478
51.7945
1.5177
51.4231
1.43046
51.0518
1.34314
50.6803
1.2558
50.3081
1.16853
49.9348
1.08138
49.5599
0.994454
49.1827
0.907814
48.8026
0.821547
48.4187
0.735737
48.0303
0.650473
47.6364
0.565845
47.2358
0.481948
46.8273
0.398884
46.4093
0.316757
45.9803
0.23568
45.5381
0.155772
45.0804
0.077165
44.6043
0
44.1062
-0.0755648
43.5821
-0.149351
43.0264
-0.221156
42.4305
-0.29074
41.7827
-0.357794
41.076
-0.421915
40.3155
-0.482737
39.4586
-0.540071
38.2292
-0.592644
36.0254
-0.633408
32.4395
-0.646479
28.0745
-0.62094
24.2417
-0.573072
21.7198
-0.534459
20.3796
-0.520132
19.7642
-0.526235
19.5233
-0.544519
19.4683
-0.569229
19.5094
-0.597304
19.6045
-0.627246
19.7333
-0.658324
19.8852
-0.690163
20.0546
-0.722557
20.2377
-0.755383
20.4324
-0.788559
20.6372
-0.822026
20.8508
-0.855738
21.0725
-0.889656
21.3017
-0.923746
21.5378
-0.957976
21.7804
-0.992317
22.0293
-1.02674
22.284
-1.06123
22.5447
-1.09573
22.8101
-1.13027
23.0832
-1.16468
23.3542
-1.1994
23.6529
-1.23294
-1.26988
23.8875
58.0788
3.51729
-58.481
57.6787
3.43934
57.2808
3.35998
56.8851
3.27926
56.4917
3.19724
56.1007
3.11396
55.7121
3.02949
55.3259
2.94388
54.9421
2.85718
54.5608
2.76945
54.1819
2.68075
53.8053
2.59114
53.4311
2.50068
53.0592
2.40944
52.6894
2.31748
52.3218
2.22485
51.9561
2.13164
51.5922
2.0379
51.23
1.94371
50.8692
1.84913
50.5097
1.75423
50.1512
1.65909
49.7934
1.56378
49.436
1.46838
49.0787
1.37297
48.7211
1.27762
48.3626
1.18241
48.0029
1.08743
47.6413
0.992764
47.2772
0.898499
46.91
0.804726
46.5388
0.71154
46.1627
0.619038
45.7807
0.527322
45.3917
0.436499
44.9942
0.346682
44.5867
0.257991
44.1674
0.170553
43.7341
0.0845058
43.2843
0
42.8147
-0.0827986
42.3216
-0.163704
41.8003
-0.242504
41.2436
-0.318953
40.641
-0.392741
39.9831
-0.463458
39.2726
-0.530665
38.4972
-0.594132
37.4856
-0.653213
35.7387
-0.702842
32.7032
-0.727993
28.6005
-0.711594
24.5985
-0.660945
21.7249
-0.610082
20.101
-0.584048
19.321
-0.583596
18.9943
-0.599622
18.8931
-0.62453
18.906
-0.654039
18.9812
-0.686029
19.0938
-0.719467
19.2315
-0.753836
19.3873
-0.788862
19.5574
-0.824384
19.7393
-0.860299
19.9313
-0.896536
20.1322
-0.93304
20.341
-0.969766
20.5573
-1.00667
20.7803
-1.04373
21.0098
-1.0809
21.2454
-1.11816
21.4866
-1.15547
21.7337
-1.1928
21.9854
-1.23017
22.2444
-1.26739
22.5017
-1.30492
22.785
-1.3412
-1.38105
23.0087
56.2432
3.80734
-56.6349
55.8537
3.72282
55.4664
3.6368
55.0816
3.54932
54.6991
3.46044
54.3192
3.37023
53.9417
3.27873
53.5667
3.18601
53.1943
3.09213
52.8244
2.99715
52.457
2.90113
52.0921
2.80413
51.7297
2.70623
51.3696
2.60749
51.0118
2.50797
50.6562
2.40775
50.3028
2.3069
49.9512
2.20549
49.6015
2.10358
49.2534
2.00127
48.9067
1.89862
48.5612
1.7957
48.2166
1.69261
47.8727
1.58942
47.529
1.48621
47.1853
1.38307
46.8411
1.28008
46.496
1.17733
46.1494
1.07492
45.8008
0.972933
45.4494
0.871472
45.0946
0.770635
44.7356
0.670526
44.3713
0.571253
44.0008
0.47293
43.6227
0.375675
43.2357
0.279615
42.8381
0.184884
42.4278
0.0916264
42.0027
0
41.5598
-0.0898228
41.0958
-0.177649
40.6064
-0.263261
40.086
-0.346404
39.5251
-0.426775
38.9136
-0.503963
38.2501
-0.57748
37.5362
-0.647002
36.6792
-0.712234
35.3034
-0.76995
32.8154
-0.807365
29.0991
-0.803682
25.054
-0.755264
21.8557
-0.693345
19.9152
-0.653105
18.9371
-0.643214
18.5056
-0.655093
18.3493
-0.679151
18.3304
-0.709514
18.3843
-0.743193
18.4805
-0.778738
18.6039
-0.815435
18.7466
-0.852912
18.9042
-0.890962
19.0738
-0.929453
19.2535
-0.968299
19.4422
-1.00744
19.6389
-1.04681
19.8428
-1.08638
20.0535
-1.1261
20.2704
-1.16594
20.4933
-1.20587
20.7218
-1.24585
20.956
-1.28584
21.1946
-1.32586
21.4404
-1.36572
21.6846
-1.4059
21.9533
-1.44477
-1.48734
22.1665
54.464
4.08743
-54.8453
54.085
3.99657
53.7084
3.9041
53.3343
3.81009
52.9627
3.7146
52.5936
3.61768
52.2271
3.5194
51.8632
3.41982
51.502
3.319
51.1433
3.21701
50.7873
3.11393
50.4338
3.00981
50.0829
2.90472
49.7344
2.79874
49.3883
2.69194
49.0445
2.58439
48.7029
2.47617
48.3634
2.36735
48.0258
2.25802
47.6899
2.14824
47.3557
2.03811
47.0228
1.9277
46.6909
1.81709
46.36
1.70639
46.0295
1.59566
45.6993
1.485
45.3688
1.3745
45.0377
1.26426
44.7054
1.15437
44.3716
1.04493
44.0354
0.93605
43.6963
0.827823
43.3535
0.720366
43.0062
0.613789
42.6532
0.508214
42.2936
0.403765
41.9259
0.300573
41.5488
0.198779
41.1603
0.0985337
40.7585
0
40.3407
-0.0966434
39.9038
-0.191198
39.4443
-0.283439
38.9572
-0.373112
38.4349
-0.459911
37.867
-0.543438
37.2486
-0.623181
36.5848
-0.698706
35.8349
-0.769837
34.7433
-0.834801
32.7604
-0.883805
29.5204
-0.895219
25.5758
-0.854742
22.1137
-0.785068
19.8351
-0.72898
18.6216
-0.706388
18.0612
-0.711692
17.8383
-0.733518
17.7826
-0.763985
17.8132
-0.79892
17.8923
-0.836287
18.0015
-0.875095
18.1314
-0.914842
18.2768
-0.955252
18.4345
-0.99616
18.6026
-1.03746
18.7797
-1.07908
18.9647
-1.12095
19.157
-1.16302
19.3558
-1.20526
19.5609
-1.24762
19.7718
-1.29006
19.9882
-1.33255
20.21
-1.37505
20.4363
-1.41757
20.6694
-1.45992
20.9013
-1.50259
21.1561
-1.54389
-1.589
21.3594
52.7398
4.35789
-53.1108
52.3713
4.26089
52.0052
4.1622
51.6417
4.06187
51.2808
3.95998
50.9225
3.85659
50.5668
3.75176
50.2138
3.64556
49.8635
3.53805
49.5159
3.4293
49.171
3.3194
48.8287
3.2084
48.489
3.09638
48.1518
2.98342
47.8171
2.8696
47.4848
2.75498
47.1548
2.63965
46.8269
2.52369
46.5011
2.40719
46.1771
2.29022
45.8549
2.17287
45.5342
2.05523
45.2147
1.93738
44.8962
1.81942
44.5785
1.70144
44.2612
1.58353
43.9439
1.46579
43.6262
1.34832
43.3078
1.23122
42.988
1.11458
42.6664
0.998532
42.3423
0.883169
42.0151
0.768611
41.6838
0.654977
41.3476
0.542389
41.0054
0.43098
40.6562
0.320885
40.2984
0.212251
39.9305
0.105233
39.5505
0
39.1563
-0.103265
38.745
-0.20436
38.3133
-0.303055
37.857
-0.399092
37.37
-0.492168
36.8428
-0.581897
36.2678
-0.667767
35.6482
-0.749252
34.9731
-0.82613
34.0874
-0.897603
32.5383
-0.956966
29.8196
-0.984375
26.1198
-0.957304
22.4909
-0.885309
19.8724
-0.813356
18.3856
-0.77473
17.6672
-0.770422
17.3623
-0.788183
17.2631
-0.817769
17.2677
-0.853417
17.3286
-0.892273
17.4234
-0.932958
17.5406
-0.974784
17.6742
-1.01739
17.8206
-1.06056
17.9775
-1.10416
18.1435
-1.14811
18.3174
-1.19233
18.4985
-1.23677
18.6862
-1.28138
18.8799
-1.32611
19.0794
-1.37092
19.2843
-1.41578
19.4944
-1.46064
19.709
-1.50552
19.93
-1.5502
20.1501
-1.5952
20.3918
-1.6388
-1.68629
20.5856
51.0691
4.619
-51.4297
50.7109
4.51607
50.3553
4.41137
50.0022
4.30495
49.6519
4.19689
49.3042
4.08725
48.9592
3.97609
48.6169
3.8635
48.2774
3.74953
47.9406
3.63427
47.6065
3.51779
47.2751
3.40015
46.9464
3.28145
46.6202
3.16176
46.2966
3.04116
45.9755
2.91972
45.6567
2.79754
45.3402
2.6747
45.0258
2.55128
44.7134
2.42737
44.4028
2.30307
44.0938
2.17845
43.7862
2.05362
43.4798
1.92867
43.1743
1.80369
42.8695
1.67879
42.5648
1.55406
42.2601
1.42961
41.9549
1.30554
41.6487
1.18196
41.341
1.05899
41.0312
0.936734
40.7187
0.815316
40.4028
0.694858
40.0825
0.575491
39.757
0.457349
39.4251
0.340573
39.0857
0.225314
38.7371
0.111732
38.3778
0
38.0057
-0.109695
37.6183
-0.217146
37.2126
-0.322122
36.785
-0.424362
36.3304
-0.523563
35.8408
-0.619355
35.3072
-0.71124
34.729
-0.798634
34.1086
-0.881187
33.3653
-0.958613
32.1642
-1.0269
29.9642
-1.06978
26.6344
-1.06036
22.9663
-0.993085
20.0357
-0.907635
18.2422
-0.850146
17.3312
-0.832595
16.9248
-0.84388
16.7728
-0.871272
16.7475
-0.906932
16.7889
-0.946873
16.8688
-0.989167
16.9734
-1.03287
17.0955
-1.0775
17.2309
-1.12278
17.377
-1.16854
17.5324
-1.21468
17.6957
-1.26111
17.8662
-1.30777
18.0432
-1.35461
18.2262
-1.40157
18.4148
-1.44862
18.6087
-1.49571
18.8078
-1.54279
19.0112
-1.58988
19.2208
-1.63677
19.4298
-1.68396
19.6589
-1.72972
-1.77941
19.8437
49.4504
4.87107
-49.8009
49.1025
4.76242
48.7571
4.65191
48.4145
4.53961
48.0744
4.42559
47.7372
4.30992
47.4026
4.19266
47.0709
4.0739
46.7419
3.95371
46.4157
3.83216
46.0922
3.70933
45.7715
3.5853
45.4534
3.46015
45.138
3.33397
44.8252
3.20683
44.515
3.07882
44.2071
2.95003
43.9016
2.82055
43.5983
2.69047
43.297
2.55987
42.9977
2.42886
42.7001
2.29752
42.404
2.16595
42.1092
2.03425
41.8155
1.90253
41.5226
1.77088
41.2302
1.63941
40.9379
1.50822
40.6454
1.37743
40.3521
1.24715
40.0577
1.11749
39.7616
0.988576
39.4632
0.860529
39.1618
0.733478
38.8567
0.607554
38.547
0.482898
38.2316
0.359655
37.9095
0.237979
37.5793
0.118036
37.2394
0
36.8881
-0.115937
36.5231
-0.229566
36.1417
-0.340653
35.7407
-0.448937
35.3159
-0.554116
34.8607
-0.655831
34.3661
-0.753609
33.8279
-0.846844
33.2514
-0.935042
32.6038
-1.01807
31.6638
-1.09392
29.9379
-1.15068
27.0665
-1.16126
23.505
-1.10626
20.3262
-1.01252
18.2049
-0.934715
17.0633
-0.899897
16.5304
-0.901593
16.3136
-0.925024
16.2531
-0.959769
16.2727
-1.00029
16.3371
-1.04388
16.4289
-1.08924
16.5396
-1.13571
16.6643
-1.18294
16.8002
-1.23072
16.9454
-1.27891
17.0986
-1.32742
17.2589
-1.37618
17.4258
-1.42511
17.5985
-1.47418
17.7769
-1.52332
17.9603
-1.57251
18.1489
-1.62168
18.3416
-1.67085
18.5404
-1.71981
18.7387
-1.76906
18.956
-1.81685
-1.86861
19.1322
47.8824
5.11438
-48.2228
47.5445
5.00021
47.2093
4.8841
46.8768
4.76612
46.547
4.64635
46.22
4.52486
45.8957
4.40173
45.5742
4.27702
45.2555
4.15082
44.9396
4.0232
44.6266
3.89426
44.3162
3.76406
44.0086
3.6327
43.7037
3.50025
43.4014
3.36681
43.1017
3.23247
42.8044
3.09731
42.5096
2.96143
42.217
2.82492
41.9265
2.68787
41.638
2.55039
41.3514
2.41257
41.0664
2.2745
40.7829
2.1363
40.5006
1.99807
40.2192
1.85991
39.9385
1.72193
39.6581
1.58424
39.3777
1.44697
39.0968
1.31021
38.8152
1.1741
38.5321
1.03875
38.2472
0.904301
37.9597
0.770876
37.6689
0.638612
37.3742
0.507654
37.0745
0.37815
36.7687
0.25026
36.4558
0.12415
36.1343
-2.47308e-07
35.8025
-0.121997
35.4585
-0.241629
35.0998
-0.358662
34.7236
-0.472833
34.3264
-0.583843
33.9026
-0.691343
33.4443
-0.794886
32.9446
-0.893875
32.4068
-0.9877
31.8242
-1.07616
31.0683
-1.15848
29.7429
-1.22698
27.3699
-1.25776
24.0593
-1.22175
20.7343
-1.12758
18.2865
-1.03042
16.8757
-0.97441
16.1859
-0.962636
15.888
-0.979736
15.785
-1.01232
15.78
-1.05275
15.8275
-1.09726
15.9064
-1.14403
16.0058
-1.19216
16.1201
-1.24119
16.246
-1.29084
16.3814
-1.34095
16.5249
-1.3914
16.6756
-1.44212
16.8327
-1.49303
16.9958
-1.54407
17.1643
-1.59519
17.3378
-1.64635
17.5164
-1.69749
17.699
-1.74861
17.8875
-1.79952
18.0757
-1.8507
18.2817
-1.9004
-1.95407
18.4497
46.3636
5.34922
-46.694
46.0357
5.22972
45.7104
5.10821
45.3879
4.98476
45.0681
4.85944
44.7511
4.73234
44.4368
4.60353
44.1254
4.47309
43.8168
4.3411
43.511
4.20764
43.208
4.07279
42.9078
3.93665
42.6104
3.7993
42.3157
3.66082
42.0236
3.52131
41.7341
3.38086
41.4471
3.23956
41.1626
3.09751
40.8804
2.9548
40.6004
2.81153
40.3224
2.66781
40.0464
2.52374
39.7721
2.37941
39.4994
2.23493
39.228
2.09042
38.9577
1.94598
38.6882
1.80173
38.4192
1.65777
38.1505
1.51423
37.8815
1.37122
37.612
1.22888
37.3414
1.08732
37.0693
0.94668
36.7951
0.807092
36.518
0.668697
36.2375
0.531641
35.9526
0.396078
35.6624
0.262167
35.3658
0.130081
35.0615
0
34.7481
-0.12788
34.4238
-0.253345
34.0864
-0.376161
33.7333
-0.496067
33.3615
-0.612765
32.9665
-0.725913
32.5416
-0.835089
32.0788
-0.939724
31.5775
-1.03915
31.0416
-1.13298
30.409
-1.22103
29.3971
-1.29906
27.5123
-1.34843
24.5739
-1.33598
21.2356
-1.2509
18.495
-1.1387
16.7825
-1.05855
15.8998
-1.02874
15.4999
-1.03637
15.3447
-1.06508
15.3107
-1.10455
15.3398
-1.1495
15.4051
-1.19739
15.4931
-1.24697
15.5972
-1.29763
15.7134
-1.34901
15.8394
-1.4009
15.9737
-1.45318
16.1152
-1.50573
16.2631
-1.55849
16.4168
-1.61139
16.576
-1.66437
16.7401
-1.71738
16.9091
-1.77037
17.0822
-1.82333
17.2608
-1.87606
17.4395
-1.92906
17.6348
-1.98055
-2.03601
17.795
44.8925
5.57587
-45.2132
44.5744
5.45122
44.2589
5.3245
43.9462
5.19577
43.6362
5.06512
43.329
4.93261
43.0246
4.79833
42.723
4.66236
42.4243
4.52478
42.1283
4.38569
41.8352
4.24516
41.5449
4.10328
41.2573
3.96015
40.9725
3.81586
40.6903
3.6705
40.4108
3.52416
40.1338
3.37694
39.8592
3.22894
39.5871
3.08026
39.3172
2.931
39.0494
2.78127
38.7836
2.63116
38.5196
2.48079
38.2573
2.33027
37.9964
2.1797
37.7368
2.0292
37.4781
1.87889
37.2201
1.72888
36.9625
1.5793
36.7049
1.43026
36.447
1.28189
36.1883
1.13433
35.9284
0.987711
35.6668
0.842166
35.4027
0.69784
35.1357
0.554884
34.8648
0.413454
34.5893
0.273713
34.3082
0.135833
34.0202
0
33.7241
-0.13359
33.4182
-0.264724
33.1007
-0.393165
32.7692
-0.518655
32.421
-0.640898
32.0524
-0.759558
31.6579
-0.874236
31.2298
-0.984399
30.7639
-1.08936
30.2656
-1.18856
29.7133
-1.28193
28.9292
-1.36761
27.4807
-1.43276
24.9934
-1.44559
21.7903
-1.37908
18.8299
-1.25985
16.7984
-1.15484
15.6834
-1.10213
15.155
-1.09624
14.9342
-1.11877
14.8654
-1.15608
14.8737
-1.20084
14.9245
-1.24948
15.001
-1.30028
15.0949
-1.35239
15.2017
-1.40535
15.3187
-1.4589
15.444
-1.51287
15.5767
-1.56715
15.7158
-1.62164
15.8607
-1.67628
16.0109
-1.731
16.1661
-1.78576
16.3261
-1.84047
16.49
-1.89516
16.6593
-1.9496
16.8289
-2.0043
17.014
-2.05749
-2.11461
17.1668
43.4679
5.79459
-43.7791
43.1594
5.66499
42.8535
5.53324
42.5504
5.39943
42.25
5.26362
41.9524
5.1259
41.6576
4.98634
41.3656
4.84505
41.0765
4.70209
40.7901
4.55757
40.5066
4.41156
40.2259
4.26417
39.9479
4.11547
39.6727
3.96557
39.4001
3.81457
39.1302
3.66255
38.8629
3.50963
38.598
3.3559
38.3356
3.20146
38.0755
3.04643
37.8175
2.89089
37.5616
2.73497
37.3075
2.57878
37.0552
2.42242
36.8045
2.26601
36.5551
2.10967
36.3067
1.95351
36.0592
1.79766
35.8123
1.64224
35.5656
1.48738
35.3188
1.3332
35.0715
1.17984
34.8233
1.02744
34.5736
0.876133
34.322
0.726072
34.0678
0.577408
33.8102
0.430297
33.5486
0.284908
33.282
0.141413
33.0094
0
32.7296
-0.139134
32.441
-0.275774
32.1421
-0.409686
31.8307
-0.540611
31.5044
-0.66826
31.1602
-0.792301
30.7935
-0.912349
30.3975
-1.02791
29.9659
-1.13833
29.5012
-1.24291
29.0021
-1.34144
28.3728
-1.43339
27.2817
-1.51112
25.2721
-1.54813
22.3455
-1.50769
19.2776
-1.39246
16.9359
-1.26548
15.5505
-1.18549
14.8608
-1.16112
14.5568
-1.17431
14.4451
-1.20782
14.4292
-1.25156
14.4641
-1.3005
14.5287
-1.35224
14.6125
-1.40561
14.71
-1.45999
14.8182
-1.51506
14.935
-1.57061
15.0592
-1.62649
15.1898
-1.68261
15.3263
-1.73888
15.4681
-1.79523
15.6147
-1.85161
15.766
-1.90796
15.9213
-1.96426
16.0818
-2.02031
16.2426
-2.0766
16.4181
-2.13137
-2.19003
16.5638
42.0884
6.00564
-42.3901
41.7893
5.87127
41.4928
5.73469
41.1991
5.59597
40.9081
5.45519
40.6199
5.31245
40.3344
5.16782
40.0518
5.02139
39.772
4.87325
39.495
4.7235
39.2208
4.57221
38.9494
4.41949
38.6808
4.26543
38.4149
4.11014
38.1517
3.9537
37.8911
3.79621
37.6331
3.63779
37.3777
3.47854
37.1246
3.31855
36.8739
3.15794
36.6254
2.99682
36.379
2.8353
36.1346
2.67349
35.8919
2.5115
35.6509
2.34946
35.4113
2.18748
35.1729
2.02568
34.9355
1.86419
34.6988
1.70314
34.4625
1.54265
34.2264
1.38285
33.9899
1.22389
33.7528
1.0659
33.5146
0.909031
33.2747
0.753422
33.0326
0.599233
32.7877
0.446624
32.5393
0.295763
32.2865
0.146825
32.0283
0
31.7637
-0.144515
31.4915
-0.286505
31.2099
-0.425736
30.9174
-0.561953
30.6115
-0.694869
30.2898
-0.824159
29.9484
-0.949451
29.5818
-1.07029
29.1829
-1.18605
28.7505
-1.29599
28.2897
-1.39966
27.76
-1.49704
26.9381
-1.5844
25.3819
-1.6424
22.842
-1.6321
19.8075
-1.5331
17.2016
-1.39163
15.5163
-1.28186
14.6275
-1.23331
14.2172
-1.23303
14.0516
-1.26046
14.0067
-1.30202
14.0238
-1.35067
14.0757
-1.403
14.1492
-1.45741
14.2375
-1.51305
14.3371
-1.5695
14.4457
-1.6265
14.5618
-1.68387
14.6844
-1.7415
14.8128
-1.79929
14.9465
-1.85718
15.085
-1.91509
15.2281
-1.97296
15.3751
-2.03078
15.5271
-2.08834
15.6798
-2.14611
15.8461
-2.20237
-2.26246
15.985
40.7527
6.20929
-41.0452
40.4627
6.07032
40.1755
5.92907
39.8909
5.78563
39.6091
5.64008
39.33
5.49249
39.0537
5.34297
38.7802
5.1916
38.5095
5.03847
38.2416
4.88367
37.9765
4.7273
37.7141
4.56945
37.4546
4.41023
37.1977
4.24973
36.9436
4.08805
36.6921
3.9253
36.4431
3.76158
36.1967
3.597
35.9528
3.43167
35.7112
3.26569
35.4718
3.09918
35.2346
2.93225
34.9994
2.76502
34.766
2.59761
34.5343
2.43013
34.3042
2.26271
34.0754
2.09547
33.8476
1.92854
33.6208
1.76205
33.3944
1.59613
33.1684
1.43091
32.9423
1.26654
32.7158
1.10315
32.4884
0.940893
32.2598
0.779918
32.0293
0.620383
31.7963
0.46245
31.5604
0.306288
31.3205
0.152075
31.0761
-2.47539e-07
30.8259
-0.149738
30.5689
-0.296925
30.3037
-0.441328
30.0286
-0.582695
29.7418
-0.720742
29.4408
-0.855152
29.1227
-0.985563
28.7828
-1.11154
28.4145
-1.23253
28.0136
-1.34777
27.5845
-1.45661
27.1175
-1.55904
26.4828
-1.65373
25.3161
-1.72848
23.2241
-1.74848
20.3726
-1.67662
17.5907
-1.53258
15.596
-1.39415
14.4678
-1.31578
13.922
-1.29671
13.6876
-1.31493
13.6069
-1.35272
13.6034
-1.40026
13.6415
-1.45276
13.7043
-1.50793
13.7836
-1.56465
13.8748
-1.62234
13.9754
-1.68066
14.0836
-1.73941
14.1985
-1.79844
14.3192
-1.85766
14.4452
-1.91697
14.576
-1.97631
14.7113
-2.0356
14.8504
-2.09484
14.9944
-2.15381
15.1392
-2.21298
15.2968
-2.27064
-2.33205
15.4293
39.4594
6.40578
-39.7429
39.1784
6.26238
38.9002
6.11665
38.6246
5.96866
38.3517
5.8185
38.0815
5.66626
37.8141
5.51202
37.5495
5.35589
37.2876
5.19795
37.0286
5.03829
36.7723
4.87702
36.5188
4.71424
36.268
4.55004
36.0199
4.38453
35.7745
4.2178
35.5318
4.04997
35.2916
3.88115
35.054
3.71144
34.8188
3.54095
34.586
3.36979
34.3555
3.19809
34.1271
3.02595
33.9007
2.8535
33.6763
2.68085
33.4537
2.50813
33.2326
2.33547
33.0129
2.16298
32.7945
1.9908
32.577
1.81905
32.3602
1.64789
32.1439
1.47743
31.9277
1.30782
31.7112
1.13922
31.4942
0.971753
31.2762
0.805588
31.0567
0.640879
30.8351
0.47779
30.6109
0.316493
30.3834
0.157167
30.1518
0
29.9152
-0.154808
29.6725
-0.307043
29.4226
-0.456474
29.1639
-0.602852
28.8948
-0.745897
28.6131
-0.8853
28.3163
-1.02071
28.0008
-1.15171
27.6606
-1.27779
27.2902
-1.39823
26.8905
-1.51227
26.4647
-1.61964
25.951
-1.72018
25.089
-1.80744
23.45
-1.85458
20.9137
-1.81706
18.0824
-1.68519
15.8011
-1.52445
14.3972
-1.41199
13.6804
-1.36777
13.3571
-1.37254
13.2314
-1.40431
13.2033
-1.44963
13.2259
-1.50172
13.2775
-1.55733
13.3475
-1.61492
13.4305
-1.67369