/*--------------------------------*- C++ -*----------------------------------*\
| =========                 |                                                 |
| \\      /  F ield         | OpenFOAM: The Open Source CFD Toolbox           |
|  \\    /   O peration     | Version:  2312                                  |
|   \\  /    A nd           | Website:  www.openfoam.com                      |
|    \\/     M anipulation  |                                                 |
\*---------------------------------------------------------------------------*/
FoamFile
{
    version     2.0;
    format      ascii;
    arch        "LSB;label=32;scalar=64";
    class       volVectorField;
    location    "0.3";
    object      flux;
}
// * * * * * * * * * * * * * * * * * * * * * * * * * * * * * * * * * * * * * //

dimensions      [0 1 -1 1 0 0 0];

internalField   nonuniform List<vector> 
100
(
(-2.92405 0 0)
(-3.0249 0 0)
(-3.111 0 0)
(-3.18319 0 0)
(-3.24231 0 0)
(-3.28916 0 0)
(-3.32451 0 0)
(-3.34912 0 0)
(-3.36372 0 0)
(-3.369 0 0)
(-3.36564 0 0)
(-3.35429 0 0)
(-3.33556 0 0)
(-3.31005 0 0)
(-3.27834 0 0)
(-3.24097 0 0)
(-3.19846 0 0)
(-3.15131 0 0)
(-3.09998 0 0)
(-3.04493 0 0)
(-2.98659 0 0)
(-2.92534 0 0)
(-2.86159 0 0)
(-2.79568 0 0)
(-2.72795 0 0)
(-2.65872 0 0)
(-2.58829 0 0)
(-2.51693 0 0)
(-2.44491 0 0)
(-2.37248 0 0)
(-2.29984 0 0)
(-2.22722 0 0)
(-2.1548 0 0)
(-2.08276 0 0)
(-2.01127 0 0)
(-1.94047 0 0)
(-1.8705 0 0)
(-1.80148 0 0)
(-1.73352 0 0)
(-1.66671 0 0)
(-1.60115 0 0)
(-1.53691 0 0)
(-1.47406 0 0)
(-1.41266 0 0)
(-1.35276 0 0)
(-1.29438 0 0)
(-1.23758 0 0)
(-1.18238 0 0)
(-1.12879 0 0)
(-1.07682 0 0)
(-1.02649 0 0)
(-0.977795 0 0)
(-0.930733 0 0)
(-0.885295 0 0)
(-0.841469 0 0)
(-0.799239 0 0)
(-0.758586 0 0)
(-0.719487 0 0)
(-0.681917 0 0)
(-0.645847 0 0)
(-0.611248 0 0)
(-0.578086 0 0)
(-0.546329 0 0)
(-0.51594 0 0)
(-0.486883 0 0)
(-0.45912 0 0)
(-0.432611 0 0)
(-0.407317 0 0)
(-0.383198 0 0)
(-0.360214 0 0)
(-0.338322 0 0)
(-0.317484 0 0)
(-0.297656 0 0)
(-0.278799 0 0)
(-0.260871 0 0)
(-0.243832 0 0)
(-0.227641 0 0)
(-0.212258 0 0)
(-0.197643 0 0)
(-0.183758 0 0)
(-0.170564 0 0)
(-0.158022 0 0)
(-0.146095 0 0)
(-0.134745 0 0)
(-0.123936 0 0)
(-0.113632 0 0)
(-0.103798 0 0)
(-0.0943982 0 0)
(-0.0853982 0 0)
(-0.0767643 0 0)
(-0.0684628 0 0)
(-0.0604607 0 0)
(-0.0527253 0 0)
(-0.0452244 0 0)
(-0.037926 0 0)
(-0.0307983 0 0)
(-0.0238101 0 0)
(-0.0169301 0 0)
(-0.0101272 0 0)
(-0.0033706 0 0)
)
;

boundaryField
{
    movingWall
    {
        type            calculated;
        value           uniform (-2.86982 0 0);
    }
    fixedWalls
    {
        type            calculated;
        value           nonuniform List<vector> 
201
(
(-2.92405 0 0)
(-3.0249 0 0)
(-3.111 0 0)
(-3.18319 0 0)
(-3.24231 0 0)
(-3.28916 0 0)
(-3.32451 0 0)
(-3.34912 0 0)
(-3.36372 0 0)
(-3.369 0 0)
(-3.36564 0 0)
(-3.35429 0 0)
(-3.33556 0 0)
(-3.31005 0 0)
(-3.27834 0 0)
(-3.24097 0 0)
(-3.19846 0 0)
(-3.15131 0 0)
(-3.09998 0 0)
(-3.04493 0 0)
(-2.98659 0 0)
(-2.92534 0 0)
(-2.86159 0 0)
(-2.79568 0 0)
(-2.72795 0 0)
(-2.65872 0 0)
(-2.58829 0 0)
(-2.51693 0 0)
(-2.44491 0 0)
(-2.37248 0 0)
(-2.29984 0 0)
(-2.22722 0 0)
(-2.1548 0 0)
(-2.08276 0 0)
(-2.01127 0 0)
(-1.94047 0 0)
(-1.8705 0 0)
(-1.80148 0 0)
(-1.73352 0 0)
(-1.66671 0 0)
(-1.60115 0 0)
(-1.53691 0 0)
(-1.47406 0 0)
(-1.41266 0 0)
(-1.35276 0 0)
(-1.29438 0 0)
(-1.23758 0 0)
(-1.18238 0 0)
(-1.12879 0 0)
(-1.07682 0 0)
(-1.02649 0 0)
(-0.977795 0 0)
(-0.930733 0 0)
(-0.885295 0 0)
(-0.841469 0 0)
(-0.799239 0 0)
(-0.758586 0 0)
(-0.719487 0 0)
(-0.681917 0 0)
(-0.645847 0 0)
(-0.611248 0 0)
(-0.578086 0 0)
(-0.546329 0 0)
(-0.51594 0 0)
(-0.486883 0 0)
(-0.45912 0 0)
(-0.432611 0 0)
(-0.407317 0 0)
(-0.383198 0 0)
(-0.360214 0 0)
(-0.338322 0 0)
(-0.317484 0 0)
(-0.297656 0 0)
(-0.278799 0 0)
(-0.260871 0 0)
(-0.243832 0 0)
(-0.227641 0 0)
(-0.212258 0 0)
(-0.197643 0 0)
(-0.183758 0 0)
(-0.170564 0 0)
(-0.158022 0 0)
(-0.146095 0 0)
(-0.134745 0 0)
(-0.123936 0 0)
(-0.113632 0 0)
(-0.103798 0 0)
(-0.0943982 0 0)
(-0.0853982 0 0)
(-0.0767643 0 0)
(-0.0684628 0 0)
(-0.0604607 0 0)
(-0.0527253 0 0)
(-0.0452244 0 0)
(-0.037926 0 0)
(-0.0307983 0 0)
(-0.0238101 0 0)
(-0.0169301 0 0)
(-0.0101272 0 0)
(-0.0033706 0 0)
(0 0 0)
(-2.92405 0 0)
(-3.0249 0 0)
(-3.111 0 0)
(-3.18319 0 0)
(-3.24231 0 0)
(-3.28916 0 0)
(-3.32451 0 0)
(-3.34912 0 0)
(-3.36372 0 0)
(-3.369 0 0)
(-3.36564 0 0)
(-3.35429 0 0)
(-3.33556 0 0)
(-3.31005 0 0)
(-3.27834 0 0)
(-3.24097 0 0)
(-3.19846 0 0)
(-3.15131 0 0)
(-3.09998 0 0)
(-3.04493 0 0)
(-2.98659 0 0)
(-2.92534 0 0)
(-2.86159 0 0)
(-2.79568 0 0)
(-2.72795 0 0)
(-2.65872 0 0)
(-2.58829 0 0)
(-2.51693 0 0)
(-2.44491 0 0)
(-2.37248 0 0)
(-2.29984 0 0)
(-2.22722 0 0)
(-2.1548 0 0)
(-2.08276 0 0)
(-2.01127 0 0)
(-1.94047 0 0)
(-1.8705 0 0)
(-1.80148 0 0)
(-1.73352 0 0)
(-1.66671 0 0)
(-1.60115 0 0)
(-1.53691 0 0)
(-1.47406 0 0)
(-1.41266 0 0)
(-1.35276 0 0)
(-1.29438 0 0)
(-1.23758 0 0)
(-1.18238 0 0)
(-1.12879 0 0)
(-1.07682 0 0)
(-1.02649 0 0)
(-0.977795 0 0)
(-0.930733 0 0)
(-0.885295 0 0)
(-0.841469 0 0)
(-0.799239 0 0)
(-0.758586 0 0)
(-0.719487 0 0)
(-0.681917 0 0)
(-0.645847 0 0)
(-0.611248 0 0)
(-0.578086 0 0)
(-0.546329 0 0)
(-0.51594 0 0)
(-0.486883 0 0)
(-0.45912 0 0)
(-0.432611 0 0)
(-0.407317 0 0)
(-0.383198 0 0)
(-0.360214 0 0)
(-0.338322 0 0)
(-0.317484 0 0)
(-0.297656 0 0)
(-0.278799 0 0)
(-0.260871 0 0)
(-0.243832 0 0)
(-0.227641 0 0)
(-0.212258 0 0)
(-0.197643 0 0)
(-0.183758 0 0)
(-0.170564 0 0)
(-0.158022 0 0)
(-0.146095 0 0)
(-0.134745 0 0)
(-0.123936 0 0)
(-0.113632 0 0)
(-0.103798 0 0)
(-0.0943982 0 0)
(-0.0853982 0 0)
(-0.0767643 0 0)
(-0.0684628 0 0)
(-0.0604607 0 0)
(-0.0527253 0 0)
(-0.0452244 0 0)
(-0.037926 0 0)
(-0.0307983 0 0)
(-0.0238101 0 0)
(-0.0169301 0 0)
(-0.0101272 0 0)
(-0.0033706 0 0)
)
;
    }
    frontAndBack
    {
        type            empty;
    }
}


// ************************************************************************* //
