/*--------------------------------*- C++ -*----------------------------------*\
| =========                 |                                                 |
| \\      /  F ield         | OpenFOAM: The Open Source CFD Toolbox           |
|  \\    /   O peration     | Version:  2312                                  |
|   \\  /    A nd           | Website:  www.openfoam.com                      |
|    \\/     M anipulation  |                                                 |
\*---------------------------------------------------------------------------*/
FoamFile
{
    version     2.0;
    format      ascii;
    arch        "LSB;label=32;scalar=64";
    class       volScalarField;
    location    "0.3";
    object      gradTx;
}
// * * * * * * * * * * * * * * * * * * * * * * * * * * * * * * * * * * * * * //

dimensions      [0 -1 0 1 0 0 0];

internalField   nonuniform List<scalar> 
100
(
-2.92405
-3.0249
-3.111
-3.18319
-3.24231
-3.28916
-3.32451
-3.34912
-3.36372
-3.369
-3.36564
-3.35429
-3.33556
-3.31005
-3.27834
-3.24097
-3.19846
-3.15131
-3.09998
-3.04493
-2.98659
-2.92534
-2.86159
-2.79568
-2.72795
-2.65872
-2.58829
-2.51693
-2.44491
-2.37248
-2.29984
-2.22722
-2.1548
-2.08276
-2.01127
-1.94047
-1.8705
-1.80148
-1.73352
-1.66671
-1.60115
-1.53691
-1.47406
-1.41266
-1.35276
-1.29438
-1.23758
-1.18238
-1.12879
-1.07682
-1.02649
-0.977795
-0.930733
-0.885295
-0.841469
-0.799239
-0.758586
-0.719487
-0.681917
-0.645847
-0.611248
-0.578086
-0.546329
-0.51594
-0.486883
-0.45912
-0.432611
-0.407317
-0.383198
-0.360214
-0.338322
-0.317484
-0.297656
-0.278799
-0.260871
-0.243832
-0.227641
-0.212258
-0.197643
-0.183758
-0.170564
-0.158022
-0.146095
-0.134745
-0.123936
-0.113632
-0.103798
-0.0943982
-0.0853982
-0.0767643
-0.0684628
-0.0604607
-0.0527253
-0.0452244
-0.037926
-0.0307983
-0.0238101
-0.0169301
-0.0101272
-0.0033706
)
;

boundaryField
{
    movingWall
    {
        type            calculated;
        value           uniform -2.86982;
    }
    fixedWalls
    {
        type            calculated;
        value           nonuniform List<scalar> 
201
(
-2.92405
-3.0249
-3.111
-3.18319
-3.24231
-3.28916
-3.32451
-3.34912
-3.36372
-3.369
-3.36564
-3.35429
-3.33556
-3.31005
-3.27834
-3.24097
-3.19846
-3.15131
-3.09998
-3.04493
-2.98659
-2.92534
-2.86159
-2.79568
-2.72795
-2.65872
-2.58829
-2.51693
-2.44491
-2.37248
-2.29984
-2.22722
-2.1548
-2.08276
-2.01127
-1.94047
-1.8705
-1.80148
-1.73352
-1.66671
-1.60115
-1.53691
-1.47406
-1.41266
-1.35276
-1.29438
-1.23758
-1.18238
-1.12879
-1.07682
-1.02649
-0.977795
-0.930733
-0.885295
-0.841469
-0.799239
-0.758586
-0.719487
-0.681917
-0.645847
-0.611248
-0.578086
-0.546329
-0.51594
-0.486883
-0.45912
-0.432611
-0.407317
-0.383198
-0.360214
-0.338322
-0.317484
-0.297656
-0.278799
-0.260871
-0.243832
-0.227641
-0.212258
-0.197643
-0.183758
-0.170564
-0.158022
-0.146095
-0.134745
-0.123936
-0.113632
-0.103798
-0.0943982
-0.0853982
-0.0767643
-0.0684628
-0.0604607
-0.0527253
-0.0452244
-0.037926
-0.0307983
-0.0238101
-0.0169301
-0.0101272
-0.0033706
0
-2.92405
-3.0249
-3.111
-3.18319
-3.24231
-3.28916
-3.32451
-3.34912
-3.36372
-3.369
-3.36564
-3.35429
-3.33556
-3.31005
-3.27834
-3.24097
-3.19846
-3.15131
-3.09998
-3.04493
-2.98659
-2.92534
-2.86159
-2.79568
-2.72795
-2.65872
-2.58829
-2.51693
-2.44491
-2.37248
-2.29984
-2.22722
-2.1548
-2.08276
-2.01127
-1.94047
-1.8705
-1.80148
-1.73352
-1.66671
-1.60115
-1.53691
-1.47406
-1.41266
-1.35276
-1.29438
-1.23758
-1.18238
-1.12879
-1.07682
-1.02649
-0.977795
-0.930733
-0.885295
-0.841469
-0.799239
-0.758586
-0.719487
-0.681917
-0.645847
-0.611248
-0.578086
-0.546329
-0.51594
-0.486883
-0.45912
-0.432611
-0.407317
-0.383198
-0.360214
-0.338322
-0.317484
-0.297656
-0.278799
-0.260871
-0.243832
-0.227641
-0.212258
-0.197643
-0.183758
-0.170564
-0.158022
-0.146095
-0.134745
-0.123936
-0.113632
-0.103798
-0.0943982
-0.0853982
-0.0767643
-0.0684628
-0.0604607
-0.0527253
-0.0452244
-0.037926
-0.0307983
-0.0238101
-0.0169301
-0.0101272
-0.0033706
)
;
    }
    frontAndBack
    {
        type            empty;
    }
}


// ************************************************************************* //
