/*--------------------------------*- C++ -*----------------------------------*\
| =========                 |                                                 |
| \\      /  F ield         | OpenFOAM: The Open Source CFD Toolbox           |
|  \\    /   O peration     | Version:  2312                                  |
|   \\  /    A nd           | Website:  www.openfoam.com                      |
|    \\/     M anipulation  |                                                 |
\*---------------------------------------------------------------------------*/
FoamFile
{
    version     2.0;
    format      ascii;
    arch        "LSB;label=32;scalar=64";
    class       surfaceScalarField;
    location    "0.275";
    object      phi;
}
// * * * * * * * * * * * * * * * * * * * * * * * * * * * * * * * * * * * * * //

dimensions      [0 3 -1 0 0 0 0];

oriented        oriented;

internalField   nonuniform List<scalar> 
62015
(
56.0053
0.294743
-57.0012
55.0009
0.285056
53.9872
0.275298
52.9628
0.265475
51.9262
0.255596
50.8758
0.245666
49.8098
0.235693
48.726
0.225684
47.6218
0.215646
46.4945
0.205585
45.3406
0.195508
44.1564
0.185422
42.9374
0.175332
41.6786
0.165246
40.3741
0.155171
39.0179
0.145114
37.6041
0.135088
36.129
0.125113
34.5958
0.115227
33.0216
0.105504
31.4436
0.096067
29.9186
0.0870851
28.513
0.0787364
27.2839
0.0711533
26.2656
0.0643816
25.4649
0.0583748
24.8666
0.0530228
24.4435
0.0481886
24.1651
0.0437383
24.0028
0.0395561
23.9324
0.0355493
23.9345
0.0316468
23.994
0.0277959
24.0994
0.0239569
24.2417
0.0201013
24.4143
0.0162077
24.6119
0.0122608
24.8307
0.00824888
25.0674
0.00416393
25.3197
0
25.5856
-0.00424719
25.8637
-0.00858
26.1527
-0.0130008
26.4518
-0.0175097
26.76
-0.0221073
27.0769
-0.0267929
27.4018
-0.031566
27.7345
-0.0364247
28.0745
-0.0413682
28.4217
-0.0463939
28.7759
-0.0515
29.1368
-0.0566842
29.5043
-0.061944
29.8784
-0.0672766
30.259
-0.0726793
30.6461
-0.078149
31.0395
-0.0836829
31.4394
-0.0892777
31.8456
-0.0949302
32.2582
-0.100637
32.6772
-0.106394
33.1026
-0.112199
33.5344
-0.118048
33.9726
-0.123937
34.4173
-0.129863
34.8685
-0.135821
35.3262
-0.141808
35.7904
-0.147821
36.2611
-0.153854
36.7384
-0.159905
37.2223
-0.16597
37.7128
-0.172043
38.2098
-0.178123
38.7139
-0.184202
39.223
-0.190286
39.7438
-0.196339
40.2554
-0.202458
40.8227
-0.208324
-0.214914
41.2463
53.7036
0.573828
-54.6663
52.7322
0.554878
51.7515
0.53579
50.7603
0.516577
49.7572
0.497252
48.7404
0.47783
47.7081
0.458322
46.6582
0.438744
45.5881
0.419109
44.4951
0.399428
43.3758
0.379715
42.2265
0.359982
41.0428
0.340242
39.8197
0.320507
38.5519
0.300794
37.2337
0.28112
35.8604
0.261515
34.4307
0.24203
32.9519
0.222763
31.4463
0.203891
29.9554
0.185686
28.536
0.168485
27.248
0.152606
26.1382
0.138248
25.2302
0.125439
24.523
0.114047
23.9988
0.103839
23.6309
0.0945557
23.3914
0.0859495
23.2549
0.0778128
23.2001
0.0699803
23.21
0.0623258
23.2716
0.0547546
23.3746
0.0471968
23.5112
0.0396003
23.6756
0.0319268
23.8631
0.0241481
24.0701
0.0162434
24.2939
0.00819774
24.5323
0
24.7835
-0.00835734
25.0463
-0.0168793
25.3194
-0.0255691
25.6021
-0.0344282
25.8936
-0.0434564
26.1933
-0.0526534
26.5008
-0.0620171
26.8157
-0.071545
27.1378
-0.0812343
27.4667
-0.0910811
27.8023
-0.101081
28.1445
-0.111231
28.493
-0.121524
28.848
-0.131956
29.2091
-0.142522
29.5766
-0.153216
29.9502
-0.164031
30.3299
-0.174963
30.7159
-0.186004
31.1079
-0.197148
31.5062
-0.208388
31.9106
-0.219718
32.3212
-0.231131
32.738
-0.242619
33.161
-0.254176
33.5902
-0.265794
34.0257
-0.277466
34.4675
-0.289185
34.9156
-0.300942
35.3699
-0.312731
35.8306
-0.324545
36.2977
-0.336373
36.7709
-0.348212
37.251
-0.360047
37.7359
-0.371889
38.232
-0.38367
38.7196
-0.395571
39.259
-0.406995
-0.419778
39.6669
51.4578
0.837454
-52.389
50.5179
0.80965
49.5689
0.781645
48.6094
0.753457
47.638
0.725106
46.653
0.69661
45.6527
0.667991
44.6349
0.639266
43.597
0.610455
42.5363
0.581577
41.4495
0.552649
40.3328
0.52369
39.1821
0.494719
37.9925
0.465756
36.7591
0.436825
35.477
0.407961
34.143
0.379218
32.7592
0.350699
31.3374
0.322589
29.9054
0.295199
28.5076
0.268965
27.1989
0.244369
26.0311
0.221814
25.0399
0.201494
24.2388
0.183362
23.6209
0.167173
23.1665
0.152574
22.8504
0.139199
22.6472
0.126711
22.5348
0.114833
22.4946
0.103346
22.5119
0.0920821
22.5754
0.0809159
22.6763
0.0697538
22.8077
0.0585261
22.9644
0.0471813
23.1423
0.035681
23.3384
0.0239967
23.55
0.0121082
23.7754
0
24.0128
-0.0123381
24.2611
-0.0249128
24.5193
-0.0377286
24.7865
-0.0507874
25.0622
-0.0640894
25.3457
-0.0776329
25.6367
-0.0914159
25.9349
-0.105434
26.2399
-0.119683
26.5515
-0.134158
26.8696
-0.148853
27.1941
-0.163761
27.5247
-0.178875
27.8614
-0.194188
28.2042
-0.209692
28.5531
-0.225378
28.9079
-0.241238
29.2686
-0.257263
29.6353
-0.273444
30.0079
-0.289772
30.3865
-0.306236
30.7711
-0.322828
31.1615
-0.339536
31.558
-0.356351
31.9605
-0.373263
32.3689
-0.39026
32.7834
-0.407333
33.2039
-0.42447
33.6304
-0.441661
34.0631
-0.458894
34.5017
-0.476159
34.9466
-0.493443
35.3973
-0.510738
35.8546
-0.528025
36.3166
-0.545318
36.7891
-0.562521
37.2541
-0.57989
37.7671
-0.596578
-0.615186
38.1584
49.2841
1.0861
-50.1853
48.3744
1.04983
47.4555
1.0133
46.5262
0.976537
45.585
0.939557
44.6303
0.90239
43.6603
0.865059
42.6727
0.82759
41.6652
0.790006
40.6349
0.752331
39.5786
0.714588
38.4926
0.676802
37.3729
0.638999
36.2148
0.601206
35.0139
0.563462
33.7665
0.525824
32.4716
0.488387
31.1349
0.451328
29.7735
0.414953
28.4198
0.379732
27.1197
0.346258
25.9237
0.315118
24.8744
0.286728
23.9969
0.261214
23.2961
0.238412
22.7607
0.217952
22.3703
0.199375
22.1013
0.182226
21.9313
0.166103
21.8408
0.150678
21.814
0.135693
21.8382
0.120954
21.9035
0.106312
22.0024
0.091655
22.129
0.0769017
22.2786
0.0619901
22.4477
0.0468738
22.6336
0.031519
22.8339
0.0159005
23.0471
0
23.2716
-0.016195
23.5064
-0.0326929
23.7505
-0.0494988
24.0032
-0.0666148
24.264
-0.084041
24.5323
-0.101775
24.8078
-0.119815
25.0902
-0.138154
25.3791
-0.156788
25.6745
-0.175709
25.9761
-0.19491
26.2837
-0.214381
26.5974
-0.234115
26.9169
-0.254102
27.2424
-0.27433
27.5736
-0.294791
27.9106
-0.315472
28.2533
-0.336361
28.6018
-0.357448
28.956
-0.37872
29.316
-0.400165
29.6816
-0.421769
30.0531
-0.443521
30.4303
-0.465406
30.8132
-0.487411
31.2019
-0.509523
31.5965
-0.531728
31.9968
-0.554012
32.4029
-0.576361
32.8149
-0.59876
33.2327
-0.621196
33.6564
-0.643653
34.0857
-0.666119
34.5214
-0.688571
34.9616
-0.711025
35.4118
-0.733362
35.855
-0.755902
36.3434
-0.777576
-0.801672
36.7182
47.189
1.32031
-48.0612
46.3082
1.27596
45.4182
1.23129
44.5178
1.18632
43.6055
1.1411
42.6797
1.09564
41.7385
1.04998
40.7799
1.00415
39.8013
0.958176
38.7999
0.912087
37.7725
0.865912
36.7157
0.81968
35.6254
0.773426
34.4974
0.727189
33.3281
0.681028
32.1152
0.635031
30.8604
0.589358
29.5737
0.544289
28.2771
0.500281
27.0064
0.457969
25.8068
0.418077
24.7226
0.381234
23.787
0.347801
23.0154
0.317783
22.406
0.29088
21.9446
0.266601
21.611
0.244397
21.3837
0.223747
21.2429
0.204203
21.1717
0.185403
21.1566
0.167065
21.1867
0.148974
21.2534
0.130967
21.3503
0.112921
21.4723
0.0947442
21.6152
0.0763668
21.7761
0.0577374
21.9523
0.0388175
22.1421
0.0195785
22.3438
0
22.5562
-0.0199324
22.7783
-0.0402284
23.0092
-0.0608933
23.2483
-0.0819296
23.4951
-0.103337
23.7491
-0.125113
24.01
-0.147253
24.2774
-0.169752
24.5512
-0.192603
24.8312
-0.215796
25.1171
-0.239322
25.409
-0.263173
25.7066
-0.287335
26.0099
-0.311798
26.3188
-0.33655
26.6334
-0.361577
26.9535
-0.386865
27.2792
-0.412402
27.6104
-0.438172
27.9472
-0.464162
28.2895
-0.490355
28.6373
-0.516737
28.9906
-0.543291
29.3495
-0.570002
29.7139
-0.596854
30.0839
-0.623829
30.4595
-0.650912
30.8407
-0.678085
31.2274
-0.705332
31.6198
-0.732634
32.0177
-0.759975
32.4213
-0.787337
32.8304
-0.814704
33.2455
-0.842048
33.6649
-0.86939
34.0938
-0.896586
34.5164
-0.924016
34.9814
-0.95041
-0.979679
35.34
45.1735
1.54066
-46.0179
44.3205
1.48858
43.4582
1.43613
42.5856
1.38333
41.701
1.33022
40.803
1.27684
39.8895
1.22322
38.9585
1.16939
38.0075
1.1154
37.0338
1.06126
36.0342
1.00701
35.0052
0.952701
33.9433
0.898366
32.8447
0.844062
31.7068
0.789876
30.529
0.735948
29.3165
0.682526
28.0835
0.630026
26.8565
0.579073
25.6728
0.530455
24.5747
0.484975
23.5993
0.443234
22.7704
0.405478
22.0954
0.37156
21.5677
0.34104
21.1715
0.313322
20.8875
0.287786
20.6964
0.263865
20.5809
0.241085
20.5263
0.219062
20.5212
0.1975
20.556
0.176173
20.6236
0.154907
20.7184
0.133571
20.8358
0.112069
20.9723
0.0903238
21.1253
0.068281
21.2926
0.0458987
21.4724
0.0231458
21.6633
0
21.8643
-0.0235542
22.0744
-0.0475272
22.2929
-0.0719247
22.5192
-0.0967492
22.7528
-0.122
22.9933
-0.147674
23.2404
-0.173766
23.4938
-0.200269
23.7533
-0.227175
24.0187
-0.254474
24.2899
-0.282156
24.5667
-0.310207
24.8491
-0.338615
25.1371
-0.367367
25.4305
-0.396449
25.7292
-0.425845
26.0334
-0.455539
26.3429
-0.485515
26.6578
-0.515758
26.978
-0.546248
27.3035
-0.57697
27.6343
-0.607905
27.9705
-0.639034
28.312
-0.67034
28.6589
-0.701803
29.0111
-0.733403
29.3687
-0.765122
29.7316
-0.79694
30.0999
-0.828837
30.4736
-0.860793
30.8527
-0.892787
31.2372
-0.924798
31.6269
-0.956811
32.0225
-0.988789
32.4222
-1.02076
32.8309
-1.05255
33.2338
-1.08461
33.6766
-1.11547
-1.14961
34.0196
43.2362
1.74767
-44.0538
42.4099
1.68821
41.5744
1.62832
40.7285
1.56804
39.8706
1.5074
38.9992
1.44645
38.1123
1.38522
37.2078
1.32374
36.2833
1.26207
35.3362
1.20023
34.3633
1.13827
33.3613
1.07623
32.3271
1.01417
31.2575
0.952177
30.1512
0.890367
29.0101
0.828959
27.843
0.768318
26.6682
0.709023
25.5151
0.651866
24.4211
0.597752
23.4237
0.547497
22.5521
0.501606
21.8217
0.460164
21.2338
0.422862
20.7782
0.38913
20.4389
0.358287
20.1979
0.329665
20.0379
0.302671
19.9439
0.276814
19.9035
0.251704
19.9066
0.227036
19.9452
0.202579
20.0131
0.178153
20.1055
0.153624
20.2184
0.12889
20.3488
0.103873
20.4943
0.0785137
20.6531
0.0527687
20.8234
0.0266054
21.0042
0
21.1945
-0.0270639
21.3933
-0.0545966
21.6001
-0.0826046
21.8143
-0.11109
22.0354
-0.140051
22.2632
-0.169485
22.4973
-0.199386
22.7374
-0.229745
22.9833
-0.260553
23.235
-0.291798
23.4923
-0.323469
23.7549
-0.355552
24.023
-0.388032
24.2964
-0.420894
24.575
-0.454122
24.8589
-0.487698
25.1479
-0.521604
25.4421
-0.555823
25.7414
-0.590336
26.0459
-0.625123
26.3555
-0.660164
26.6703
-0.695439
26.9902
-0.730926
27.3152
-0.766606
27.6454
-0.802457
27.9807
-0.838457
28.3212
-0.874583
28.6668
-0.910813
29.0176
-0.947126
29.3736
-0.983498
29.7347
-1.01991
30.101
-1.05633
30.4724
-1.09274
30.8493
-1.12911
31.2303
-1.16546
31.6198
-1.20161
32.004
-1.23803
32.4257
-1.27312
-1.31186
32.7538
41.3746
1.94184
-42.1663
40.5741
1.87533
39.7644
1.80834
38.9442
1.74091
38.1119
1.67308
37.2661
1.60489
36.4048
1.53638
35.5258
1.4676
34.6269
1.39858
33.7053
1.32938
32.7582
1.26004
31.7825
1.19062
30.7754
1.12119
29.7349
1.05188
28.6613
0.982864
27.5592
0.914463
26.4411
0.847189
25.3289
0.781792
24.2536
0.719213
23.2504
0.660418
22.351
0.606159
21.5769
0.55679
20.9365
0.512213
20.426
0.47196
20.0337
0.43535
19.7437
0.401644
19.5396
0.370142
19.4062
0.340242
19.3306
0.311449
19.302
0.283373
19.3119
0.255707
19.3534
0.228219
19.4212
0.200728
19.511
0.173098
19.6194
0.145223
19.7439
0.117026
19.8823
0.0884444
20.0329
0.0594339
20.1944
0.0299605
20.3656
0
20.5457
-0.0304646
20.7339
-0.0614441
20.9296
-0.0929445
21.1324
-0.124968
21.3418
-0.157512
21.5576
-0.190573
21.7793
-0.224144
22.0069
-0.258216
22.2401
-0.292779
22.4788
-0.327819
22.7228
-0.363323
22.9721
-0.399275
23.2266
-0.435661
23.4862
-0.472461
23.7509
-0.509659
24.0206
-0.547236
24.2953
-0.585172
24.5749
-0.623445
24.8596
-0.662037
25.1492
-0.700924
25.4437
-0.740085
25.7432
-0.779497
26.0476
-0.819138
26.357
-0.858984
26.6713
-0.89901
26.9906
-0.939193
27.3148
-0.979509
27.644
-1.01993
27.9782
-1.06044
28.3173
-1.101
28.6614
-1.1416
29.0105
-1.1822
29.3644
-1.22278
29.7236
-1.26331
30.0868
-1.30381
30.458
-1.34407
30.8244
-1.38463
31.226
-1.42373
-1.46678
31.5398
39.5859
2.12365
-40.3527
38.8103
2.05042
38.0254
1.97664
37.2299
1.90238
36.4224
1.82767
35.6012
1.75256
34.7644
1.6771
33.9101
1.60133
33.0357
1.52529
32.1389
1.44905
31.2168
1.37266
30.2669
1.29619
29.2868
1.21976
28.276
1.14352
27.2365
1.06775
26.1764
0.992887
25.1113
0.919624
24.0658
0.848872
23.0709
0.781677
22.158
0.718989
21.3525
0.661436
20.6687
0.60918
20.1094
0.561933
19.6674
0.519085
19.3302
0.479873
19.0828
0.443518
18.9103
0.40931
18.7997
0.376648
18.7396
0.345043
18.721
0.314108
18.7364
0.283544
18.78
0.253118
18.8471
0.222652
18.9342
0.192009
19.0383
0.161083
19.157
0.129794
19.2886
0.0980821
19.4315
0.0659002
19.5845
0.0332145
19.7467
0
19.9172
-0.0337602
20.0954
-0.0680768
20.2807
-0.102956
20.4727
-0.138399
20.671
-0.174403
20.8754
-0.210964
21.0856
-0.248073
21.3013
-0.285722
21.5225
-0.323897
21.7489
-0.362585
21.9804
-0.401772
22.2171
-0.44144
22.4587
-0.481571
22.7052
-0.522148
22.9567
-0.56315
23.213
-0.604556
23.4741
-0.646345
23.74
-0.688495
24.0107
-0.730983
24.2861
-0.773785
24.5664
-0.816877
24.8514
-0.860235
25.1411
-0.903832
25.4357
-0.947645
25.7349
-0.991646
26.039
-1.03581
26.3478
-1.08011
26.6614
-1.12452
26.9797
-1.16901
27.3029
-1.21355
27.6307
-1.25812
27.9634
-1.30268
28.3007
-1.34722
28.6431
-1.39169
28.9893
-1.43611
29.3432
-1.48027
29.6926
-1.52474
30.0752
-1.56763
-1.61474
30.3753
37.8673
2.29355
-38.6101
37.1157
2.21389
36.3547
2.13364
35.583
2.05286
34.7993
1.97158
34.0018
1.88985
33.1887
1.80774
32.358
1.72529
31.5074
1.64255
30.6346
1.55958
29.737
1.47646
28.8124
1.39328
27.8597
1.3102
26.8794
1.22745
25.8764
1.14542
24.8616
1.06469
23.8536
0.986145
22.8782
0.910823
21.9649
0.839811
21.1403
0.773976
20.4233
0.713761
19.8222
0.659119
19.3352
0.609584
18.9534
0.564432
18.664
0.522842
18.4532
0.484015
18.3079
0.447248
18.2166
0.411948
18.1697
0.37764
18.1593
0.343948
18.1791
0.310578
18.2241
0.277302
18.2903
0.243947
18.3746
0.210375
18.4744
0.176482
18.5876
0.14219
18.7127
0.107436
18.8482
0.0721738
18.9933
0.0363702
19.1469
0
19.3083
-0.0369538
19.477
-0.0745019
19.6525
-0.112649
19.8344
-0.151398
20.0222
-0.190744
20.2159
-0.230681
20.4151
-0.271203
20.6196
-0.312296
20.8294
-0.353949
21.0442
-0.396147
21.264
-0.438872
21.4886
-0.482107
21.7181
-0.525834
21.9523
-0.570031
22.1912
-0.614677
22.4348
-0.65975
22.683
-0.705226
22.9359
-0.751082
23.1934
-0.797293
23.4554
-0.843833
23.7221
-0.890676
23.9933
-0.937797
24.2692
-0.985166
24.5496
-1.03276
24.8346
-1.08054
25.1242
-1.12849
25.4184
-1.17658
25.7171
-1.22477
26.0204
-1.27305
26.3283
-1.32137
26.6408
-1.3697
26.9579
-1.41803
27.2794
-1.46631
27.6058
-1.51451
27.9359
-1.56265
28.2732
-1.6105
28.6065
-1.65866
28.971
-1.70514
-1.75608
29.2582
36.2161
2.45198
-36.9357
35.4876
2.36619
34.7496
2.27975
34.0009
2.19273
33.24
2.10517
32.4653
2.01713
31.6751
1.92866
30.8672
1.83982
30.0396
1.75067
29.1901
1.66128
28.3166
1.57175
27.4174
1.48222
26.4926
1.39288
25.5446
1.30407
24.5807
1.21631
23.6148
1.13039
22.6675
1.0473
21.7647
0.968211
20.9326
0.894155
20.1928
0.825847
19.5581
0.763515
19.0318
0.706902
18.6091
0.655389
18.2798
0.608166
18.0318
0.564378
17.8525
0.523227
17.7304
0.484024
17.6555
0.446196
17.6197
0.409283
17.6161
0.372924
17.6394
0.336834
17.6853
0.300793
17.7503
0.26463
17.8316
0.228212
17.9272
0.191436
18.0351
0.154223
18.1539
0.116513
18.2826
0.0782604
18.42
0.0394308
18.5655
0
18.7184
-0.0400488
18.8782
-0.0807259
19.0444
-0.122036
19.2167
-0.16398
19.3947
-0.206554
19.5782
-0.249751
19.7671
-0.293562
19.961
-0.337975
20.16
-0.382976
20.3638
-0.428549
20.5724
-0.474675
20.7857
-0.521337
21.0037
-0.568514
21.2262
-0.616183
21.4533
-0.664321
21.6848
-0.712905
21.9209
-0.76191
22.1614
-0.811311
22.4063
-0.86108
22.6557
-0.91119
22.9095
-0.961614
23.1677
-1.01232
23.4303
-1.06329
23.6973
-1.11448
23.9688
-1.16587
24.2446
-1.21742
24.5249
-1.26911
24.8095
-1.3209
25.0986
-1.37277
25.3921
-1.42467
25.6899
-1.47659
25.9922
-1.52848
26.2987
-1.58031
26.6099
-1.63204
26.9246
-1.6837
27.2463
-1.73505
27.5642
-1.7867
27.9115
-1.83657
-1.8911
28.1862
34.6297
2.59936
-35.3271
33.9234
2.5077
33.2076
2.41536
32.481
2.32239
31.7421
2.22883
30.9894
2.13475
30.2211
2.04021
29.4354
1.94527
28.6301
1.85
27.8035
1.75449
26.9538
1.65888
26.0804
1.56334
25.1845
1.46816
24.2709
1.37379
23.3492
1.28093
22.4358
1.19051
21.5523
1.10368
20.7232
1.0216
19.9707
0.945215
19.3111
0.875026
18.7519
0.811031
18.2926
0.752782
17.9264
0.699536
17.6429
0.650425
17.4306
0.604584
17.2783
0.561231
17.1759
0.519698
17.115
0.479437
17.0885
0.44001
17.0905
0.401068
17.1165
0.36234
17.1628
0.323613
17.2263
0.284721
17.3048
0.245535
17.3962
0.205955
17.499
0.165905
17.6119
0.125323
17.734
0.0841656
17.8643
0.0423993
18.0021
0
18.1469
-0.0430484
18.2983
-0.0867557
18.4557
-0.131126
18.6189
-0.176159
18.7876
-0.221851
18.9616
-0.268194
19.1406
-0.315178
19.3246
-0.36279
19.5134
-0.411015
19.7068
-0.459836
19.9049
-0.509233
20.1075
-0.559186
20.3145
-0.609675
20.526
-0.660674
20.7418
-0.71216
20.9619
-0.764108
21.1864
-0.816491
21.4152
-0.869282
21.6483
-0.922452
21.8856
-0.975973
22.1272
-1.02982
22.373
-1.08395
22.6231
-1.13834
22.8774
-1.19296
23.136
-1.24778
23.3988
-1.30277
23.6658
-1.35788
23.9371
-1.4131
24.2126
-1.46837
24.4923
-1.52368
24.7763
-1.57899
25.0645
-1.63426
25.3567
-1.68946
25.6535
-1.74454
25.9536
-1.79953
26.2603
-1.85418
26.5636
-1.90913
26.8946
-1.96222
-2.02013
27.1575
33.1057
2.73607
-33.7815
32.4208
2.63883
31.7262
2.54084
31.0209
2.44218
30.3032
2.34289
29.5717
2.24304
28.8247
2.1427
28.0604
2.04194
27.277
1.94084
26.4729
1.83953
25.6472
1.73816
24.8002
1.63701
23.9349
1.53644
23.0581
1.43708
22.1819
1.33978
21.3243
1.24563
20.5067
1.15585
19.7509
1.07154
19.0751
0.993459
18.4902
0.921889
17.9996
0.856597
17.5999
0.796971
17.2831
0.74218
17.0392
0.691325
16.8576
0.643549
16.7285
0.598095
16.643
0.554324
16.5939
0.511716
16.5751
0.469855
16.5818
0.428409
16.6098
0.387119
16.6561
0.345782
16.718
0.304237
16.7935
0.26236
16.8809
0.220055
16.9788
0.177245
17.0861
0.133873
17.2019
0.0898951
17.3254
0.0452784
17.456
0
17.5932
-0.0459556
17.7366
-0.0925974
17.8857
-0.139929
18.0404
-0.18795
18.2003
-0.236654
18.3652
-0.286035
18.535
-0.336079
18.7096
-0.386774
18.8887
-0.438104
19.0724
-0.49005
19.2604
-0.542592
19.4529
-0.595709
19.6496
-0.649377
19.8505
-0.703571
20.0557
-0.758268
20.2651
-0.813438
20.4786
-0.869055
20.6963
-0.925089
20.9181
-0.981512
21.144
-1.03829
21.374
-1.0954
21.6081
-1.1528
21.8463
-1.21046
22.0885
-1.26835
22.3349
-1.32644
22.5853
-1.38469
22.8398
-1.44306
23.0984
-1.50153
23.361
-1.56005
23.6277
-1.61859
23.8984
-1.67712
24.1732
-1.7356
24.4519
-1.79399
24.7349
-1.85224
25.0211
-1.91038
25.3137
-1.96816
25.6031
-2.02623
25.9185
-2.08236
-2.14346
26.1702
31.6415
2.86252
-32.2967
30.9772
2.75993
30.3032
2.65656
29.6183
2.55246
28.9211
2.4477
28.2101
2.34234
27.4836
2.23646
26.7402
2.13015
25.9783
2.02352
25.1967
1.91671
24.3954
1.80996
23.576
1.70361
22.7432
1.59819
21.9061
1.49445
21.0787
1.39344
20.2795
1.29634
19.5286
1.20438
18.8448
1.11852
18.2414
1.0393
17.7253
0.966757
17.2962
0.900452
16.9491
0.839648
16.6755
0.783453
16.4658
0.730965
16.3106
0.681348
16.2012
0.633877
16.1302
0.587948
16.0911
0.54307
16.0788
0.498849
16.0892
0.454973
16.1187
0.411194
16.1647
0.367319
16.2248
0.323195
16.2974
0.278702
16.3809
0.233746
16.4741
0.188254
16.576
0.142171
16.6859
0.0954537
16.8029
0.0480708
16.9267
0
17.0567
-0.0487733
17.1925
-0.0982574
17.3339
-0.148455
17.4804
-0.199364
17.632
-0.25098
17.7884
-0.303293
17.9495
-0.35629
18.1151
-0.409958
18.2852
-0.464279
18.4596
-0.519233
18.6382
-0.574799
18.821
-0.630956
19.0079
-0.687678
19.199
-0.744939
19.3941
-0.802713
19.5932
-0.860972
19.7964
-0.919686
20.0035
-0.978825
20.2146
-1.03836
20.4297
-1.09825
20.6487
-1.15848
20.8716
-1.219
21.0985
-1.27978
21.3293
-1.34079
21.5641
-1.40199
21.8027
-1.46334
22.0453
-1.52482
22.2918
-1.58638
22.5422
-1.64798
22.7965
-1.70959
23.0546
-1.77118
23.3167
-1.8327
23.5825
-1.89411
23.8524
-1.95537
24.1255
-2.0165
24.4045
-2.07723
24.6807
-2.13825
24.9814
-2.19726
-2.26134
25.2223
30.235
2.97906
-30.8703
29.5905
2.87138
28.9363
2.76286
28.2711
2.65357
27.5936
2.54358
26.9024
2.43297
26.196
2.32181
25.4731
2.21023
24.7324
2.09835
23.9736
1.98639
23.1975
1.87465
22.4072
1.76358
21.6094
1.65388
20.8149
1.54646
20.0391
1.4425
19.2999
1.34325
18.6156
1.24982
18.001
1.16301
17.4653
1.08311
17.0116
1.0099
16.6373
0.942798
16.3363
0.880957
16.1001
0.823464
15.92
0.769427
15.7875
0.718044
15.695
0.668629
15.6362
0.620613
15.6055
0.573534
15.5987
0.527023
15.612
0.480785
15.6425
0.434587
15.688
0.388245
15.7463
0.341612
15.8159
0.294574
15.8956
0.247041
15.9843
0.198942
16.0812
0.150225
16.1854
0.100847
16.2964
0.0507793
16.4137
0
16.5368
-0.0515044
16.6656
-0.103741
16.7995
-0.156713
16.9385
-0.210416
17.0822
-0.264845
17.2306
-0.319989
17.3834
-0.375836
17.5406
-0.43237
17.702
-0.489572
17.8676
-0.547422
18.0373
-0.605899
18.211
-0.664977
18.3887
-0.724633
18.5704
-0.784838
18.7559
-0.845564
18.9454
-0.906783
19.1387
-0.968464
19.3358
-1.03057
19.5368
-1.09308
19.7416
-1.15595
19.9501
-1.21916
20.1625
-1.28265
20.3787
-1.34641
20.5986
-1.41039
20.8224
-1.47456
21.0498
-1.53887
21.2811
-1.6033
21.5161
-1.6678
21.7548
-1.73233
21.9973
-1.79686
22.2436
-1.86135
22.4935
-1.92575
22.7471
-1.99003
23.0046
-2.05414
23.2651
-2.11809
23.5313
-2.18163
23.7949
-2.24543
24.0816
-2.30717
-2.37406
24.3122
28.8839
3.08605
-29.5001
28.2585
2.9735
27.6233
2.86007
26.9772
2.74583
26.3188
2.63086
25.6468
2.51523
24.96
2.39907
24.2573
2.28249
23.538
2.16569
22.8025
2.04894
22.0527
1.93264
21.2935
1.8174
20.5333
1.70405
19.7843
1.5937
19.0622
1.48757
18.3839
1.38691
17.7646
1.29268
17.2154
1.20543
16.742
1.12519
16.3445
1.05156
16.0187
0.983797
15.7579
0.92102
15.5542
0.862302
15.3995
0.806781
15.2864
0.753694
15.2084
0.702396
15.1599
0.652355
15.1364
0.603139
15.134
0.554403
15.1497
0.50587
15.1808
0.457319
15.2255
0.408576
15.2819
0.359502
15.3487
0.309989
15.4247
0.25995
15.5091
0.209318
15.6011
0.158041
15.6999
0.10608
15.8052
0.0534063
15.9164
-1.08033e-07
16.0331
-0.0541515
16.1551
-0.109055
16.2821
-0.164711
16.4138
-0.221117
16.5502
-0.278265
16.6909
-0.336144
16.8359
-0.394741
16.9851
-0.454038
17.1384
-0.514016
17.2957
-0.574655
17.457
-0.635932
17.6221
-0.69782
17.791
-0.760294
17.9638
-0.823325
18.1403
-0.886885
18.3205
-0.950942
18.5045
-1.01546
18.6922
-1.08042
18.8835
-1.14577
19.0786
-1.21149
19.2773
-1.27754
19.4796
-1.34388
19.6856
-1.41048
19.8952
-1.47729
20.1085
-1.54428
20.3253
-1.61142
20.5458
-1.67865
20.7699
-1.74595
20.9976
-1.81327
21.2289
-1.88057
21.4638
-1.94781
21.7022
-2.01495
21.9442
-2.08195
22.1899
-2.14875
22.4385
-2.21538
22.6924
-2.28157
22.9441
-2.34801
23.2174
-2.41233
-2.48185
23.4382
27.5862
3.18383
-28.1839
26.9791
3.06663
26.3623
2.94852
25.7345
2.82955
25.0946
2.70983
24.4415
2.58945
23.774
2.46853
23.0914
2.34726
22.3938
2.22588
21.6825
2.10475
20.9607
1.98439
20.2348
1.86558
19.5148
1.7493
18.8137
1.63677
18.1467
1.52926
17.5288
1.42788
16.972
1.33339
16.484
1.2461
16.0672
1.1658
15.7198
1.0919
15.4366
1.02358
15.2108
0.959934
15.035
0.900044
14.9021
0.843087
14.8057
0.788346
14.74
0.735219
14.7004
0.683209
14.6828
0.631916
14.6841
0.581015
14.7016
0.530248
14.7331
0.479408
14.7768
0.428329
14.8312
0.376882
14.8952
0.324961
14.9677
0.272485
15.048
0.21939
15.1353
0.165626
15.2291
0.111157
15.3289
0.0559542
15.4343
0
15.545
-0.0567176
15.6606
-0.114204
15.781
-0.172459
15.906
-0.231479
16.0353
-0.291255
16.1688
-0.351776
16.3065
-0.413026
16.4482
-0.474989
16.5938
-0.537644
16.7432
-0.600969
16.8964
-0.664939
17.0534
-0.72953
17.2141
-0.794712
17.3784
-0.860458
17.5463
-0.926736
17.7179
-0.993515
17.893
-1.06076
18.0717
-1.12844
18.2539
-1.19652
18.4397
-1.26496
18.629
-1.33373
18.8218
-1.40278
19.0181
-1.47209
19.218
-1.54161
19.4213
-1.61129
19.6281
-1.68111
19.8383
-1.75102
20.0521
-1.82098
20.2693
-1.89095
20.4899
-1.96088
20.714
-2.03074
20.9415
-2.10047
21.1724
-2.17005
21.4068
-2.23941
21.6441
-2.30857
21.8864
-2.37727
22.1267
-2.44619
22.3873
-2.51296
-2.58496
22.5988
26.3396
3.27272
-26.9196
25.7503
3.15109
25.1513
3.02851
24.5413
2.90505
23.9195
2.78081
23.2848
2.65592
22.6364
2.53054
21.9743
2.4049
21.299
2.27931
20.6131
2.15426
19.9211
2.03041
19.231
1.90869
18.5536
1.79024
17.9022
1.67631
17.2907
1.56813
16.7317
1.46664
16.2341
1.37236
15.8023
1.28533
15.4365
1.20514
15.1334
1.13107
14.8874
1.06226
14.6919
0.997779
14.5403
0.93675
14.4262
0.878395
14.3439
0.822042
14.2888
0.767133
14.2566
0.713207
14.2441
0.659891
14.2484
0.606883
14.2673
0.553942
14.2988
0.500874
14.3414
0.447523
14.3938
0.393765
14.4551
0.339503
14.5242
0.284657
14.6005
0.229168
14.6835
0.172988
14.7725
0.116083
14.8671
0.0584257
14.967
0
15.072
-0.0592048
15.1816
-0.119193
15.2958
-0.179964
15.4143
-0.241513
15.537
-0.30383
15.6638
-0.366902
15.7944
-0.430715
15.929
-0.495249
16.0673
-0.560483
16.2093
-0.626395
16.355
-0.69296
16.5042
-0.760149
16.657
-0.827935
16.8133
-0.896288
16.9732
-0.965175
17.1364
-1.03456
17.3032
-1.10442
17.4734
-1.17471
17.647
-1.2454
17.824
-1.31644
18.0043
-1.38781
18.1881
-1.45946
18.3753
-1.53135
18.5658
-1.60345
18.7596
-1.6757
18.9569
-1.74808
19.1574
-1.82054
19.3613
-1.89303
19.5685
-1.96551
19.779
-2.03794
19.9929
-2.11028
20.21
-2.18249
20.4303
-2.25451
20.6541
-2.32629
20.8805
-2.39785
21.1119
-2.46893
21.3413
-2.5402
21.5899
-2.60928
-2.68361
21.7924
25.1424
3.35305
-25.7052
24.5703
3.2272
23.9884
3.10036
23.3959
2.97262
22.7917
2.84411
22.1752
2.71498
21.5461
2.58543
20.9048
2.45577
20.2529
2.32641
19.5939
2.19796
18.9339
2.07126
18.2818
1.94735
17.6491
1.82749
17.0484
1.71291
16.4919
1.60472
15.9893
1.50362
15.5468
1.4099
15.1661
1.32334
14.8458
1.24338
14.5817
1.1692
14.3681
1.09992
14.1988
1.03462
14.068
0.972474
13.97
0.912748
13.8999
0.85482
13.8537
0.798171
13.8279
0.742376
13.8196
0.687089
13.8263
0.632029
13.8461
0.576972
13.8774
0.521734
13.9189
0.466172
13.9693
0.410166
14.0279
0.353626
14.0938
0.296476
14.1664
0.23866
14.2451
0.180133
14.3295
0.120862
14.4193
0.0608229
14.5141
0
14.6135
-0.0616159
14.7175
-0.124028
14.8258
-0.187235
14.9383
-0.25123
15.0547
-0.316003
15.175
-0.381541
15.2992
-0.447827
15.4269
-0.514842
15.5584
-0.582564
15.6933
-0.650969
15.8318
-0.72003
15.9738
-0.78972
16.1191
-0.860009
16.2679
-0.930867
16.42
-1.00226
16.5755
-1.07415
16.7343
-1.14651
16.8964
-1.2193
17.0618
-1.29249
17.2304
-1.36603
17.4024
-1.43988
17.5775
-1.51401
17.756
-1.58837
17.9376
-1.66292
18.1225
-1.73763
18.3107
-1.81244
18.502
-1.88732
18.6965
-1.96223
18.8943
-2.0371
19.0952
-2.11191
19.2992
-2.18661
19.5064
-2.26115
19.7168
-2.33549
19.9304
-2.40957
20.1466
-2.48341
20.3674
-2.55673
20.5865
-2.63022
20.8236
-2.70149
-2.77801
21.0177
23.9927
3.42511
-24.539
23.4372
3.29524
22.872
3.16436
22.2965
3.03258
21.7098
2.90005
21.1116
2.76696
20.502
2.63358
19.8823
2.5003
19.2549
2.36766
18.6247
2.23641
17.9988
2.10753
17.3869
1.9822
16.8003
1.86168
16.2504
1.74715
15.7472
1.63949
15.298
1.5392
14.906
1.44628
14.5714
1.36032
14.2914
1.28064
14.0614
1.20638
13.8759
1.13662
13.7293
1.07051
13.6163
1.00726
13.5321
0.946186
13.4725
0.886713
13.4339
0.828364
13.4134
0.770744
13.4086
0.713535
13.4172
0.656475
13.4377
0.599356
13.4686
0.542007
13.5088
0.484291
13.5573
0.426099
13.6133
0.367343
13.676
0.307953
13.745
0.247875
13.8198
0.187067
13.8999
0.125499
13.9851
0.0631482
14.0749
0
14.1693
-0.0639533
14.2679
-0.128714
14.3707
-0.194279
14.4774
-0.260641
14.5879
-0.327789
14.7022
-0.39571
14.82
-0.464384
14.9414
-0.533793
15.0663
-0.603913
15.1947
-0.674719
15.3264
-0.746185
15.4614
-0.818281
15.5997
-0.890978
15.7413
-0.964242
15.8861
-1.03804
16.0342
-1.11234
16.1854
-1.1871
16.3399
-1.26229
16.4975
-1.33786
16.6582
-1.41378
16.8221
-1.49001
16.9891
-1.56651
17.1593
-1.64323
17.3326
-1.72014
17.509
-1.79718
17.6884
-1.87432
17.871
-1.95151
18.0566
-2.0287
18.2453
-2.10586
18.4371
-2.18293
18.6319
-2.25986
18.8297
-2.33662
19.0305
-2.41316
19.2344
-2.48942
19.4409
-2.56541
19.6517
-2.64085
19.861
-2.71645
20.0872
-2.78979
-2.86836
20.2732
22.8888
3.48921
-23.419
22.3494
3.35552
21.8006
3.22082
21.2417
3.08523
20.6724
2.94895
20.0927
2.81222
19.5032
2.67538
18.9061
2.53894
18.3049
2.40357
17.7054
2.27018
17.1157
2.13986
16.5456
2.01386
16.0056
1.89341
15.5057
1.77953
15.0536
1.67287
14.6538
1.57367
14.3079
1.4817
14.0144
1.39642
13.7698
1.31703
13.5695
1.24266
13.4083
1.17242
13.2813
1.1055
13.1836
1.04115
13.1112
0.978741
13.0605
0.917751
13.0285
0.857737
13.0125
0.798335
13.0105
0.73925
13.0207
0.680242
13.0416
0.621114
13.072
0.561708
13.1109
0.501897
13.1574
0.441576
13.2108
0.380665
13.2706
0.319096
13.3362
0.25682
13.4072
0.193797
13.4832
0.129998
13.564
0.0654038
13.6492
-1.07928e-07
13.7387
-0.0662191
13.8323
-0.133255
13.9298
-0.201103
14.0311
-0.269756
14.136
-0.339201
14.2445
-0.409423
14.3565
-0.480404
14.4719
-0.552123
14.5906
-0.624556
14.7127
-0.697678
14.8379
-0.771459
14.9664
-0.845872
15.098
-0.920883
15.2328
-0.996461
15.3707
-1.07257
15.5118
-1.14918
15.6559
-1.22624
15.803
-1.30372
15.9532
-1.38159
16.1065
-1.45979
16.2628
-1.5383
16.4221
-1.61706
16.5844
-1.69603
16.7497
-1.77518
16.9179
-1.85445
17.0892
-1.93381
17.2634
-2.01319
17.4406
-2.09257
17.6207
-2.17189
17.8038
-2.25111
17.9898
-2.33018
18.1786
-2.40905
18.3704
-2.48767
18.5651
-2.56599
18.7623
-2.64401
18.9636
-2.72148
19.1636
-2.79906
19.3794
-2.87436
-2.95486
19.5576
21.829
3.54564
-22.3436
21.3053
3.40835
20.7725
3.27005
20.2303
3.13091
19.6785
2.99117
19.1176
2.85115
18.5492
2.71129
17.9759
2.57221
17.4026
2.43474
16.8357
2.2999
16.2839
2.16891
15.7566
2.04298
15.2631
1.92324
14.8116
1.8105
14.4074
1.70518
14.0531
1.60727
13.7486
1.51634
13.4914
1.43174
13.2779
1.35262
13.1034
1.27811
12.9633
1.20737
12.853
1.13961
12.7686
1.07416
12.7063
1.01044
12.6633
0.947962
12.6367
0.886316
12.6246
0.825172
12.6249
0.764257
12.6363
0.703348
12.6574
0.642263
12.6871
0.580855
12.7247
0.519003
12.7692
0.456611
12.8202
0.393603
12.8771
0.329916
12.9395
0.265503
13.0069
0.200328
13.079
0.134364
13.1556
0.0675915
13.2365
0
13.3214
-0.0684158
13.4103
-0.137656
13.5028
-0.207715
13.5989
-0.278584
13.6986
-0.35025
13.8017
-0.422698