/*--------------------------------*- C++ -*----------------------------------*\
| =========                 |                                                 |
| \\      /  F ield         | OpenFOAM: The Open Source CFD Toolbox           |
|  \\    /   O peration     | Version:  2312                                  |
|   \\  /    A nd           | Website:  www.openfoam.com                      |
|    \\/     M anipulation  |                                                 |
\*---------------------------------------------------------------------------*/
FoamFile
{
    version     2.0;
    format      ascii;
    arch        "LSB;label=32;scalar=64";
    class       surfaceScalarField;
    location    "0.836";
    object      phi;
}
// * * * * * * * * * * * * * * * * * * * * * * * * * * * * * * * * * * * * * //

dimensions      [0 3 -1 0 0 0 0];

oriented        oriented;

internalField   nonuniform List<scalar> 
62015
(
86.9221
0.16953
-87.3477
86.4883
0.165553
86.0462
0.161508
85.5957
0.1574
85.1366
0.15323
84.6686
0.149001
84.1915
0.144719
83.705
0.140384
83.2087
0.136002
82.7024
0.131574
82.1855
0.127106
81.6577
0.1226
81.1184
0.118061
80.567
0.113491
80.0028
0.108895
79.4253
0.104277
78.8335
0.0996408
78.2266
0.0949904
77.6035
0.0903298
76.9632
0.0856637
76.3044
0.0809967
75.6256
0.0763327
74.9252
0.0716771
74.2012
0.0670346
73.4517
0.06241
72.6741
0.057809
71.8654
0.0532367
71.0224
0.0486994
70.1408
0.0442031
69.2159
0.0397541
68.2417
0.0353594
67.2107
0.0310271
66.1136
0.0267658
64.9376
0.0225841
63.6656
0.0184938
62.2758
0.0145065
60.7419
0.0106395
59.005
0.00691352
56.8897
0.00335264
54.0321
0
50.0721
-0.0030348
45.1601
-0.0055565
40.1618
-0.00743303
36.0647
-0.00879597
33.2787
-0.00995921
31.6256
-0.0111666
30.7339
-0.0125059
30.2975
-0.0139726
30.1253
-0.0155388
30.1092
-0.0171794
30.1901
-0.0188771
30.3345
-0.0206211
30.523
-0.0224048
30.7436
-0.0242236
30.9886
-0.0260743
31.2528
-0.0279547
31.5325
-0.0298627
31.8252
-0.0317968
32.1289
-0.0337555
32.442
-0.0357371
32.7633
-0.0377406
33.0919
-0.0397645
33.4271
-0.0418072
33.7682
-0.0438676
34.1148
-0.0459445
34.4663
-0.0480363
34.8225
-0.0501417
35.1831
-0.0522593
35.5477
-0.0543878
35.9162
-0.0565257
36.2884
-0.0586716
36.6641
-0.060824
37.0431
-0.062982
37.4258
-0.0651427
37.81
-0.0673086
38.2023
-0.0694663
38.5818
-0.0716513
39.0129
-0.0737471
-0.0761126
39.2974
84.0416
0.332863
-84.4588
83.6168
0.325033
83.1845
0.317073
82.7445
0.308989
82.2966
0.300787
81.8406
0.292474
81.3762
0.284054
80.9032
0.275537
80.4212
0.266926
79.93
0.258229
79.429
0.249454
78.9179
0.240607
78.3961
0.231696
77.8632
0.222726
77.3185
0.213707
76.7613
0.204645
76.1909
0.195549
75.6064
0.186425
75.0069
0.177284
74.3914
0.168132
73.7586
0.158979
73.1071
0.149833
72.4355
0.140703
71.742
0.131599
71.0246
0.122531
70.281
0.113509
69.5085
0.104544
68.7039
0.0956466
67.8634
0.0868286
66.9826
0.0781036
66.056
0.0694842
65.0766
0.0609857
64.036
0.0526241
62.9227
0.0444182
61.7209
0.0363878
60.4108
0.0285574
58.9683
0.0209577
57.3464
0.0136286
55.404
0.00661741
52.8244
0
49.234
-0.00603133
44.652
-0.011109
39.7952
-0.0149294
35.6431
-0.0176682
32.7162
-0.0199237
30.9303
-0.0222234
29.9426
-0.0247819
29.4415
-0.0276063
29.224
-0.03064
29.1735
-0.0338289
29.2257
-0.0371351
29.3445
-0.0405349
29.5092
-0.0440131
29.707
-0.04756
29.9297
-0.0511687
30.1721
-0.0548345
30.4301
-0.0585535
30.7013
-0.0623221
30.9835
-0.0661374
31.2751
-0.0699967
31.575
-0.073897
31.8822
-0.0778359
32.196
-0.0818108
32.5157
-0.0858189
32.8408
-0.0898576
33.1708
-0.0939244
33.5055
-0.0980168
33.8445
-0.102132
34.1875
-0.106267
34.5343
-0.110419
34.8848
-0.114586
35.2388
-0.118765
35.5959
-0.122954
35.9567
-0.127147
36.3191
-0.131349
36.6892
-0.135535
37.0474
-0.139772
37.4538
-0.143839
-0.148413
37.7254
81.2369
0.490114
-81.6458
80.8212
0.478554
80.3986
0.466806
79.9689
0.45488
79.532
0.442783
79.0877
0.430524
78.6357
0.418113
78.1758
0.40556
77.7076
0.392873
77.2309
0.380062
76.7451
0.367138
76.25
0.354111
75.745
0.34099
75.2297
0.327787
74.7034
0.314512
74.1655
0.301176
73.6153
0.287791
73.052
0.274369
72.4747
0.26092
71.8824
0.247458
71.2739
0.233994
70.6481
0.220542
70.0034
0.207115
69.3382
0.193727
68.6507
0.180392
67.9386
0.167124
67.1995
0.153939
66.4304
0.140854
65.6278
0.127886
64.7875
0.115053
63.9043
0.102374
62.972
0.089872
61.9826
0.0775691
60.9257
0.0654924
59.7869
0.0536707
58.5477
0.0421394
57.186
0.0309419
55.6621
0.0201346
53.8602
0.00978592
51.5043
0
48.2279
-0.00896759
43.9612
-0.0166027
39.2872
-0.0224141
35.1451
-0.0265533
32.1296
-0.0298587
30.2414
-0.0331598
29.1739
-0.0368342
28.6168
-0.0409178
28.359
-0.0453284
28.2774
-0.0499806
28.3035
-0.0548129
28.3989
-0.0597863
28.5415
-0.064876
28.7181
-0.0700665
28.9201
-0.075347
29.1419
-0.0807099
29.3797
-0.086149
29.6306
-0.0916592
29.8926
-0.0972363
30.164
-0.102875
30.4438
-0.108573
30.7308
-0.114326
31.0244
-0.120129
31.3238
-0.125979
31.6286
-0.131872
31.9384
-0.137805
32.2527
-0.143773
32.5713
-0.149773
32.8939
-0.155801
33.2202
-0.161852
33.5502
-0.167924
33.8836
-0.174011
34.2201
-0.180111
34.5602
-0.186216
34.9019
-0.192333
35.2509
-0.198426
35.5892
-0.204589
35.972
-0.210512
-0.217148
36.2304
78.5148
0.641442
-78.915
78.1082
0.626276
77.6954
0.610868
77.2762
0.59523
76.8504
0.579373
76.4177
0.563308
75.978
0.547048
75.531
0.530605
75.0764
0.51399
74.6138
0.497217
74.1429
0.480298
73.6634
0.463247
73.1746
0.446077
72.6763
0.428801
72.1678
0.411434
71.6485
0.39399
71.1177
0.376483
70.5746
0.358929
70.0185
0.341342
69.4484
0.323739
68.8632
0.306136
68.2617
0.288549
67.6425
0.270995
67.0042
0.253493
66.3449
0.23606
65.6626
0.218716
64.955
0.20148
64.2192
0.184374
63.452
0.16742
62.6495
0.150642
61.8069
0.134064
60.9184
0.117714
59.9765
0.101623
58.9716
0.0858246
57.8907
0.0703557
56.7164
0.0552613
55.4283
0.0405964
53.9919
0.0264331
52.3103
0.0128581
50.1428
0
47.1392
-0.011837
43.1682
-0.0220166
38.6952
-0.0298572
34.6025
-0.0354292
31.5331
-0.0397588
29.564
-0.0439833
28.428
-0.0486778
27.821
-0.0539268
27.5269
-0.0596278
27.417
-0.0656621
27.419
-0.0719421
27.4928
-0.0784112
27.6151
-0.0850344
27.772
-0.091789
27.9547
-0.0986602
28.1574
-0.105637
28.3762
-0.112711
28.6081
-0.119876
28.8511
-0.127125
29.1037
-0.134453
29.3644
-0.141854
29.6325
-0.149325
29.907
-0.156859
30.1874
-0.164452
30.4731
-0.172099
30.7637
-0.179795
31.0588
-0.187534
31.3582
-0.195313
31.6614
-0.203126
31.9685
-0.210968
32.279
-0.218834
32.5929
-0.226719
32.91
-0.234618
33.2305
-0.242523
33.5526
-0.25044
33.8817
-0.258326
34.201
-0.266297
34.5618
-0.273964
-0.28253
34.8069
75.8767
0.787021
-76.2679
75.4797
0.768371
75.077
0.749429
74.6683
0.73021
74.2537
0.710727
73.8327
0.690993
73.4053
0.671024
72.9711
0.650833
72.5299
0.630437
72.0813
0.60985
71.6251
0.589088
71.1608
0.568166
70.6881
0.547101
70.2064
0.52591
69.7152
0.50461
69.2139
0.483218
68.7019
0.461751
68.1785
0.440228
67.6429
0.418667
67.0942
0.397088
66.5314
0.375509
65.9533
0.353952
65.3587
0.332437
64.7461
0.310985
64.1138
0.289619
63.46
0.268361
62.7824
0.247236
62.0784
0.22627
61.345
0.205489
60.5784
0.184921
59.7743
0.164598
58.9271
0.144553
58.0301
0.12482
57.0744
0.105443
56.0478
0.0864649
54.9343
0.0679399
53.7149
0.049934
52.3593
0.0325316
50.7858
0.0158371
48.7853
0
46.0284
-0.0146396
42.339
-0.027348
38.0762
-0.0372571
34.055
-0.0443049
30.9504
-0.0496448
28.9104
-0.0547215
27.7102
-0.0603404
27.0554
-0.06666
26.7264
-0.0735644
26.5895
-0.0809004
26.5689
-0.0885514
26.6223
-0.0964414
26.7255
-0.104523
26.8639
-0.112766
27.0285
-0.12115
27.2132
-0.129662
27.4141
-0.13829
27.6283
-0.147026
27.8535
-0.155863
28.0882
-0.164793
28.3311
-0.17381
28.5812
-0.182908
28.8378
-0.192081
29.1002
-0.201323
29.3679
-0.210628
29.6404
-0.21999
29.9174
-0.229403
30.1986
-0.238861
30.4837
-0.248358
30.7724
-0.257887
31.0646
-0.267444
31.3602
-0.277021
31.6588
-0.286614
31.9607
-0.296211
32.2644
-0.30582
32.5747
-0.315391
32.8759
-0.32506
33.2161
-0.334368
-0.344738
33.4482
73.3222
0.927023
-73.7041
72.9349
0.905011
72.5424
0.882662
72.1446
0.859991
71.7411
0.837013
71.332
0.813745
70.9168
0.790204
70.4954
0.766407
70.0676
0.742372
69.633
0.718116
69.1912
0.693657
68.742
0.669015
68.2849
0.644207
67.8195
0.619254
67.3452
0.594175
66.8616
0.56899
66.368
0.54372
65.8637
0.518386
65.348
0.49301
64.8201
0.467613
64.2789
0.442219
63.7234
0.416851
63.1525
0.391533
62.5647
0.366291
61.9584
0.341149
61.332
0.316135
60.6832
0.291277
60.0097
0.266605
59.3086
0.24215
58.5764
0.217944
57.809
0.194023
57.0014
0.170426
56.1471
0.147194
55.238
0.124375
54.2629
0.102021
53.2071
0.0801932
52.0525
0.0589664
50.7726
0.0384377
49.2986
0.0187265
47.4495
0
44.9198
-0.0173768
41.501
-0.0325963
37.4548
-0.0446147
33.5213
-0.053193
30.3939
-0.0595439
28.2876
-0.0654079
27.0239
-0.0718552
26.3212
-0.0791481
25.9574
-0.0871669
25.7938
-0.0957238
25.7512
-0.10467
25.7852
-0.113908
25.8701
-0.123376
25.9911
-0.133034
26.1385
-0.142857
26.3064
-0.152828
26.4904
-0.162934
26.6878
-0.173162
26.8962
-0.183506
27.1141
-0.193956
27.3401
-0.204504
27.5734
-0.215144
27.8131
-0.225869
28.0585
-0.236671
28.3092
-0.247544
28.5646
-0.25848
28.8245
-0.269473
29.0885
-0.280515
29.3564
-0.291601
29.6279
-0.302721
29.9027
-0.313871
30.1809
-0.325041
30.462
-0.336227
30.7465
-0.347415
31.0327
-0.358616
31.3251
-0.369769
31.6093
-0.381032
31.9299
-0.39188
-0.403936
32.1495
70.8495
1.06162
-71.2219
70.4722
1.03637
70.0901
1.01073
69.7031
0.984737
69.311
0.958395
68.9136
0.931726
68.5108
0.904748
68.1022
0.877483
67.6876
0.849948
67.2667
0.822165
66.8392
0.794154
66.4049
0.765936
65.9632
0.737533
65.5137
0.708966
65.0561
0.680258
64.5897
0.651432
64.1139
0.622511
63.6283
0.593519
63.1319
0.56448
62.6241
0.53542
62.104
0.506364
61.5704
0.477339
61.0223
0.448372
60.4585
0.419492
59.8773
0.390728
59.2772
0.36211
58.6562
0.333669
58.0119
0.30544
57.3418
0.277457
56.6426
0.249757
55.9104
0.222381
55.1405
0.195372
54.327
0.168777
53.4623
0.142648
52.5363
0.117046
51.5352
0.0920369
50.4422
0.0677057
49.2337
0.0441586
47.8517
0.0215295
46.1411
0
43.8218
-0.0200489
40.6633
-0.0377588
36.8386
-0.0519277
33.0071
-0.0621014
29.8676
-0.0694812
27.6985
-0.0760769
26.3706
-0.0832573
25.6187
-0.0914234
25.2194
-0.100465
25.0292
-0.110162
24.965
-0.120329
24.98
-0.130843
25.0475
-0.141626
25.1518
-0.152629
25.283
-0.163821
25.4349
-0.175179
25.603
-0.186688
25.7845
-0.198335
25.9771
-0.210109
26.1791
-0.222
26.3892
-0.234001
26.6066
-0.246102
26.8303
-0.258295
27.0597
-0.270574
27.2943
-0.282928
27.5336
-0.295352
27.7774
-0.307837
28.0252
-0.320375
28.2767
-0.332958
28.5319
-0.345577
28.7904
-0.358227
29.0521
-0.370897
29.3168
-0.383581
29.5847
-0.396266
29.8543
-0.408961
30.1299
-0.421601
30.3978
-0.434359
30.7001
-0.446654
-0.460285
30.9078
68.4567
1.19098
-68.8194
68.0895
1.1626
67.7179
1.13381
67.3419
1.10461
66.9611
1.07503
66.5755
1.04509
66.1849
1.01481
65.7889
0.984211
65.3875
0.953314
64.9802
0.922142
64.5668
0.890718
64.147
0.859067
63.7204
0.827211
63.2867
0.795175
62.8452
0.762983
62.3956
0.730663
61.9374
0.698238
61.4698
0.665735
60.9923
0.633182
60.504
0.600607
60.0042
0.568039
59.4918
0.535506
58.9659
0.503039
58.4251
0.470669
57.8681
0.438428
57.2934
0.406351
56.699
0.374473
56.0829
0.34283
55.4426
0.31146
54.7749
0.280407
54.0764
0.249713
53.3426
0.219425
52.5681
0.189597
51.7459
0.160286
50.8665
0.131558
49.9174
0.103486
48.883
0.0761614
47.7419
0.0497004
46.4454
0.0242483
44.8614
0
42.7365
-0.0226558
39.8275
-0.0428316
36.2281
-0.059189
32.5123
-0.071033
29.372
-0.0794766
27.1436
-0.0867616
25.7507
-0.0945829
24.9479
-0.103519
24.512
-0.11349
24.2947
-0.124243
24.209
-0.135556
24.2056
-0.147275
24.2564
-0.159306
24.3448
-0.171587
24.4605
-0.184079
24.5972
-0.196756
24.7503
-0.209599
24.9168
-0.222592
25.0944
-0.235724
25.2814
-0.248983
25.4765
-0.26236
25.6788
-0.275845
25.8874
-0.28943
26.1017
-0.303104
26.3212
-0.31686
26.5453
-0.330689
26.7737
-0.344582
27.0062
-0.358531
27.2424
-0.372526
27.4821
-0.386559
27.7251
-0.400621
27.9713
-0.414702
28.2204
-0.428796
28.4726
-0.442887
28.7265
-0.456987
28.9862
-0.471022
29.2388
-0.485182
29.5236
-0.498836
-0.513935
29.7201
66.1416
1.31526
-66.4945
65.7846
1.28389
65.4237
1.25205
65.0586
1.21978
64.6892
1.18709
64.3153
1.154
63.9368
1.12054
63.5534
1.08674
63.1649
1.05261
62.771
1.01819
62.3715
0.983487
61.966
0.948539
61.5542
0.913369
61.1357
0.878004
60.7101
0.842471
60.277
0.806797
59.8357
0.77101
59.3857
0.735141
58.9264
0.699218
58.4571
0.663272
57.977
0.627334
57.4851
0.591436
56.9805
0.555612
56.462
0.519894
55.9284
0.48432
55.3781
0.448925
54.8094
0.413748
54.2203
0.378829
53.6085
0.34421
52.9712
0.309936
52.3049
0.276055
51.6057
0.242619
50.8684
0.209683
50.0866
0.177312
49.2517
0.145575
48.3521
0.114553
47.3732
0.0843435
46.2958
0.0550694
45.0788
0.0268862
43.6106
0
41.6648
-0.0251981
38.9935
-0.0478105
35.6213
-0.066389
32.0345
-0.0799846
28.9057
-0.0895462
26.6226
-0.0974937
25.164
-0.105868
24.3083
-0.11547
23.8344
-0.126273
23.5896
-0.137998
23.4825
-0.150381
23.461
-0.163237
23.4955
-0.176448
23.5686
-0.189941
23.6697
-0.203669
23.7919
-0.217599
23.9308
-0.231709
24.0831
-0.245981
24.2465
-0.260402
24.4193
-0.274959
24.6003
-0.289641
24.7884
-0.304437
24.9828
-0.319338
25.1828
-0.334334
25.3879
-0.349415
25.5976
-0.364571
25.8116
-0.379794
26.0296
-0.395074
26.2513
-0.4104
26.4764
-0.425764
26.7048
-0.441156
26.9362
-0.456565
27.1706
-0.471985
27.408
-0.487398
27.6471
-0.502815
27.8917
-0.518161
28.1298
-0.533634
28.3981
-0.548565
-0.565032
28.5839
63.9023
1.43464
-64.2453
63.5555
1.40038
63.2051
1.36562
62.8509
1.33038
62.4928
1.2947
62.1306
1.2586
61.7641
1.22209
61.3931
1.18521
61.0173
1.14798
60.6367
1.11044
60.2507
1.07259
59.8593
1.03448
59.462
0.996134
59.0585
0.957575
58.6483
0.918836
58.2311
0.879947
57.8064
0.840937
57.3735
0.801839
56.9319
0.762684
56.4809
0.723506
56.0199
0.684337
55.5478
0.645213
55.0638
0.606169
54.5669
0.567242
54.0557
0.52847
53.5289
0.489893
52.9849
0.451551
52.4217
0.413489
51.8373
0.375751
51.229
0.338386
50.5936
0.301445
49.9275
0.264983
49.2257
0.229062
48.4825
0.193748
47.6899
0.159116
46.8373
0.125253
45.9111
0.0922612
44.8939
0.0602705
43.7509
0.029445
42.3886
0
40.6069
-0.0276755
38.1606
-0.0526906
35.0155
-0.0735171
31.5705
-0.088949
28.4665
-0.0997018
26.1345
-0.108303
24.61
-0.11715
23.6995
-0.127312
23.1862
-0.138847
22.913
-0.151456
22.7842
-0.164833
22.7449
-0.178756
22.7636
-0.193084
22.8221
-0.207726
22.9092
-0.222626
23.0177
-0.237746
23.1431
-0.253059
23.2819
-0.268547
23.432
-0.284191
23.5914
-0.299978
23.759
-0.315897
23.9336
-0.331936
24.1146
-0.348084
24.3011
-0.364329
24.4926
-0.380663
24.6888
-0.397074
24.8892
-0.413552
25.0934
-0.430087
25.3014
-0.446669
25.5127
-0.463287
25.7272
-0.47993
25.9448
-0.496589
26.1652
-0.513255
26.3886
-0.529909
26.6137
-0.546564
26.8441
-0.56314
27.0685
-0.579844
27.3212
-0.595972
-0.613715
27.4969
61.7365
1.54927
-62.0696
61.4
1.51223
61.0602
1.47466
60.7168
1.43659
60.3699
1.39804
60.0192
1.35903
59.6645
1.3196
59.3057
1.27977
58.9426
1.23957
58.5748
1.19902
58.2022
1.15816
57.8245
1.11702
57.4414
1.07563
57.0524
1.034
56.6574
0.992193
56.2557
0.95022
55.8469
0.908121
55.4307
0.865928
55.0062
0.823675
54.5731
0.781398
54.1304
0.739132
53.6775
0.696915
53.2134
0.654785
52.7372
0.612781
52.2476
0.570942
51.7434
0.529313
51.2231
0.487937
50.6849
0.446859
50.1267
0.406128
49.5462
0.365796
48.9404
0.325917
48.3058
0.286549
47.6381
0.247759
46.9316
0.209615
46.1793
0.172197
45.3713
0.135598
44.4951
0.0999232
43.5348
0.0653096
42.4609
0.0319276
41.1954
0
39.5636
-0.030089
37.3286
-0.0574685
34.4087
-0.0805609
31.1171
-0.0979159
28.0521
-0.10995
25.6782
-0.11922
24.0883
-0.128468
23.1212
-0.139084
22.5666
-0.151246
22.2641
-0.164649
22.1134
-0.178942
22.0564
-0.193863
22.0598
-0.209242
22.1041
-0.224972
22.1778
-0.240984
22.2733
-0.257234
22.3858
-0.273691
22.5119
-0.290331
22.6493
-0.307136
22.7961
-0.324092
22.951
-0.341183
23.113
-0.358399
23.2812
-0.375727
23.4549
-0.393155
23.6337
-0.410673
23.817
-0.428269
24.0045
-0.445932
24.1959
-0.463651
24.3908
-0.481416
24.5892
-0.499215
24.7906
-0.517038
24.9951
-0.534872
25.2023
-0.552708
25.4124
-0.570529
25.6243
-0.588345
25.8412
-0.606074
26.0526
-0.623932
26.2905
-0.641185
-0.660114
26.4566
59.6424
1.6593
-59.9656
59.316
1.6196
58.9866
1.57934
58.6541
1.53854
58.3182
1.49723
57.9788
1.45545
57.6358
1.41321
57.289
1.37055
56.9382
1.32749
56.5832
1.28408
56.2236
1.24033
55.8593
1.19628
55.49
1.15196
55.1153
1.10741
54.7348
1.06265
54.3482
1.01772
53.9551
0.972662
53.5549
0.927503
53.1471
0.882282
52.7311
0.837036
52.3062
0.791802
51.8718
0.746621
51.4269
0.701533
50.9706
0.656578
50.5019
0.611801
50.0194
0.567245
49.5219
0.522958
49.0076
0.478988
48.4746
0.435386
47.9208
0.392206
47.3433
0.349505
46.7388
0.307347
46.1035
0.265798
45.4321
0.224933
44.718
0.184835
43.9524
0.145599
43.1237
0.107338
42.2172
0.0701913
41.2078
0.0343358
40.0307
0
38.5353
-0.0324388
36.4976
-0.0621404
33.799
-0.0875091
30.671
-0.106871
27.6598
-0.120295
25.2527
-0.130269
23.5987
-0.139862
22.573
-0.150827
21.9752
-0.163507
21.6423
-0.177608
21.4692
-0.192737
21.3945
-0.208587
21.3828
-0.224954
21.4135
-0.241711
21.4743
-0.258777
21.5573
-0.276099
21.6577
-0.29364
21.7718
-0.311375
21.8971
-0.329282
22.032
-0.347345
22.175
-0.365549
22.3249
-0.38388
22.4811
-0.402325
22.6428
-0.420872
22.8095
-0.439509
22.9807
-0.458225
23.1561
-0.477006
23.3352
-0.495843
23.5179
-0.514723
23.7039
-0.533635
23.893
-0.552567
24.085
-0.571506
24.2798
-0.590443
24.4774
-0.609359
24.6767
-0.628265
24.8809
-0.647075
25.08
-0.666012
25.304
-0.68432
-0.704353
25.461
57.6177
1.7649
-57.931
57.3014
1.72264
56.9824
1.67979
56.6605
1.63638
56.3355
1.59244
56.0073
1.54798
55.6758
1.50306
55.3408
1.45768
55.0021
1.4119
54.6595
1.36573
54.3127
1.31921
53.9615
1.27237
53.6056
1.22526
53.2447
1.17789
52.8785
1.13031
52.5066
1.08256
52.1285
1.03466
51.7439
0.986659
51.3522
0.938593
50.9528
0.890503
50.5452
0.842426
50.1285
0.794404
49.7021
0.746481
49.2651
0.6987
48.8164
0.651105
48.3548
0.603744
47.8791
0.556666
47.3878
0.509921
46.879
0.463564
46.3506
0.417651
45.8001
0.372243
45.2245
0.327403
44.6201
0.283204
43.9821
0.239722
43.3045
0.197044
42.5791
0.155269
41.7954
0.114514
40.9398
0.0749211
39.9907
0.036672
38.8946
0
37.5229
-0.0347259
35.6681
-0.0667043
33.1848
-0.0943498
30.229
-0.115797
27.2868
-0.130731
24.8564
-0.141473
23.1405
-0.151372
22.0548
-0.162583
21.4117
-0.175669
21.0468
-0.190369
20.8508
-0.206249
20.7583
-0.222956
20.7317
-0.240248
20.7491
-0.257973
20.7975
-0.276036
20.8688
-0.294373
20.9575
-0.312944
21.0602
-0.331717
21.1742
-0.35067
21.2977
-0.369784
21.4294
-0.389042
21.5681
-0.408429
21.7129
-0.427932
21.8632
-0.447538
22.0185
-0.467233
22.1782
-0.487006
22.3421
-0.506844
22.5097
-0.526735
22.6808
-0.546666
22.8552
-0.566625
23.0326
-0.586601
23.2129
-0.606579
23.3958
-0.62655
23.5816
-0.646494
23.7691
-0.666422
23.9612
-0.686247
24.1487
-0.706194
24.3595
-0.725491
-0.74655
24.5079
55.6605
1.86621
-55.9641
55.3542
1.8215
55.0454
1.77618
54.734
1.73026
54.4198
1.68379
54.1026
1.63678
53.7824
1.58927
53.4589
1.5413
53.132
1.4929
52.8015
1.44409
52.4672
1.39492
52.1287
1.34542
51.7859
1.29562
51.4385
1.24556
51.0861
1.19528
50.7284
1.14482
50.365
1.0942
49.9954
1.04348
49.6193
0.992695
49.236
0.941879
48.8449
0.891079
48.4455
0.840337
48.0369
0.789698
47.6184
0.739208
47.1889
0.688913
46.7475
0.638863
46.2928
0.589109
45.8234
0.539704
45.3378
0.490705
44.8338
0.442169
44.3092
0.39416
43.7611
0.346746
43.1862
0.299999
42.58
0.254001
41.9371
0.20884
41.2499
0.16462
40.5088
0.121459
39.7014
0.0795036
38.8088
0.0389384
37.7869
0
36.5271
-0.0369515
34.8408
-0.0711581
32.5652
-0.101071
29.7882
-0.124675
26.93
-0.141251
24.4879
-0.152852
22.7134
-0.163039
21.5662
-0.174399
20.8756
-0.187773
20.4773
-0.202966
20.2575
-0.219512
20.147
-0.237002
20.1056
-0.255154
20.1101
-0.273789
20.1466
-0.292792
20.2064
-0.312092
20.2841
-0.331638
20.376
-0.351396
20.4792
-0.371341
20.5921
-0.391451
20.713
-0.411708
20.841
-0.432096
20.9751
-0.4526
21.1147
-0.473207
21.2592
-0.493903
21.4081
-0.514675
21.5611
-0.53551
21.7178
-0.556395
21.8779
-0.577316
22.0413
-0.598262
22.2077
-0.619219
22.3769
-0.640174
22.5487
-0.661117
22.7233
-0.682026
22.8996
-0.702913
23.0803
-0.723688
23.2569
-0.744581
23.4552
-0.764805
-0.786816
23.5954
53.7688
1.96338
-54.0627
53.4724
1.91633
53.1737
1.86863
52.8726
1.82032
52.5689
1.77142
52.2625
1.72197
51.9533
1.67199
51.6412
1.62153
51.3258
1.57062
51.0072
1.51929
50.6849
1.46758
50.3589
1.41553
50.0289
1.36317
49.6945
1.31053
49.3555
1.25766
49.0116
1.2046
48.6624
1.15139
48.3074
1.09806
47.9463
1.04467
47.5785
0.991244
47.2035
0.937836
46.8206
0.884489
46.4292
0.831248
46.0285
0.778163
45.6175
0.725281
45.1954
0.672655
44.7608
0.620335
44.3126
0.56838
43.8491
0.516845
43.3684
0.465793
42.8686
0.415288
42.3468
0.365401
41.8
0.316206
41.2242
0.267788
40.6142
0.220238
39.9633
0.173662
39.2626
0.128181
38.5007
0.0839435
37.661
0.0411371
36.7073
0
35.5487
-0.0391165
34.0165
-0.075501
31.9393
-0.107664
29.3457
-0.133483
26.5863
-0.151839
24.1451
-0.164418
22.3167
-0.174901
21.1073
-0.186324
20.3669
-0.199867
19.9333
-0.215441
19.6887
-0.232557
19.5597
-0.250754
19.5036
-0.269701
19.4954
-0.289187
19.5203
-0.309077
19.5693
-0.329285
19.6364
-0.349755
19.7179
-0.370448
19.811
-0.391333
19.9137
-0.412387
20.0245
-0.433591
20.1424
-0.454927
20.2664
-0.476379
20.3958
-0.497933
20.5301
-0.519575
20.6688
-0.541291
20.8115
-0.563066
20.958
-0.584888
21.1078
-0.606743
21.2607
-0.628618
21.4167
-0.650499
21.5754
-0.672372
21.7367
-0.694227
21.9007
-0.716042
22.0665
-0.737827
22.2364
-0.759493
22.4026
-0.78127
22.5891
-0.802363
-0.825258
22.7216
51.9406
2.05656
-52.225
51.6539
2.00726
51.3651
1.95729
51.0742
1.90668
50.7808
1.85547
50.4851
1.80367
50.1867
1.75134
49.8855
1.6985
49.5815
1.64519
49.2743
1.59145
48.9639
1.53731
48.65
1.48281
48.3323
1.42799
48.0106
1.37289
47.6847
1.31755
47.3541
1.26201
47.0186
1.2063
46.6777
1.15049
46.3311
1.09459
45.9783
1.03867
45.6187
0.982768
45.2518
0.926926
44.877
0.871195
44.4934
0.815624
44.1002
0.760264
43.6966
0.705168
43.2814
0.650391
42.8533
0.595989
42.411
0.542023
41.9528
0.488556
41.4766
0.435656
40.9799
0.383393
40.4599
0.331847
39.913
0.281101
39.3343
0.231252
38.7179
0.182406
38.0554
0.134687
37.3365
0.0882455
36.5466
0.04327
35.6556
0
34.5883
-0.0412222
33.1964
-0.0797324
31.307
-0.114118
28.8988
-0.142199
26.2521
-0.162474
23.8259
-0.176177
21.9498
-0.186996
20.6779
-0.198409
19.8854
-0.211998
19.4145
-0.227834
19.1438
-0.245422
18.9959
-0.264244
18.9249
-0.283919
18.9041
-0.304197
18.9178
-0.324919
18.9563
-0.345985
19.0134
-0.367329
19.0851
-0.388906
19.1685
-0.410682
19.2615
-0.432631
19.3628
-0.454732
19.4711
-0.476966
19.5855
-0.499316
19.7053
-0.521766
19.83
-0.544302
19.9591
-0.566909
20.0921
-0.589572
20.2288
-0.612278
20.3688
-0.635012
20.512
-0.657762
20.6581
-0.680511
20.8069
-0.703248
20.9583
-0.725959
21.1123
-0.748623
21.268
-0.77125
21.4277
-0.79375
21.5841
-0.816353
21.7595
-0.838261
-0.861975
21.8847
50.174
2.14589
-50.449
49.8969
2.09444
49.6179
2.0423
49.3368
1.98949
49.0536
1.93606
48.7682
1.88203
48.4803
1.82743
48.19
1.77232
47.8969
1.71672
47.601
1.66066
47.3021
1.6042
46.9999
1.54737
46.6942
1.4902
46.3848
1.43274
46.0715
1.37503
45.7539
1.31711
45.4316
1.25903
45.1044
1.20083
44.7718
1.14255
44.4334
1.08424
44.0888
1.02594
43.7372
0.967714
43.3783
0.909599
43.0111
0.851648
42.6351
0.793914
42.2492
0.736452
41.8526
0.679319
41.4439
0.622572
41.0219
0.566275
40.5851
0.510491
40.1314
0.455291
39.6588
0.400748
39.1644
0.346941
38.6449
0.293957
38.096
0.241895
37.5122
0.190862
36.886
0.140984
36.2078
0.0924139
35.4645
0.0453393
34.6314
0
33.6466
-0.0432701
32.3817
-0.083853
30.6682
-0.120426
28.4453
-0.1508
25.924
-0.173129
23.5277
-0.188124
21.6117
-0.199355
20.2779
-0.210704
19.431
-0.224221
18.9206
-0.240193
18.6224
-0.258145
18.4548
-0.277507
18.3687
-0.297839
18.3354
-0.318848
18.3381
-0.340349
18.3665
-0.362222
18.414
-0.384392
18.4763
-0.406805
18.5505
-0.429425
18.6344
-0.452222
18.7266
-0.475172
18.8259
-0.498256
18.9312
-0.521455
19.042
-0.544753
19.1576
-0.568134
19.2775
-0.591582
19.4014
-0.615083
19.5289
-0.638623
19.6597
-0.662186
19.7936
-0.685758
19.9303
-0.709325
20.0698
-0.732872
20.2118
-0.756387
20.3563
-0.779847
20.5026
-0.803264
20.6527
-0.826544
20.7998
-0.84992
20.9646
-0.872591
-0.897063
21.0829
48.4671
2.2315
-48.7329
48.1993
2.178
47.9299
2.12378
47.6586
2.06888
47.3853
2.01332
47.11
1.95715
46.8324
1.9004
46.5525
1.84311
46.2702
1.78531
45.9852
1.72705
45.6974
1.66837
45.4066
1.6093
45.1126
1.54989
44.8152
1.49017
44.514
1.4302
44.2089
1.37002
43.8995
1.30966
43.5855
1.24917
43.2664
1.18861
42.942
1.12801
42.6116
1.06743
42.2749
1.00692
41.9312
0.946517
41.5799
0.886288
41.2203
0.826281
40.8515
0.766552
40.4726
0.707161
40.0825
0.648168
39.68
0.589635
39.2636
0.531629
38.8315
0.474221
38.3818
0.417487
37.9118
0.361508
37.4185
0.306373
36.8979
0.252179
36.3451
0.199039
35.7531
0.14708
35.1133
0.0964527
34.414
0.0473465
33.6344
0
32.7241
-0.0452614
31.5735
-0.0878635
30.0234
-0.126582
27.9832
-0.159264
25.5984
-0.183772
23.2475
-0.200249
21.301
-0.212005
19.9071
-0.223265
19.0039
-0.236592
18.4515
-0.252567
18.1241
-0.270768
17.9359
-0.290577
17.8343
-0.311492
17.7886
-0.333171
17.7805
-0.355395
17.799
-0.378025
17.8372
-0.400973
17.8906
-0.424177
17.9561
-0.447595
18.0314
-0.471195
18.115
-0.494949
18.2056
-0.518838
18.3024
-0.542841
18.4046
-0.56694
18.5116
-0.591119
18.6229
-0.615362
18.7382
-0.639654
18.857
-0.663979
18.979
-0.688322
19.1042
-0.712669
19.2321
-0.737004
19.3628
-0.761313
19.4959
-0.785582
19.6315
-0.80979
19.7688
-0.833945
19.9098
-0.857956
20.0481
-0.882053
20.203
-0.905438
-0.930612
20.3147
46.818
2.31353
-47.0748
46.5595
2.25807
46.2994
2.20187
46.0376
2.14496
45.774
2.08737
45.5085
2.02916
45.241
1.97035
44.9713
1.91097
44.6994
1.85109
44.425
1.79072
44.1481
1.72991
43.8684
1.66871
43.5857
1.60715
43.2997
1.54528
43.0104
1.48315
42.7174
1.42079
42.4204
1.35826
42.119
1.29559
41.813
1.23284
41.502
1.17006
41.1855
1.10729
40.863
1.04459
40.534
0.982007
40.198
0.919596
39.8541
0.857413
39.5017
0.795514
39.1398
0.73396
38.7676
0.672813
38.3837
0.612136
37.9868
0.551999
37.5753
0.492472
37.1474
0.433635
36.7006
0.375568
36.2322
0.318363
35.7386
0.262119
35.2151
0.206949
34.6557
0.15298
34.0522
0.100366
33.3942
0.0492936
32.6642
0
31.8213
-0.0471975
30.7732
-0.0917658
29.3734
-0.132582
27.511
-0.167569
25.2717
-0.194366
22.9822
-0.212527
21.0164
-0.224964
19.5653
-0.236141
18.6042
-0.249174
18.0072
-0.265013
17.6487
-0.283337
17.4387
-0.303493
17.3212
-0.324911
17.2629
-0.347195
17.2441
-0.370087
17.2531
-0.393425
17.2823
-0.417104
17.3271
-0.441054
17.3842
-0.465226
17.4513
-0.489584
17.5268
-0.514101
17.6093
-0.53875
17.698
-0.563513
17.7921
-0.58837
17.891
-0.613303
17.9941
-0.638297
18.1012
-0.663334
18.2118
-0.6884
18.3256
-0.713478
18.4425
-0.738554
18.5621
-0.763611
18.6844
-0.788635
18.8091
-0.813612
18.9363
-0.83852
19.0652
-0.863367
19.1975
-0.888062
19.3276
-0.912832
19.4731
-0.936885
-0.962707
19.5786
45.225
2.39211
-45.4729
44.9754
2.33478
44.7245
2.27668
44.472
2.21786
44.2178
2.15834
43.9619
2.09817
43.7042
2.03739
43.4445
1.97603
43.1827
1.91414
42.9186
1.85176
42.6522
1.78893
42.3832
1.72569
42.1114
1.66208
41.8367
1.59816
41.5588
1.53395
41.2774
1.46952
40.9923
1.40491
40.7033
1.34016
40.4099
1.27532
40.1118
1.21045
39.8086
1.14559
39.4998
1.0808
39.185
1.01612
38.8635
0.951625
38.5348
0.887358
38.1981
0.823381
37.8526
0.759755
37.4973
0.696543
37.1312
0.633811
36.753
0.571629
36.3613
0.510069
35.9542
0.449212
35.5296
0.389139
35.0849
0.329943
34.6168
0.271726
34.1212
0.214599
33.5925
0.158693
33.0233
0.104158
32.4042
0.0511825
31.7202
0
30.9384
-0.0490801
29.982
-0.0955614
28.7195
-0.138424
27.0278
-0.175699
24.9406
-0.204873
22.728
-0.224927
20.7558
-0.238239
19.2521
-0.249381
18.2319
-0.262031
17.5877
-0.277592
17.1959
-0.295904
16.9629
-0.316297
16.8288
-0.338133
16.7577
-0.360953
16.7282
-0.384456
16.7278
-0.40845
16.7484
-0.432813
16.7849
-0.457465
16.8341
-0.482349
16.8933
-0.507425
16.961
-0.532661
17.0359
-0.558031
17.1169
-0.583512
17.2033
-0.609084
17.2945
-0.634731
17.39
-0.660432
17.4893
-0.686173
17.5922
-0.711937
17.6982
-0.737707
17.8073
-0.763468
17.9191
-0.789205
18.0334
-0.8149
18.1502
-0.840541
18.2694
-0.866105
18.3903
-0.891599
18.5145
-0.916934
18.6367
-0.942332
18.7733
-0.96701
-0.99343
18.8729
43.6862
2.46737
-43.9255
43.4454
2.40825
43.2034
2.34834
42.9599
2.28769
42.715
2.22633
42.4684
2.1643
42.2202
2.10164
41.9701
2.03839
41.7182
1.97459
41.4641
1.91029
41.2079
1.84552
40.9492
1.78033
40.6881
1.71477
40.4242
1.64888
40.1573
1.5827
39.8872
1.51629
39.6137
1.44969
39.3365
1.38295
39.0552
1.31611
38.7696
1.24924
38.4792
1.18238
38.1836
1.11559
37.8823
1.04892
37.5749
0.982421
37.2607
0.91616
36.939
0.850193
36.6092
0.784582
36.2702
0.719393
35.9212
0.65469
35.5609
0.590547
35.1879
0.527037
34.8007
0.464238
34.3972
0.402239
33.9751
0.341129
33.5313
0.281011
33.0621
0.221999
32.5624
0.164222
32.0256
0.107833
31.4431
0.0530149
30.8021
0
30.0757
-0.0509104
29.2012
-0.0992532
28.0628
-0.144106
26.5331
-0.183636
24.602
-0.215253
22.4812
-0.237406
20.5167
-0.251824
18.9667
-0.263028
17.8872
-0.27523
17.1933
-0.29037
16.7658
-0.308525
16.5082
-0.329033
16.3566
-0.351193
16.2723
-0.374477
16.2321
-0.39853
16.2224
-0.42313
16.2346
-0.448132
16.2632
-0.473442
16.3047
-0.498997
16.3565
-0.524749
16.4169
-0.550665
16.4844
-0.576715
16.5582
-0.602875
16.6373
-0.629124
16.7213
-0.655443
16.8094
-0.681813
16.9015
-0.708217
16.997
-0.734639
17.0957
-0.76106
17.1973
-0.787466
17.3017
-0.81384
17.4086
-0.840166
17.5179
-0.866429
17.6295
-0.892608
17.7429
-0.918707
17.8595
-0.94464
17.9742
-0.970624
18.1025
-0.995887
-1.02286
18.1965
42.1999
2.53942
-42.4307
41.9677
2.4786
41.7344
2.41697
41.4997
2.35458
41.2637
2.29146
41.0263
2.22765
40.7873
2.1632
40.5466
2.09814
40.3042
2.03252
40.0598
1.96638
39.8134
1.89977
39.5649
1.83273
39.3139
1.7653
39.0605
1.69753
38.8043
1.62947
38.5451
1.56116
38.2827
1.49266
38.0169
1.42402
37.7473
1.35528
37.4737
1.2865
37.1956
1.21773