/*--------------------------------*- C++ -*----------------------------------*\
| =========                 |                                                 |
| \\      /  F ield         | OpenFOAM: The Open Source CFD Toolbox           |
|  \\    /   O peration     | Version:  2312                                  |
|   \\  /    A nd           | Website:  www.openfoam.com                      |
|    \\/     M anipulation  |                                                 |
\*---------------------------------------------------------------------------*/
FoamFile
{
    version     2.0;
    format      ascii;
    arch        "LSB;label=32;scalar=64";
    class       volVectorField;
    location    "0.963";
    object      U;
}
// * * * * * * * * * * * * * * * * * * * * * * * * * * * * * * * * * * * * * //

dimensions      [0 1 -1 0 0 0 0];

internalField   nonuniform List<vector> 
31205
(
(268.525 0 0)
(266.9 0 0)
(265.221 0 0)
(263.486 0 0)
(261.692 0 0)
(259.838 0 0)
(257.921 0 0)
(255.937 0 0)
(253.884 0 0)
(251.758 0 0)
(249.555 0 0)
(247.271 0 0)
(244.901 0 0)
(242.439 0 0)
(239.879 0 0)
(237.214 0 0)
(234.437 0 0)
(231.537 0 0)
(228.503 0 0)
(225.323 0 0)
(221.982 0 0)
(218.461 0 0)
(214.738 0 0)
(210.784 0 0)
(206.566 0 0)
(202.037 0 0)
(197.138 0 0)
(191.788 0 0)
(185.865 0 0)
(179.167 0 0)
(171.374 0 0)
(162.161 0 0)
(151.55 0 0)
(140.268 0 0)
(129.602 0 0)
(120.71 0 0)
(114.072 0 0)
(109.527 0 0)
(106.62 0 0)
(104.882 0 0)
(103.948 0 0)
(103.563 0 0)
(103.558 0 0)
(103.82 0 0)
(104.275 0 0)
(104.874 0 0)
(105.582 0 0)
(106.375 0 0)
(107.233 0 0)
(108.145 0 0)
(109.099 0 0)
(110.089 0 0)
(111.107 0 0)
(112.149 0 0)
(113.21 0 0)
(114.289 0 0)
(115.381 0 0)
(116.485 0 0)
(117.599 0 0)
(118.72 0 0)
(119.849 0 0)
(120.983 0 0)
(122.122 0 0)
(123.264 0 0)
(124.409 0 0)
(125.557 0 0)
(126.706 0 0)
(127.856 0 0)
(129.008 0 0)
(130.159 0 0)
(131.31 0 0)
(132.461 0 0)
(133.612 0 0)
(134.76 0 0)
(135.913 0 0)
(137.046 0 0)
(138.232 0 0)
(139.25 0 0)
(140.78 0 0)
(266.797 0 0)
(265.166 0 0)
(263.483 0 0)
(261.745 0 0)
(259.95 0 0)
(258.095 0 0)
(256.178 0 0)
(254.196 0 0)
(252.146 0 0)
(250.024 0 0)
(247.827 0 0)
(245.55 0 0)
(243.188 0 0)
(240.736 0 0)
(238.187 0 0)
(235.535 0 0)
(232.771 0 0)
(229.885 0 0)
(226.868 0 0)
(223.706 0 0)
(220.384 0 0)
(216.883 0 0)
(213.182 0 0)
(209.252 0 0)
(205.058 0 0)
(200.553 0 0)
(195.679 0 0)
(190.353 0 0)
(184.45 0 0)
(177.765 0 0)
(169.983 0 0)
(160.811 0 0)
(150.32 0 0)
(139.263 0 0)
(128.887 0 0)
(120.271 0 0)
(113.837 0 0)
(109.416 0 0)
(106.567 0 0)
(104.845 0 0)
(103.902 0 0)
(103.493 0 0)
(103.456 0 0)
(103.681 0 0)
(104.098 0 0)
(104.657 0 0)
(105.324 0 0)
(106.075 0 0)
(106.892 0 0)
(107.763 0 0)
(108.676 0 0)
(109.625 0 0)
(110.603 0 0)
(111.605 0 0)
(112.627 0 0)
(113.666 0 0)
(114.719 0 0)
(115.785 0 0)
(116.86 0 0)
(117.944 0 0)
(119.035 0 0)
(120.132 0 0)
(121.234 0 0)
(122.339 0 0)
(123.448 0 0)
(124.56 0 0)
(125.674 0 0)
(126.789 0 0)
(127.905 0 0)
(129.021 0 0)
(130.138 0 0)
(131.254 0 0)
(132.371 0 0)
(133.485 0 0)
(134.604 0 0)
(135.705 0 0)
(136.857 0 0)
(137.846 0 0)
(139.328 0 0)
(264.974 0 0)
(263.338 0 0)
(261.649 0 0)
(259.907 0 0)
(258.109 0 0)
(256.253 0 0)
(254.335 0 0)
(252.353 0 0)
(250.305 0 0)
(248.186 0 0)
(245.992 0 0)
(243.719 0 0)
(241.363 0 0)
(238.917 0 0)
(236.376 0 0)
(233.732 0 0)
(230.977 0 0)
(228.103 0 0)
(225.097 0 0)
(221.947 0 0)
(218.637 0 0)
(215.15 0 0)
(211.462 0 0)
(207.545 0 0)
(203.363 0 0)
(198.87 0 0)
(194.005 0 0)
(188.682 0 0)
(182.773 0 0)
(176.063 0 0)
(168.248 0 0)
(159.075 0 0)
(148.688 0 0)
(137.88 0 0)
(127.856 0 0)
(119.593 0 0)
(113.44 0 0)
(109.202 0 0)
(106.456 0 0)
(104.781 0 0)
(103.849 0 0)
(103.431 0 0)
(103.372 0 0)
(103.568 0 0)
(103.951 0 0)
(104.474 0 0)
(105.103 0 0)
(105.816 0 0)
(106.594 0 0)
(107.425 0 0)
(108.3 0 0)
(109.209 0 0)
(110.148 0 0)
(111.111 0 0)
(112.095 0 0)
(113.096 0 0)
(114.111 0 0)
(115.139 0 0)
(116.177 0 0)
(117.224 0 0)
(118.278 0 0)
(119.339 0 0)
(120.405 0 0)
(121.475 0 0)
(122.548 0 0)
(123.625 0 0)
(124.703 0 0)
(125.784 0 0)
(126.865 0 0)
(127.948 0 0)
(129.031 0 0)
(130.113 0 0)
(131.197 0 0)
(132.278 0 0)
(133.364 0 0)
(134.432 0 0)
(135.549 0 0)
(136.513 0 0)
(137.945 0 0)
(263.109 0 0)
(261.466 0 0)
(259.773 0 0)
(258.027 0 0)
(256.226 0 0)
(254.367 0 0)
(252.449 0 0)
(250.467 0 0)
(248.419 0 0)
(246.302 0 0)
(244.111 0 0)
(241.841 0 0)
(239.489 0 0)
(237.049 0 0)
(234.513 0 0)
(231.876 0 0)
(229.129 0 0)
(226.262 0 0)
(223.265 0 0)
(220.123 0 0)
(216.823 0 0)
(213.344 0 0)
(209.665 0 0)
(205.755 0 0)
(201.579 0 0)
(197.088 0 0)
(192.22 0 0)
(186.887 0 0)
(180.953 0 0)
(174.195 0 0)
(166.319 0 0)
(157.126 0 0)
(146.84 0 0)
(136.301 0 0)
(126.661 0 0)
(118.79 0 0)
(112.952 0 0)
(108.927 0 0)
(106.306 0 0)
(104.695 0 0)
(103.788 0 0)
(103.371 0 0)
(103.297 0 0)
(103.469 0 0)
(103.823 0 0)
(104.314 0 0)
(104.909 0 0)
(105.585 0 0)
(106.327 0 0)
(107.121 0 0)
(107.958 0 0)
(108.83 0 0)
(109.731 0 0)
(110.657 0 0)
(111.604 0 0)
(112.568 0 0)
(113.547 0 0)
(114.538 0 0)
(115.54 0 0)
(116.551 0 0)
(117.569 0 0)
(118.594 0 0)
(119.625 0 0)
(120.66 0 0)
(121.699 0 0)
(122.741 0 0)
(123.786 0 0)
(124.832 0 0)
(125.88 0 0)
(126.929 0 0)
(127.979 0 0)
(129.029 0 0)
(130.079 0 0)
(131.128 0 0)
(132.181 0 0)
(133.218 0 0)
(134.302 0 0)
(135.238 0 0)
(136.625 0 0)
(261.223 0 0)
(259.575 0 0)
(257.878 0 0)
(256.129 0 0)
(254.326 0 0)
(252.466 0 0)
(250.547 0 0)
(248.565 0 0)
(246.518 0 0)
(244.403 0 0)
(242.214 0 0)
(239.948 0 0)
(237.6 0 0)
(235.164 0 0)
(232.635 0 0)
(230.003 0 0)
(227.263 0 0)
(224.403 0 0)
(221.413 0 0)
(218.279 0 0)
(214.985 0 0)
(211.514 0 0)
(207.84 0 0)
(203.934 0 0)
(199.76 0 0)
(195.267 0 0)
(190.391 0 0)
(185.04 0 0)
(179.069 0 0)
(172.25 0 0)
(164.305 0 0)
(155.093 0 0)
(144.923 0 0)
(134.672 0 0)
(125.432 0 0)
(117.96 0 0)
(112.441 0 0)
(108.633 0 0)
(106.143 0 0)
(104.601 0 0)
(103.724 0 0)
(103.31 0 0)
(103.225 0 0)
(103.378 0 0)
(103.705 0 0)
(104.166 0 0)
(104.728 0 0)
(105.37 0 0)
(106.077 0 0)
(106.836 0 0)
(107.637 0 0)
(108.473 0 0)
(109.338 0 0)
(110.228 0 0)
(111.139 0 0)
(112.067 0 0)
(113.01 0 0)
(113.966 0 0)
(114.933 0 0)
(115.909 0 0)
(116.893 0 0)
(117.883 0 0)
(118.88 0 0)
(119.881 0 0)
(120.886 0 0)
(121.895 0 0)
(122.906 0 0)
(123.919 0 0)
(124.934 0 0)
(125.951 0 0)
(126.968 0 0)
(127.986 0 0)
(129.004 0 0)
(130.021 0 0)
(131.043 0 0)
(132.049 0 0)
(133.1 0 0)
(134.01 0 0)
(135.354 0 0)
(259.327 0 0)
(257.676 0 0)
(255.976 0 0)
(254.224 0 0)
(252.419 0 0)
(250.559 0 0)
(248.64 0 0)
(246.659 0 0)
(244.614 0 0)
(242.501 0 0)
(240.315 0 0)
(238.053 0 0)
(235.709 0 0)
(233.278 0 0)
(230.754 0 0)
(228.129 0 0)
(225.394 0 0)
(222.541 0 0)
(219.558 0 0)
(216.431 0 0)
(213.144 0 0)
(209.677 0 0)
(206.008 0 0)
(202.105 0 0)
(197.93 0 0)
(193.432 0 0)
(188.544 0 0)
(183.17 0 0)
(177.154 0 0)
(170.268 0 0)
(162.253 0 0)
(153.035 0 0)
(143.004 0 0)
(133.06 0 0)
(124.224 0 0)
(117.147 0 0)
(111.939 0 0)
(108.342 0 0)
(105.98 0 0)
(104.506 0 0)
(103.659 0 0)
(103.251 0 0)
(103.157 0 0)
(103.29 0 0)
(103.594 0 0)
(104.025 0 0)
(104.557 0 0)
(105.167 0 0)
(105.84 0 0)
(106.564 0 0)
(107.331 0 0)
(108.132 0 0)
(108.962 0 0)
(109.817 0 0)
(110.693 0 0)
(111.587 0 0)
(112.495 0 0)
(113.417 0 0)
(114.349 0 0)
(115.291 0 0)
(116.242 0 0)
(117.199 0 0)
(118.162 0 0)
(119.13 0 0)
(120.102 0 0)
(121.078 0 0)
(122.056 0 0)
(123.037 0 0)
(124.021 0 0)
(125.005 0 0)
(125.991 0 0)
(126.977 0 0)
(127.964 0 0)
(128.95 0 0)
(129.941 0 0)
(130.917 0 0)
(131.936 0 0)
(132.819 0 0)
(134.122 0 0)
(257.426 0 0)
(255.771 0 0)
(254.069 0 0)
(252.316 0 0)
(250.511 0 0)
(248.651 0 0)
(246.732 0 0)
(244.753 0 0)
(242.71 0 0)
(240.6 0 0)
(238.418 0 0)
(236.16 0 0)
(233.821 0 0)
(231.395 0 0)
(228.877 0 0)
(226.257 0 0)
(223.529 0 0)
(220.683 0 0)
(217.706 0 0)
(214.585 0 0)
(211.304 0 0)
(207.842 0 0)
(204.176 0 0)
(200.274 0 0)
(196.097 0 0)
(191.592 0 0)
(186.689 0 0)
(181.286 0 0)
(175.22 0 0)
(168.262 0 0)
(160.183 0 0)
(150.977 0 0)
(141.11 0 0)
(131.49 0 0)
(123.06 0 0)
(116.367 0 0)
(111.457 0 0)
(108.062 0 0)
(105.821 0 0)
(104.414 0 0)
(103.596 0 0)
(103.194 0 0)
(103.092 0 0)
(103.208 0 0)
(103.488 0 0)
(103.892 0 0)
(104.394 0 0)
(104.973 0 0)
(105.614 0 0)
(106.305 0 0)
(107.038 0 0)
(107.805 0 0)
(108.602 0 0)
(109.423 0 0)
(110.265 0 0)
(111.125 0 0)
(112 0 0)
(112.888 0 0)
(113.787 0 0)
(114.696 0 0)
(115.613 0 0)
(116.538 0 0)
(117.468 0 0)
(118.404 0 0)
(119.344 0 0)
(120.288 0 0)
(121.235 0 0)
(122.184 0 0)
(123.136 0 0)
(124.089 0 0)
(125.044 0 0)
(126 0 0)
(126.956 0 0)
(127.912 0 0)
(128.872 0 0)
(129.818 0 0)
(130.807 0 0)
(131.663 0 0)
(132.926 0 0)
(255.52 0 0)
(253.864 0 0)
(252.16 0 0)
(250.407 0 0)
(248.602 0 0)
(246.743 0 0)
(244.826 0 0)
(242.849 0 0)
(240.809 0 0)
(238.702 0 0)
(236.524 0 0)
(234.27 0 0)
(231.936 0 0)
(229.516 0 0)
(227.003 0 0)
(224.39 0 0)
(221.669 0 0)
(218.828 0 0)
(215.858 0 0)
(212.743 0 0)
(209.467 0 0)
(206.01 0 0)
(202.346 0 0)
(198.444 0 0)
(194.262 0 0)
(189.748 0 0)
(184.826 0 0)
(179.39 0 0)
(173.269 0 0)
(166.237 0 0)
(158.102 0 0)
(148.93 0 0)
(139.253 0 0)
(129.971 0 0)
(121.945 0 0)
(115.624 0 0)
(110.999 0 0)
(107.795 0 0)
(105.67 0 0)
(104.326 0 0)
(103.536 0 0)
(103.14 0 0)
(103.03 0 0)
(103.13 0 0)
(103.387 0 0)
(103.766 0 0)
(104.239 0 0)
(104.788 0 0)
(105.397 0 0)
(106.056 0 0)
(106.757 0 0)
(107.492 0 0)
(108.256 0 0)
(109.044 0 0)
(109.853 0 0)
(110.68 0 0)
(111.522 0 0)
(112.378 0 0)
(113.245 0 0)
(114.121 0 0)
(115.006 0 0)
(115.899 0 0)
(116.798 0 0)
(117.702 0 0)
(118.61 0 0)
(119.523 0 0)
(120.439 0 0)
(121.358 0 0)
(122.279 0 0)
(123.202 0 0)
(124.127 0 0)
(125.052 0 0)
(125.979 0 0)
(126.905 0 0)
(127.836 0 0)
(128.753 0 0)
(129.711 0 0)
(130.542 0 0)
(131.765 0 0)
(253.611 0 0)
(251.954 0 0)
(250.25 0 0)
(248.498 0 0)
(246.694 0 0)
(244.836 0 0)
(242.921 0 0)
(240.947 0 0)
(238.91 0 0)
(236.807 0 0)
(234.633 0 0)
(232.385 0 0)
(230.056 0 0)
(227.642 0 0)
(225.135 0 0)
(222.528 0 0)
(219.813 0 0)
(216.979 0 0)
(214.014 0 0)
(210.904 0 0)
(207.633 0 0)
(204.179 0 0)
(200.516 0 0)
(196.613 0 0)
(192.425 0 0)
(187.899 0 0)
(182.955 0 0)
(177.48 0 0)
(171.299 0 0)
(164.194 0 0)
(156.013 0 0)
(146.899 0 0)
(137.436 0 0)
(128.506 0 0)
(120.881 0 0)
(114.918 0 0)
(110.564 0 0)
(107.541 0 0)
(105.526 0 0)
(104.242 0 0)
(103.479 0 0)
(103.09 0 0)
(102.972 0 0)
(103.056 0 0)
(103.292 0 0)
(103.646 0 0)
(104.092 0 0)
(104.611 0 0)
(105.191 0 0)
(105.819 0 0)
(106.488 0 0)
(107.191 0 0)
(107.923 0 0)
(108.68 0 0)
(109.457 0 0)
(110.252 0 0)
(111.063 0 0)
(111.886 0 0)
(112.722 0 0)
(113.567 0 0)
(114.421 0 0)
(115.282 0 0)
(116.15 0 0)
(117.023 0 0)
(117.901 0 0)
(118.784 0 0)
(119.67 0 0)
(120.558 0 0)
(121.45 0 0)
(122.343 0 0)
(123.238 0 0)
(124.134 0 0)
(125.032 0 0)
(125.929 0 0)
(126.83 0 0)
(127.719 0 0)
(128.648 0 0)
(129.454 0 0)
(130.639 0 0)
(251.699 0 0)
(250.043 0 0)
(248.34 0 0)
(246.588 0 0)
(244.786 0 0)
(242.93 0 0)
(241.018 0 0)
(239.047 0 0)
(237.015 0 0)
(234.916 0 0)
(232.747 0 0)
(230.503 0 0)
(228.18 0 0)
(225.771 0 0)
(223.271 0 0)
(220.67 0 0)
(217.961 0 0)
(215.133 0 0)
(212.173 0 0)
(209.069 0 0)
(205.801 0 0)
(202.35 0 0)
(198.687 0 0)
(194.78 0 0)
(190.585 0 0)
(186.043 0 0)
(181.074 0 0)
(175.555 0 0)
(169.31 0 0)
(162.133 0 0)
(153.921 0 0)
(144.89 0 0)
(135.666 0 0)
(127.097 0 0)
(119.866 0 0)
(114.248 0 0)
(110.152 0 0)
(107.3 0 0)
(105.389 0 0)
(104.162 0 0)
(103.425 0 0)
(103.042 0 0)
(102.918 0 0)
(102.987 0 0)
(103.203 0 0)
(103.532 0 0)
(103.952 0 0)
(104.444 0 0)
(104.994 0 0)
(105.592 0 0)
(106.231 0 0)
(106.904 0 0)
(107.605 0 0)
(108.33 0 0)
(109.076 0 0)
(109.84 0 0)
(110.62 0 0)
(111.413 0 0)
(112.217 0 0)
(113.032 0 0)
(113.855 0 0)
(114.687 0 0)
(115.524 0 0)
(116.368 0 0)
(117.216 0 0)
(118.069 0 0)
(118.925 0 0)
(119.785 0 0)
(120.647 0 0)
(121.511 0 0)
(122.377 0 0)
(123.245 0 0)
(124.114 0 0)
(124.983 0 0)
(125.856 0 0)
(126.717 0 0)
(127.616 0 0)
(128.398 0 0)
(129.545 0 0)
(249.787 0 0)
(248.131 0 0)
(246.429 0 0)
(244.679 0 0)
(242.879 0 0)
(241.026 0 0)
(239.118 0 0)
(237.151 0 0)
(235.122 0 0)
(233.028 0 0)
(230.864 0 0)
(228.626 0 0)
(226.308 0 0)
(223.905 0 0)
(221.411 0 0)
(218.816 0 0)
(216.113 0 0)
(213.29 0 0)
(210.336 0 0)
(207.236 0 0)
(203.972 0 0)
(200.521 0 0)
(196.858 0 0)
(192.945 0 0)
(188.74 0 0)
(184.18 0 0)
(179.181 0 0)
(173.613 0 0)
(167.3 0 0)
(160.054 0 0)
(151.829 0 0)
(142.906 0 0)
(133.944 0 0)
(125.744 0 0)
(118.9 0 0)
(113.613 0 0)
(109.761 0 0)
(107.072 0 0)
(105.259 0 0)
(104.086 0 0)
(103.375 0 0)
(102.998 0 0)
(102.867 0 0)
(102.922 0 0)
(103.119 0 0)
(103.425 0 0)
(103.819 0 0)
(104.284 0 0)
(104.806 0 0)
(105.376 0 0)
(105.985 0 0)
(106.628 0 0)
(107.299 0 0)
(107.994 0 0)
(108.71 0 0)
(109.444 0 0)
(110.194 0 0)
(110.957 0 0)
(111.732 0 0)
(112.516 0 0)
(113.31 0 0)
(114.112 0 0)
(114.92 0 0)
(115.734 0 0)
(116.554 0 0)
(117.378 0 0)
(118.205 0 0)
(119.036 0 0)
(119.87 0 0)
(120.706 0 0)
(121.544 0 0)
(122.383 0 0)
(123.225 0 0)
(124.066 0 0)
(124.911 0 0)
(125.745 0 0)
(126.616 0 0)
(127.374 0 0)
(128.485 0 0)
(247.873 0 0)
(246.218 0 0)
(244.519 0 0)
(242.771 0 0)
(240.974 0 0)
(239.124 0 0)
(237.22 0 0)
(235.257 0 0)
(233.233 0 0)
(231.143 0 0)
(228.985 0 0)
(226.752 0 0)
(224.44 0 0)
(222.044 0 0)
(219.555 0 0)
(216.966 0 0)
(214.268 0 0)
(211.451 0 0)
(208.502 0 0)
(205.405 0 0)
(202.143 0 0)
(198.693 0 0)
(195.026 0 0)
(191.107 0 0)
(186.889 0 0)
(182.308 0 0)
(177.274 0 0)
(171.653 0 0)
(165.268 0 0)
(157.962 0 0)
(149.742 0 0)
(140.955 0 0)
(132.274 0 0)
(124.448 0 0)
(117.982 0 0)
(113.012 0 0)
(109.391 0 0)
(106.855 0 0)
(105.136 0 0)
(104.014 0 0)
(103.327 0 0)
(102.956 0 0)
(102.82 0 0)
(102.862 0 0)
(103.039 0 0)
(103.324 0 0)
(103.694 0 0)
(104.132 0 0)
(104.627 0 0)
(105.169 0 0)
(105.75 0 0)
(106.364 0 0)
(107.006 0 0)
(107.672 0 0)
(108.359 0 0)
(109.064 0 0)
(109.784 0 0)
(110.518 0 0)
(111.264 0 0)
(112.02 0 0)
(112.785 0 0)
(113.557 0 0)
(114.337 0 0)
(115.123 0 0)
(115.914 0 0)
(116.71 0 0)
(117.509 0 0)
(118.312 0 0)
(119.118 0 0)
(119.927 0 0)
(120.737 0 0)
(121.549 0 0)
(122.363 0 0)
(123.177 0 0)
(123.996 0 0)
(124.804 0 0)
(125.647 0 0)
(126.381 0 0)
(127.456 0 0)
(245.96 0 0)
(244.307 0 0)
(242.61 0 0)
(240.865 0 0)
(239.071 0 0)
(237.225 0 0)
(235.325 0 0)
(233.367 0 0)
(231.347 0 0)
(229.263 0 0)
(227.11 0 0)
(224.883 0 0)
(222.577 0 0)
(220.186 0 0)
(217.703 0 0)
(215.12 0 0)
(212.427 0 0)
(209.615 0 0)
(206.67 0 0)
(203.576 0 0)
(200.315 0 0)
(196.864 0 0)
(193.193 0 0)
(189.265 0 0)
(185.031 0 0)
(180.425 0 0)
(175.351 0 0)
(169.671 0 0)
(163.216 0 0)
(155.857 0 0)
(147.665 0 0)
(139.04 0 0)
(130.659 0 0)
(123.209 0 0)
(117.111 0 0)
(112.443 0 0)
(109.04 0 0)
(106.649 0 0)
(105.018 0 0)
(103.946 0 0)
(103.282 0 0)
(102.917 0 0)
(102.776 0 0)
(102.805 0 0)
(102.965 0 0)
(103.229 0 0)
(103.575 0 0)
(103.989 0 0)
(104.457 0 0)
(104.972 0 0)
(105.526 0 0)
(106.112 0 0)
(106.726 0 0)
(107.364 0 0)
(108.022 0 0)
(108.698 0 0)
(109.39 0 0)
(110.096 0 0)
(110.813 0 0)
(111.541 0 0)
(112.278 0 0)
(113.023 0 0)
(113.775 0 0)
(114.533 0 0)
(115.296 0 0)
(116.064 0 0)
(116.837 0 0)
(117.612 0 0)
(118.391 0 0)
(119.173 0 0)
(119.957 0 0)
(120.742 0 0)
(121.53 0 0)
(122.317 0 0)
(123.109 0 0)
(123.891 0 0)
(124.708 0 0)
(125.419 0 0)
(126.459 0 0)
(244.047 0 0)
(242.397 0 0)
(240.702 0 0)
(238.961 0 0)
(237.171 0 0)
(235.329 0 0)
(233.433 0 0)
(231.48 0 0)
(229.466 0 0)
(227.387 0 0)
(225.239 0 0)
(223.018 0 0)
(220.717 0 0)
(218.332 0 0)
(215.855 0 0)
(213.277 0 0)
(210.59 0 0)
(207.781 0 0)
(204.839 0 0)
(201.748 0 0)
(198.487 0 0)
(195.033 0 0)
(191.356 0 0)
(187.417 0 0)
(183.165 0 0)
(178.53 0 0)
(173.411 0 0)
(167.668 0 0)
(161.143 0 0)
(153.745 0 0)
(145.604 0 0)
(137.168 0 0)
(129.102 0 0)
(122.028 0 0)
(116.286 0 0)
(111.905 0 0)
(108.709 0 0)
(106.454 0 0)
(104.907 0 0)
(103.881 0 0)
(103.239 0 0)
(102.88 0 0)
(102.735 0 0)
(102.752 0 0)
(102.895 0 0)
(103.139 0 0)
(103.463 0 0)
(103.852 0 0)
(104.296 0 0)
(104.785 0 0)
(105.311 0 0)
(105.871 0 0)
(106.457 0 0)
(107.068 0 0)
(107.699 0 0)
(108.348 0 0)
(109.012 0 0)
(109.69 0 0)
(110.38 0 0)
(111.08 0 0)
(111.79 0 0)
(112.507 0 0)
(113.232 0 0)
(113.963 0 0)
(114.7 0 0)
(115.441 0 0)
(116.187 0 0)
(116.936 0 0)
(117.688 0 0)
(118.444 0 0)
(119.201 0 0)
(119.961 0 0)
(120.722 0 0)
(121.484 0 0)
(122.251 0 0)
(123.007 0 0)
(123.797 0 0)
(124.486 0 0)
(125.492 0 0)
(242.136 0 0)
(240.489 0 0)
(238.798 0 0)
(237.06 0 0)
(235.274 0 0)
(233.437 0 0)
(231.545 0 0)
(229.597 0 0)
(227.588 0 0)
(225.514 0 0)
(223.372 0 0)
(221.157 0 0)
(218.862 0 0)
(216.482 0 0)
(214.01 0 0)
(211.437 0 0)
(208.755 0 0)
(205.95 0 0)
(203.011 0 0)
(199.92 0 0)
(196.658 0 0)
(193.2 0 0)
(189.515 0 0)
(185.562 0 0)
(181.288 0 0)
(176.62 0 0)
(171.452 0 0)
(165.643 0 0)
(159.051 0 0)
(151.629 0 0)
(143.566 0 0)
(135.343 0 0)
(127.606 0 0)
(120.904 0 0)
(115.505 0 0)
(111.397 0 0)
(108.396 0 0)
(106.269 0 0)
(104.801 0 0)
(103.82 0 0)
(103.199 0 0)
(102.846 0 0)
(102.696 0 0)
(102.702 0 0)
(102.829 0 0)
(103.054 0 0)
(103.356 0 0)
(103.723 0 0)
(104.142 0 0)
(104.606 0 0)
(105.107 0 0)
(105.64 0 0)
(106.2 0 0)
(106.784 0 0)
(107.389 0 0)
(108.011 0 0)
(108.648 0 0)
(109.3 0 0)
(109.963 0 0)
(110.637 0 0)
(111.32 0 0)
(112.011 0 0)
(112.709 0 0)
(113.414 0 0)
(114.124 0 0)
(114.839 0 0)
(115.559 0 0)
(116.283 0 0)
(117.009 0 0)
(117.739 0 0)
(118.471 0 0)
(119.205 0 0)
(119.941 0 0)
(120.678 0 0)
(121.419 0 0)
(122.152 0 0)
(122.916 0 0)
(123.583 0 0)
(124.555 0 0)
(240.226 0 0)
(238.582 0 0)
(236.895 0 0)
(235.162 0 0)
(233.38 0 0)
(231.548 0 0)
(229.661 0 0)
(227.718 0 0)
(225.714 0 0)
(223.646 0 0)
(221.51 0 0)
(219.3 0 0)
(217.011 0 0)
(214.636 0 0)
(212.169 0 0)
(209.601 0 0)
(206.922 0 0)
(204.121 0 0)
(201.183 0 0)
(198.092 0 0)
(194.827 0 0)
(191.364 0 0)
(187.668 0 0)
(183.699 0 0)
(179.401 0 0)
(174.695 0 0)
(169.472 0 0)
(163.595 0 0)
(156.943 0 0)
(149.515 0 0)
(141.555 0 0)
(133.57 0 0)
(126.172 0 0)
(119.837 0 0)
(114.768 0 0)
(110.918 0 0)
(108.1 0 0)
(106.094 0 0)
(104.7 0 0)
(103.761 0 0)
(103.161 0 0)
(102.814 0 0)
(102.661 0 0)
(102.656 0 0)
(102.768 0 0)
(102.974 0 0)
(103.256 0 0)
(103.6 0 0)
(103.996 0 0)
(104.436 0 0)
(104.912 0 0)
(105.42 0 0)
(105.955 0 0)
(106.513 0 0)
(107.092 0 0)
(107.688 0 0)
(108.299 0 0)
(108.925 0 0)
(109.562 0 0)
(110.21 0 0)
(110.867 0 0)
(111.532 0 0)
(112.205 0 0)
(112.884 0 0)
(113.569 0 0)
(114.259 0 0)
(114.953 0 0)
(115.651 0 0)
(116.353 0 0)
(117.058 0 0)
(117.765 0 0)
(118.474 0 0)
(119.186 0 0)
(119.898 0 0)
(120.615 0 0)
(121.323 0 0)
(122.062 0 0)
(122.708 0 0)
(123.647 0 0)
(238.319 0 0)
(236.679 0 0)
(234.996 0 0)
(233.267 0 0)
(231.49 0 0)
(229.662 0 0)
(227.781 0 0)
(225.843 0 0)
(223.845 0 0)
(221.782 0 0)
(219.651 0 0)
(217.447 0 0)
(215.163 0 0)
(212.794 0 0)
(210.331 0 0)
(207.767 0 0)
(205.092 0 0)
(202.292 0 0)
(199.355 0 0)
(196.263 0 0)
(192.995 0 0)
(189.523 0 0)
(185.816 0 0)
(181.827 0 0)
(177.5 0 0)
(172.751 0 0)
(167.47 0 0)
(161.526 0 0)
(154.822 0 0)
(147.409 0 0)
(139.58 0 0)
(131.854 0 0)
(124.801 0 0)
(118.825 0 0)
(114.072 0 0)
(110.466 0 0)
(107.82 0 0)
(105.928 0 0)
(104.605 0 0)
(103.706 0 0)
(103.126 0 0)
(102.785 0 0)
(102.627 0 0)
(102.613 0 0)
(102.711 0 0)
(102.899 0 0)
(103.162 0 0)
(103.484 0 0)
(103.858 0 0)
(104.274 0 0)
(104.727 0 0)
(105.21 0 0)
(105.72 0 0)
(106.254 0 0)
(106.807 0 0)
(107.378 0 0)
(107.964 0 0)
(108.564 0 0)
(109.176 0 0)
(109.799 0 0)
(110.431 0 0)
(111.071 0 0)
(111.719 0 0)
(112.373 0 0)
(113.033 0 0)
(113.699 0 0)
(114.368 0 0)
(115.042 0 0)
(115.719 0 0)
(116.4 0 0)
(117.083 0 0)
(117.768 0 0)
(118.455 0 0)
(119.144 0 0)
(119.836 0 0)
(120.521 0 0)
(121.235 0 0)
(121.861 0 0)
(122.768 0 0)
(236.414 0 0)
(234.778 0 0)
(233.1 0 0)
(231.376 0 0)
(229.604 0 0)
(227.781 0 0)
(225.905 0 0)
(223.972 0 0)
(221.98 0 0)
(219.923 0 0)
(217.797 0 0)
(215.598 0 0)
(213.319 0 0)
(210.954 0 0)
(208.496 0 0)
(205.936 0 0)
(203.263 0 0)
(200.465 0 0)
(197.527 0 0)
(194.433 0 0)
(191.159 0 0)
(187.678 0 0)
(183.955 0 0)
(179.945 0 0)
(175.584 0 0)
(170.789 0 0)
(165.446 0 0)
(159.435 0 0)
(152.692 0 0)
(145.317 0 0)
(137.646 0 0)
(130.198 0 0)
(123.494 0 0)
(117.869 0 0)
(113.417 0 0)
(110.04 0 0)
(107.557 0 0)
(105.771 0 0)
(104.514 0 0)
(103.654 0 0)
(103.092 0 0)
(102.757 0 0)
(102.597 0 0)
(102.573 0 0)
(102.657 0 0)
(102.829 0 0)
(103.072 0 0)
(103.375 0 0)
(103.727 0 0)
(104.121 0 0)
(104.55 0 0)
(105.01 0 0)
(105.496 0 0)
(106.005 0 0)
(106.534 0 0)
(107.081 0 0)
(107.643 0 0)
(108.219 0 0)
(108.806 0 0)
(109.404 0 0)
(110.012 0 0)
(110.628 0 0)
(111.251 0 0)
(111.881 0 0)
(112.517 0 0)
(113.158 0 0)
(113.804 0 0)
(114.454 0 0)
(115.107 0 0)
(115.764 0 0)
(116.423 0 0)
(117.085 0 0)
(117.749 0 0)
(118.414 0 0)
(119.083 0 0)
(119.745 0 0)
(120.435 0 0)
(121.04 0 0)
(121.916 0 0)
(234.512 0 0)
(232.881 0 0)
(231.207 0 0)
(229.488 0 0)
(227.721 0 0)
(225.904 0 0)
(224.033 0 0)
(222.106 0 0)
(220.118 0 0)
(218.067 0 0)
(215.946 0 0)
(213.752 0 0)
(211.478 0 0)
(209.118 0 0)
(206.663 0 0)
(204.106 0 0)
(201.435 0 0)
(198.637 0 0)
(195.698 0 0)
(192.6 0 0)
(189.319 0 0)
(185.826 0 0)
(182.086 0 0)
(178.05 0 0)
(173.652 0 0)
(168.805 0 0)
(163.397 0 0)
(157.324 0 0)
(150.558 0 0)
(143.247 0 0)
(135.76 0 0)
(128.606 0 0)
(122.251 0 0)
(116.967 0 0)
(112.8 0 0)
(109.64 0 0)
(107.308 0 0)
(105.623 0 0)
(104.428 0 0)
(103.605 0 0)
(103.061 0 0)
(102.732 0 0)
(102.569 0 0)
(102.536 0 0)
(102.607 0 0)
(102.763 0 0)
(102.989 0 0)
(103.272 0 0)
(103.603 0 0)
(103.975 0 0)
(104.382 0 0)
(104.819 0 0)
(105.282 0 0)
(105.768 0 0)
(106.274 0 0)
(106.797 0 0)
(107.335 0 0)
(107.887 0 0)
(108.45 0 0)
(109.025 0 0)
(109.609 0 0)
(110.201 0 0)
(110.801 0 0)
(111.407 0 0)
(112.02 0 0)
(112.637 0 0)
(113.26 0 0)
(113.886 0 0)
(114.516 0 0)
(115.15 0 0)
(115.786 0 0)
(116.425 0 0)
(117.066 0 0)
(117.708 0 0)
(118.355 0 0)
(118.994 0 0)
(119.661 0 0)
(120.246 0 0)
(121.092 0 0)
(232.614 0 0)
(230.987 0 0)
(229.319 0 0)
(227.604 0 0)
(225.843 0 0)
(224.03 0 0)
(222.165 0 0)
(220.243 0 0)
(218.261 0 0)
(216.215 0 0)
(214.099 0 0)
(211.91 0 0)
(209.64 0 0)
(207.284 0 0)
(204.833 0 0)
(202.277 0 0)
(199.607 0 0)
(196.809 0 0)
(193.868 0 0)
(190.763 0 0)
(187.473 0 0)
(183.967 0 0)
(180.206 0 0)
(176.14 0 0)
(171.701 0 0)
(166.799 0 0)
(161.326 0 0)
(155.198 0 0)
(148.425 0 0)
(141.204 0 0)
(133.927 0 0)
(127.08 0 0)
(121.073 0 0)
(116.116 0 0)
(112.22 0 0)
(109.263 0 0)
(107.073 0 0)
(105.482 0 0)
(104.347 0 0)
(103.558 0 0)
(103.032 0 0)
(102.708 0 0)
(102.543 0 0)
(102.502 0 0)
(102.561 0 0)
(102.702 0 0)
(102.91 0 0)
(103.174 0 0)
(103.485 0 0)
(103.836 0 0)
(104.222 0 0)
(104.637 0 0)
(105.078 0 0)
(105.541 0 0)
(106.024 0 0)
(106.524 0 0)
(107.04 0 0)
(107.568 0 0)
(108.109 0 0)
(108.66 0 0)
(109.221 0 0)
(109.791 0 0)
(110.367 0 0)
(110.951 0 0)
(111.54 0 0)
(112.135 0 0)
(112.735 0 0)
(113.339 0 0)
(113.946 0 0)
(114.557 0 0)
(115.171 0 0)
(115.788 0 0)
(116.406 0 0)
(117.026 0 0)
(117.651 0 0)
(118.268 0 0)
(118.912 0 0)
(119.478 0 0)
(120.295 0 0)
(230.719 0 0)
(229.097 0 0)
(227.433 0 0)
(225.724 0 0)
(223.968 0 0)
(222.161 0 0)
(220.301 0 0)
(218.384 0 0)
(216.408 0 0)
(214.366 0 0)
(212.256 0 0)
(210.071 0 0)
(207.805 0 0)
(205.452 0 0)
(203.003 0 0)
(200.45 0 0)
(197.779 0 0)
(194.98 0 0)
(192.034 0 0)
(188.923 0 0)
(185.621 0 0)
(182.099 0 0)
(178.314 0 0)
(174.215 0 0)
(169.73 0 0)
(164.769 0 0)
(159.232 0 0)
(153.058 0 0)
(146.302 0 0)
(139.198 0 0)
(132.153 0 0)
(125.623 0 0)
(119.958 0 0)
(115.315 0 0)
(111.675 0 0)
(108.909 0 0)
(106.852 0 0)
(105.35 0 0)
(104.27 0 0)
(103.514 0 0)
(103.005 0 0)
(102.687 0 0)
(102.519 0 0)
(102.47 0 0)
(102.518 0 0)
(102.644 0 0)
(102.836 0 0)
(103.082 0 0)
(103.374 0 0)
(103.705 0 0)
(104.07 0 0)
(104.464 0 0)
(104.884 0 0)
(105.325 0 0)
(105.786 0 0)
(106.264 0 0)
(106.757 0 0)
(107.263 0 0)
(107.782 0 0)
(108.31 0 0)
(108.849 0 0)
(109.396 0 0)
(109.95 0 0)
(110.511 0 0)
(111.079 0 0)
(111.651 0 0)
(112.229 0 0)
(112.811 0 0)
(113.396 0 0)
(113.985 0 0)
(114.577 0 0)
(115.172 0 0)
(115.769 0 0)
(116.368 0 0)
(116.97 0 0)
(117.567 0 0)
(118.188 0 0)
(118.735 0 0)
(119.523 0 0)
(228.828 0 0)
(227.211 0 0)
(225.552 0 0)
(223.849 0 0)
(222.097 0 0)
(220.296 0 0)
(218.441 0 0)
(216.53 0 0)
(214.558 0 0)
(212.521 0 0)
(210.415 0 0)
(208.234 0 0)
(205.972 0 0)
(203.622 0 0)
(201.175 0 0)
(198.622 0 0)
(195.951 0 0)
(193.148 0 0)
(190.197 0 0)
(187.077 0 0)
(183.762 0 0)
(180.22 0 0)
(176.409 0 0)
(172.272 0 0)
(167.738 0 0)
(162.715 0 0)
(157.117 0 0)
(150.911 0 0)
(144.193 0 0)
(137.234 0 0)
(130.442 0 0)
(124.234 0 0)
(118.905 0 0)
(114.563 0 0)
(111.164 0 0)
(108.576 0 0)
(106.644 0 0)
(105.224 0 0)
(104.198 0 0)
(103.472 0 0)
(102.979 0 0)
(102.667 0 0)
(102.497 0 0)
(102.441 0 0)
(102.478 0 0)
(102.591 0 0)
(102.767 0 0)
(102.995 0 0)
(103.269 0 0)
(103.581 0 0)
(103.926 0 0)
(104.3 0 0)
(104.698 0 0)
(105.119 0 0)
(105.558 0 0)
(106.015 0 0)
(106.486 0 0)
(106.971 0 0)
(107.467 0 0)
(107.975 0 0)
(108.491 0 0)
(109.016 0 0)
(109.549 0 0)
(110.089 0 0)
(110.634 0 0)
(111.186 0 0)
(111.741 0 0)
(112.302 0 0)
(112.866 0 0)
(113.434 0 0)
(114.004 0 0)
(114.578 0 0)
(115.154 0 0)
(115.731 0 0)
(116.313 0 0)
(116.888 0 0)
(117.489 0 0)
(118.017 0 0)
(118.776 0 0)
(226.94 0 0)
(225.329 0 0)
(223.675 0 0)
(221.977 0 0)
(220.231 0 0)
(218.435 0 0)
(216.585 0 0)
(214.678 0 0)
(212.711 0 0)
(210.679 0 0)
(208.577 0 0)
(206.4 0 0)
(204.141 0 0)
(201.793 0 0)
(199.347 0 0)
(196.794 0 0)
(194.121 0 0)
(191.313 0 0)
(188.355 0 0)
(185.224 0 0)
(181.894 0 0)
(178.329 0 0)
(174.487 0 0)
(170.31 0 0)
(165.721 0 0)
(160.636 0 0)
(154.984 0 0)
(148.763 0 0)
(142.109 0 0)
(135.321 0 0)
(128.798 0 0)
(122.916 0 0)
(117.913 0 0)
(113.857 0 0)
(110.684 0 0)
(108.263 0 0)
(106.448 0 0)
(105.106 0 0)
(104.129 0 0)
(103.433 0 0)
(102.955 0 0)
(102.648 0 0)
(102.477 0 0)
(102.415 0 0)
(102.441 0 0)
(102.541 0 0)
(102.702 0 0)
(102.914 0 0)
(103.17 0 0)
(103.464 0 0)
(103.789 0 0)
(104.143 0 0)
(104.522 0 0)
(104.922 0 0)
(105.341 0 0)
(105.776 0 0)
(106.227 0 0)
(106.691 0 0)
(107.166 0 0)
(107.652 0 0)
(108.148 0 0)
(108.652 0 0)
(109.164 0 0)
(109.682 0 0)
(110.207 0 0)
(110.737 0 0)
(111.272 0 0)
(111.811 0 0)
(112.355 0 0)
(112.902 0 0)
(113.452 0 0)
(114.004 0 0)
(114.56 0 0)
(115.117 0 0)
(115.678 0 0)
(116.233 0 0)
(116.812 0 0)
(117.323 0 0)
(118.055 0 0)
(225.056 0 0)
(223.45 0 0)
(221.802 0 0)
(220.109 0 0)
(218.368 0 0)
(216.577 0 0)
(214.732 0 0)
(212.831 0 0)
(210.868 0 0)
(208.84 0 0)
(206.742 0 0)
(204.568 0 0)
(202.311 0 0)
(199.965 0 0)
(197.519 0 0)
(194.964 0 0)
(192.288 0 0)
(189.475 0 0)
(186.508 0 0)
(183.364 0 0)
(180.015 0 0)
(176.425 0 0)
(172.549 0 0)
(168.326 0 0)
(163.681 0 0)
(158.535 0 0)
(152.836 0 0)
(146.619 0 0)
(140.056 0 0)
(133.463 0 0)
(127.225 0 0)
(121.668 0 0)
(116.981 0 0)
(113.196 0 0)
(110.235 0 0)
(107.969 0 0)
(106.263 0 0)
(104.994 0 0)
(104.063 0 0)
(103.396 0 0)
(102.933 0 0)
(102.631 0 0)
(102.459 0 0)
(102.39 0 0)
(102.407 0 0)
(102.495 0 0)
(102.641 0 0)
(102.838 0 0)
(103.077 0 0)
(103.353 0 0)
(103.66 0 0)
(103.995 0 0)
(104.354 0 0)
(104.734 0 0)
(105.133 0 0)
(105.549 0 0)
(105.979 0 0)
(106.422 0 0)
(106.878 0 0)
(107.343 0 0)
(107.819 0 0)
(108.302 0 0)
(108.793 0 0)
(109.291 0 0)
(109.796 0 0)
(110.305 0 0)
(110.82 0 0)
(111.339 0 0)
(111.862 0 0)
(112.389 0 0)
(112.919 0 0)
(113.451 0 0)
(113.987 0 0)
(114.523 0 0)
(115.064 0 0)
(115.6 0 0)
(116.159 0 0)
(116.652 0 0)
(117.357 0 0)
(223.176 0 0)
(221.575 0 0)
(219.933 0 0)
(218.245 0 0)
(216.509 0 0)
(214.723 0 0)
(212.883 0 0)
(210.986 0 0)
(209.028 0 0)
(207.004 0 0)
(204.909 0 0)
(202.737 0 0)
(200.482 0 0)
(198.136 0 0)
(195.69 0 0)
(193.132 0 0)
(190.451 0 0)
(187.631 0 0)
(184.653 0 0)
(181.494 0 0)
(178.124 0 0)
(174.506 0 0)
(170.591 0 0)
(166.319 0 0)
(161.615 0 0)
(156.411 0 0)
(150.679 0 0)
(144.487 0 0)
(138.042 0 0)
(131.668 0 0)
(125.724 0 0)
(120.489 0 0)
(116.106 0 0)
(112.576 0 0)
(109.814 0 0)
(107.694 0 0)
(106.089 0 0)
(104.888 0 0)
(104.002 0 0)
(103.361 0 0)
(102.912 0 0)
(102.616 0 0)
(102.442 0 0)
(102.368 0 0)
(102.376 0 0)
(102.452 0 0)
(102.585 0 0)
(102.766 0 0)
(102.989 0 0)
(103.248 0 0)
(103.537 0 0)
(103.854 0 0)
(104.194 0 0)
(104.556 0 0)
(104.935 0 0)
(105.331 0 0)
(105.742 0 0)
(106.166 0 0)
(106.601 0 0)
(107.047 0 0)
(107.503 0 0)
(107.966 0 0)
(108.438 0 0)
(108.916 0 0)
(109.4 0 0)
(109.89 0 0)
(110.385 0 0)
(110.884 0 0)
(111.388 0 0)
(111.895 0 0)
(112.405 0 0)
(112.918 0 0)
(113.434 0 0)
(113.951 0 0)
(114.472 0 0)
(114.989 0 0)
(115.527 0 0)
(116.004 0 0)
(116.683 0 0)
(221.3 0 0)
(219.705 0 0)
(218.067 0 0)
(216.384 0 0)
(214.654 0 0)
(212.872 0 0)
(211.037 0 0)
(209.144 0 0)
(207.19 0 0)
(205.169 0 0)
(203.077 0 0)
(200.907 0 0)
(198.653 0 0)
(196.307 0 0)
(193.859 0 0)
(191.298 0 0)
(188.611 0 0)
(185.781 0 0)
(182.79 0 0)
(179.613 0 0)
(176.219 0 0)
(172.569 0 0)
(168.613 0 0)
(164.288 0 0)
(159.525 0 0)
(154.269 0 0)
(148.518 0 0)
(142.377 0 0)
(136.076 0 0)
(129.941 0 0)
(124.297 0 0)
(119.379 0 0)
(115.285 0 0)
(111.996 0 0)
(109.419 0 0)
(107.435 0 0)
(105.925 0 0)
(104.788 0 0)
(103.943 0 0)
(103.328 0 0)
(102.893 0 0)
(102.602 0 0)
(102.428 0 0)
(102.348 0 0)
(102.347 0 0)
(102.412 0 0)
(102.532 0 0)
(102.699 0 0)
(102.907 0 0)
(103.149 0 0)
(103.421 0 0)
(103.72 0 0)
(104.043 0 0)
(104.386 0 0)
(104.747 0 0)
(105.124 0 0)
(105.516 0 0)
(105.921 0 0)
(106.337 0 0)
(106.764 0 0)
(107.2 0 0)
(107.644 0 0)
(108.096 0 0)
(108.555 0 0)
(109.02 0 0)
(109.491 0 0)
(109.966 0 0)
(110.447 0 0)
(110.931 0 0)
(111.419 0 0)
(111.91 0 0)
(112.404 0 0)
(112.9 0 0)
(113.399 0 0)
(113.901 0 0)
(114.399 0 0)
(114.918 0 0)
(115.378 0 0)
(116.031 0 0)
(219.428 0 0)
(217.837 0 0)
(216.205 0 0)
(214.527 0 0)
(212.801 0 0)
(211.025 0 0)
(209.194 0 0)
(207.305 0 0)
(205.354 0 0)
(203.336 0 0)
(201.246 0 0)
(199.078 0 0)
(196.824 0 0)
(194.476 0 0)
(192.025 0 0)
(189.459 0 0)
(186.764 0 0)
(183.924 0 0)
(180.918 0 0)
(177.72 0 0)
(174.299 0 0)
(170.613 0 0)
(166.611 0 0)
(162.232 0 0)
(157.411 0 0)
(152.112 0 0)
(146.361 0 0)
(140.295 0 0)
(134.165 0 0)
(128.285 0 0)
(122.945 0 0)
(118.335 0 0)
(114.518 0 0)
(111.454 0 0)
(109.05 0 0)
(107.192 0 0)
(105.77 0 0)
(104.694 0 0)
(103.888 0 0)
(103.297 0 0)
(102.875 0 0)
(102.589 0 0)