/*--------------------------------*- C++ -*----------------------------------*\
| =========                 |                                                 |
| \\      /  F ield         | OpenFOAM: The Open Source CFD Toolbox           |
|  \\    /   O peration     | Version:  2312                                  |
|   \\  /    A nd           | Website:  www.openfoam.com                      |
|    \\/     M anipulation  |                                                 |
\*---------------------------------------------------------------------------*/
FoamFile
{
    version     2.0;
    format      ascii;
    arch        "LSB;label=32;scalar=64";
    class       volVectorField;
    location    "0.154";
    object      U;
}
// * * * * * * * * * * * * * * * * * * * * * * * * * * * * * * * * * * * * * //

dimensions      [0 1 -1 0 0 0 0];

internalField   nonuniform List<vector> 
31205
(
(274.461 0 0)
(273.003 0 0)
(271.495 0 0)
(269.935 0 0)
(268.319 0 0)
(266.648 0 0)
(264.918 0 0)
(263.127 0 0)
(261.272 0 0)
(259.351 0 0)
(257.36 0 0)
(255.295 0 0)
(253.154 0 0)
(250.931 0 0)
(248.621 0 0)
(246.219 0 0)
(243.719 0 0)
(241.113 0 0)
(238.392 0 0)
(235.549 0 0)
(232.571 0 0)
(229.444 0 0)
(226.155 0 0)
(222.682 0 0)
(219.004 0 0)
(215.091 0 0)
(210.906 0 0)
(206.401 0 0)
(201.51 0 0)
(196.148 0 0)
(190.177 0 0)
(183.346 0 0)
(175.222 0 0)
(165.323 0 0)
(153.637 0 0)
(141.135 0 0)
(129.497 0 0)
(120.102 0 0)
(113.369 0 0)
(108.952 0 0)
(106.246 0 0)
(104.705 0 0)
(103.935 0 0)
(103.678 0 0)
(103.768 0 0)
(104.1 0 0)
(104.607 0 0)
(105.242 0 0)
(105.975 0 0)
(106.783 0 0)
(107.65 0 0)
(108.565 0 0)
(109.518 0 0)
(110.504 0 0)
(111.515 0 0)
(112.547 0 0)
(113.598 0 0)
(114.663 0 0)
(115.742 0 0)
(116.83 0 0)
(117.928 0 0)
(119.033 0 0)
(120.145 0 0)
(121.261 0 0)
(122.382 0 0)
(123.506 0 0)
(124.633 0 0)
(125.761 0 0)
(126.892 0 0)
(128.023 0 0)
(129.155 0 0)
(130.287 0 0)
(131.42 0 0)
(132.55 0 0)
(133.686 0 0)
(134.803 0 0)
(135.972 0 0)
(136.976 0 0)
(138.485 0 0)
(272.911 0 0)
(271.446 0 0)
(269.932 0 0)
(268.366 0 0)
(266.748 0 0)
(265.075 0 0)
(263.344 0 0)
(261.554 0 0)
(259.702 0 0)
(257.784 0 0)
(255.798 0 0)
(253.741 0 0)
(251.607 0 0)
(249.394 0 0)
(247.096 0 0)
(244.707 0 0)
(242.221 0 0)
(239.632 0 0)
(236.93 0 0)
(234.107 0 0)
(231.151 0 0)
(228.049 0 0)
(224.786 0 0)
(221.343 0 0)
(217.697 0 0)
(213.819 0 0)
(209.672 0 0)
(205.208 0 0)
(200.363 0 0)
(195.05 0 0)
(189.132 0 0)
(182.358 0 0)
(174.304 0 0)
(164.519 0 0)
(153.014 0 0)
(140.745 0 0)
(129.329 0 0)
(120.087 0 0)
(113.427 0 0)
(109.023 0 0)
(106.296 0 0)
(104.717 0 0)
(103.903 0 0)
(103.599 0 0)
(103.642 0 0)
(103.928 0 0)
(104.388 0 0)
(104.979 0 0)
(105.667 0 0)
(106.431 0 0)
(107.256 0 0)
(108.128 0 0)
(109.04 0 0)
(109.984 0 0)
(110.955 0 0)
(111.947 0 0)
(112.958 0 0)
(113.985 0 0)
(115.024 0 0)
(116.075 0 0)
(117.135 0 0)
(118.203 0 0)
(119.277 0 0)
(120.357 0 0)
(121.441 0 0)
(122.529 0 0)
(123.62 0 0)
(124.713 0 0)
(125.808 0 0)
(126.905 0 0)
(128.002 0 0)
(129.1 0 0)
(130.198 0 0)
(131.295 0 0)
(132.397 0 0)
(133.481 0 0)
(134.616 0 0)
(135.591 0 0)
(137.052 0 0)
(271.273 0 0)
(269.801 0 0)
(268.28 0 0)
(266.71 0 0)
(265.088 0 0)
(263.412 0 0)
(261.679 0 0)
(259.889 0 0)
(258.037 0 0)
(256.122 0 0)
(254.14 0 0)
(252.087 0 0)
(249.96 0 0)
(247.754 0 0)
(245.464 0 0)
(243.085 0 0)
(240.611 0 0)
(238.034 0 0)
(235.347 0 0)
(232.54 0 0)
(229.601 0 0)
(226.518 0 0)
(223.276 0 0)
(219.855 0 0)
(216.233 0 0)
(212.38 0 0)
(208.26 0 0)
(203.824 0 0)
(199.008 0 0)
(193.724 0 0)
(187.831 0 0)
(181.074 0 0)
(173.038 0 0)
(163.306 0 0)
(151.945 0 0)
(139.924 0 0)
(128.801 0 0)
(119.81 0 0)
(113.314 0 0)
(108.994 0 0)
(106.294 0 0)
(104.709 0 0)
(103.871 0 0)
(103.534 0 0)
(103.539 0 0)
(103.785 0 0)
(104.204 0 0)
(104.753 0 0)
(105.4 0 0)
(106.123 0 0)
(106.906 0 0)
(107.739 0 0)
(108.61 0 0)
(109.514 0 0)
(110.446 0 0)
(111.399 0 0)
(112.372 0 0)
(113.36 0 0)
(114.362 0 0)
(115.375 0 0)
(116.398 0 0)
(117.429 0 0)
(118.467 0 0)
(119.511 0 0)
(120.56 0 0)
(121.612 0 0)
(122.668 0 0)
(123.727 0 0)
(124.788 0 0)
(125.85 0 0)
(126.913 0 0)
(127.977 0 0)
(129.042 0 0)
(130.106 0 0)
(131.175 0 0)
(132.227 0 0)
(133.327 0 0)
(134.276 0 0)
(135.688 0 0)
(269.594 0 0)
(268.115 0 0)
(266.589 0 0)
(265.013 0 0)
(263.387 0 0)
(261.709 0 0)
(259.975 0 0)
(258.184 0 0)
(256.333 0 0)
(254.42 0 0)
(252.44 0 0)
(250.392 0 0)
(248.27 0 0)
(246.07 0 0)
(243.788 0 0)
(241.418 0 0)
(238.953 0 0)
(236.388 0 0)
(233.713 0 0)
(230.919 0 0)
(227.995 0 0)
(224.928 0 0)
(221.703 0 0)
(218.3 0 0)
(214.697 0 0)
(210.863 0 0)
(206.763 0 0)
(202.347 0 0)
(197.55 0 0)
(192.282 0 0)
(186.397 0 0)
(179.633 0 0)
(171.581 0 0)
(161.868 0 0)
(150.63 0 0)
(138.864 0 0)
(128.067 0 0)
(119.376 0 0)
(113.093 0 0)
(108.897 0 0)
(106.253 0 0)
(104.683 0 0)
(103.835 0 0)
(103.475 0 0)
(103.449 0 0)
(103.66 0 0)
(104.043 0 0)
(104.553 0 0)
(105.162 0 0)
(105.846 0 0)
(106.591 0 0)
(107.384 0 0)
(108.217 0 0)
(109.083 0 0)
(109.977 0 0)
(110.893 0 0)
(111.828 0 0)
(112.779 0 0)
(113.745 0 0)
(114.722 0 0)
(115.709 0 0)
(116.704 0 0)
(117.707 0 0)
(118.715 0 0)
(119.729 0 0)
(120.747 0 0)
(121.769 0 0)
(122.794 0 0)
(123.821 0 0)
(124.85 0 0)
(125.88 0 0)
(126.911 0 0)
(127.943 0 0)
(128.974 0 0)
(130.011 0 0)
(131.031 0 0)
(132.098 0 0)
(133.02 0 0)
(134.387 0 0)
(267.896 0 0)
(266.41 0 0)
(264.879 0 0)
(263.3 0 0)
(261.671 0 0)
(259.99 0 0)
(258.256 0 0)
(256.465 0 0)
(254.615 0 0)
(252.704 0 0)
(250.728 0 0)
(248.684 0 0)
(246.567 0 0)
(244.374 0 0)
(242.099 0 0)
(239.737 0 0)
(237.283 0 0)
(234.728 0 0)
(232.064 0 0)
(229.283 0 0)
(226.373 0 0)
(223.321 0 0)
(220.111 0 0)
(216.724 0 0)
(213.138 0 0)
(209.322 0 0)
(205.238 0 0)
(200.838 0 0)
(196.056 0 0)
(190.797 0 0)
(184.911 0 0)
(178.127 0 0)
(170.046 0 0)
(160.343 0 0)
(149.226 0 0)
(137.721 0 0)
(127.263 0 0)
(118.885 0 0)
(112.831 0 0)
(108.771 0 0)
(106.195 0 0)
(104.648 0 0)
(103.797 0 0)
(103.418 0 0)
(103.366 0 0)
(103.546 0 0)
(103.894 0 0)
(104.369 0 0)
(104.941 0 0)
(105.588 0 0)
(106.295 0 0)
(107.052 0 0)
(107.848 0 0)
(108.677 0 0)
(109.534 0 0)
(110.413 0 0)
(111.312 0 0)
(112.228 0 0)
(113.158 0 0)
(114.099 0 0)
(115.051 0 0)
(116.012 0 0)
(116.98 0 0)
(117.955 0 0)
(118.935 0 0)
(119.919 0 0)
(120.907 0 0)
(121.899 0 0)
(122.893 0 0)
(123.889 0 0)
(124.887 0 0)
(125.886 0 0)
(126.886 0 0)
(127.886 0 0)
(128.89 0 0)
(129.88 0 0)
(130.915 0 0)
(131.81 0 0)
(133.134 0 0)
(266.186 0 0)
(264.696 0 0)
(263.161 0 0)
(261.579 0 0)
(259.948 0 0)
(258.267 0 0)
(256.532 0 0)
(254.743 0 0)
(252.895 0 0)
(250.987 0 0)
(249.014 0 0)
(246.975 0 0)
(244.864 0 0)
(242.677 0 0)
(240.411 0 0)
(238.058 0 0)
(235.613 0 0)
(233.069 0 0)
(230.417 0 0)
(227.648 0 0)
(224.752 0 0)
(221.714 0 0)
(218.519 0 0)
(215.148 0 0)
(211.577 0 0)
(207.777 0 0)
(203.709 0 0)
(199.323 0 0)
(194.552 0 0)
(189.3 0 0)
(183.407 0 0)
(176.597 0 0)
(168.483 0 0)
(158.791 0 0)
(147.804 0 0)
(136.567 0 0)
(126.449 0 0)
(118.386 0 0)
(112.56 0 0)
(108.638 0 0)
(106.131 0 0)
(104.61 0 0)
(103.759 0 0)
(103.365 0 0)
(103.289 0 0)
(103.439 0 0)
(103.755 0 0)
(104.195 0 0)
(104.732 0 0)
(105.344 0 0)
(106.015 0 0)
(106.736 0 0)
(107.496 0 0)
(108.289 0 0)
(109.11 0 0)
(109.955 0 0)
(110.819 0 0)
(111.699 0 0)
(112.594 0 0)
(113.502 0 0)
(114.42 0 0)
(115.347 0 0)
(116.281 0 0)
(117.222 0 0)
(118.169 0 0)
(119.121 0 0)
(120.076 0 0)
(121.036 0 0)
(121.997 0 0)
(122.962 0 0)
(123.928 0 0)
(124.895 0 0)
(125.864 0 0)
(126.833 0 0)
(127.806 0 0)
(128.766 0 0)
(129.769 0 0)
(130.637 0 0)
(131.92 0 0)
(264.47 0 0)
(262.977 0 0)
(261.439 0 0)
(259.855 0 0)
(258.224 0 0)
(256.542 0 0)
(254.809 0 0)
(253.021 0 0)
(251.176 0 0)
(249.271 0 0)
(247.304 0 0)
(245.27 0 0)
(243.165 0 0)
(240.986 0 0)
(238.727 0 0)
(236.384 0 0)
(233.949 0 0)
(231.416 0 0)
(228.776 0 0)
(226.02 0 0)
(223.136 0 0)
(220.113 0 0)
(216.933 0 0)
(213.577 0 0)
(210.021 0 0)
(206.237 0 0)
(202.183 0 0)
(197.81 0 0)
(193.049 0 0)
(187.8 0 0)
(181.897 0 0)
(175.057 0 0)
(166.91 0 0)
(157.238 0 0)
(146.39 0 0)
(135.428 0 0)
(125.65 0 0)
(117.895 0 0)
(112.292 0 0)
(108.506 0 0)
(106.069 0 0)
(104.574 0 0)
(103.724 0 0)
(103.316 0 0)
(103.217 0 0)
(103.339 0 0)
(103.624 0 0)
(104.032 0 0)
(104.534 0 0)
(105.111 0 0)
(105.748 0 0)
(106.434 0 0)
(107.159 0 0)
(107.918 0 0)
(108.704 0 0)
(109.514 0 0)
(110.344 0 0)
(111.191 0 0)
(112.052 0 0)
(112.926 0 0)
(113.811 0 0)
(114.705 0 0)
(115.606 0 0)
(116.515 0 0)
(117.43 0 0)
(118.349 0 0)
(119.273 0 0)
(120.201 0 0)
(121.131 0 0)
(122.064 0 0)
(122.999 0 0)
(123.936 0 0)
(124.874 0 0)
(125.812 0 0)
(126.755 0 0)
(127.685 0 0)
(128.657 0 0)
(129.499 0 0)
(130.742 0 0)
(262.749 0 0)
(261.253 0 0)
(259.714 0 0)
(258.13 0 0)
(256.498 0 0)
(254.818 0 0)
(253.086 0 0)
(251.301 0 0)
(249.46 0 0)
(247.56 0 0)
(245.597 0 0)
(243.569 0 0)
(241.472 0 0)
(239.301 0 0)
(237.051 0 0)
(234.717 0 0)
(232.292 0 0)
(229.77 0 0)
(227.142 0 0)
(224.399 0 0)
(221.529 0 0)
(218.52 0 0)
(215.354 0 0)
(212.013 0 0)
(208.473 0 0)
(204.703 0 0)
(200.663 0 0)
(196.302 0 0)
(191.549 0 0)
(186.301 0 0)
(180.384 0 0)
(173.512 0 0)
(165.334 0 0)
(155.689 0 0)
(144.993 0 0)
(134.313 0 0)
(124.872 0 0)
(117.418 0 0)
(112.032 0 0)
(108.377 0 0)
(106.009 0 0)
(104.541 0 0)
(103.693 0 0)
(103.271 0 0)
(103.15 0 0)
(103.246 0 0)
(103.501 0 0)
(103.877 0 0)
(104.347 0 0)
(104.891 0 0)
(105.494 0 0)
(106.146 0 0)
(106.837 0 0)
(107.562 0 0)
(108.315 0 0)
(109.092 0 0)
(109.888 0 0)
(110.702 0 0)
(111.53 0 0)
(112.372 0 0)
(113.224 0 0)
(114.085 0 0)
(114.955 0 0)
(115.832 0 0)
(116.715 0 0)
(117.603 0 0)
(118.496 0 0)
(119.393 0 0)
(120.293 0 0)
(121.195 0 0)
(122.1 0 0)
(123.007 0 0)
(123.915 0 0)
(124.823 0 0)
(125.737 0 0)
(126.638 0 0)
(127.579 0 0)
(128.396 0 0)
(129.599 0 0)
(261.025 0 0)
(259.527 0 0)
(257.988 0 0)
(256.404 0 0)
(254.774 0 0)
(253.095 0 0)
(251.366 0 0)
(249.585 0 0)
(247.748 0 0)
(245.852 0 0)
(243.896 0 0)
(241.875 0 0)
(239.785 0 0)
(237.622 0 0)
(235.381 0 0)
(233.057 0 0)
(230.643 0 0)
(228.132 0 0)
(225.517 0 0)
(222.786 0 0)
(219.93 0 0)
(216.934 0 0)
(213.783 0 0)
(210.457 0 0)
(206.931 0 0)
(203.175 0 0)
(199.148 0 0)
(194.797 0 0)
(190.051 0 0)
(184.801 0 0)
(178.866 0 0)
(171.96 0 0)
(163.754 0 0)
(154.149 0 0)
(143.617 0 0)
(133.223 0 0)
(124.117 0 0)
(116.957 0 0)
(111.781 0 0)
(108.254 0 0)
(105.952 0 0)
(104.511 0 0)
(103.665 0 0)
(103.232 0 0)
(103.09 0 0)
(103.16 0 0)
(103.386 0 0)
(103.732 0 0)
(104.17 0 0)
(104.682 0 0)
(105.252 0 0)
(105.871 0 0)
(106.53 0 0)
(107.222 0 0)
(107.942 0 0)
(108.686 0 0)
(109.45 0 0)
(110.231 0 0)
(111.028 0 0)
(111.837 0 0)
(112.658 0 0)
(113.488 0 0)
(114.327 0 0)
(115.173 0 0)
(116.025 0 0)
(116.883 0 0)
(117.745 0 0)
(118.611 0 0)
(119.481 0 0)
(120.354 0 0)
(121.23 0 0)
(122.107 0 0)
(122.986 0 0)
(123.865 0 0)
(124.75 0 0)
(125.622 0 0)
(126.534 0 0)
(127.326 0 0)
(128.491 0 0)
(259.297 0 0)
(257.8 0 0)
(256.261 0 0)
(254.678 0 0)
(253.05 0 0)
(251.374 0 0)
(249.649 0 0)
(247.871 0 0)
(246.039 0 0)
(244.15 0 0)
(242.2 0 0)
(240.186 0 0)
(238.104 0 0)
(235.95 0 0)
(233.718 0 0)
(231.404 0 0)
(229.001 0 0)
(226.502 0 0)
(223.899 0 0)
(221.181 0 0)
(218.339 0 0)
(215.357 0 0)
(212.22 0 0)
(208.908 0 0)
(205.396 0 0)
(201.653 0 0)
(197.637 0 0)
(193.296 0 0)
(188.555 0 0)
(183.3 0 0)
(177.345 0 0)
(170.402 0 0)
(162.173 0 0)
(152.617 0 0)
(142.261 0 0)
(132.16 0 0)
(123.384 0 0)
(116.51 0 0)
(111.538 0 0)
(108.135 0 0)
(105.898 0 0)
(104.484 0 0)
(103.641 0 0)
(103.196 0 0)
(103.035 0 0)
(103.081 0 0)
(103.279 0 0)
(103.596 0 0)
(104.003 0 0)
(104.483 0 0)
(105.022 0 0)
(105.609 0 0)
(106.236 0 0)
(106.896 0 0)
(107.584 0 0)
(108.297 0 0)
(109.029 0 0)
(109.779 0 0)
(110.545 0 0)
(111.323 0 0)
(112.113 0 0)
(112.912 0 0)
(113.721 0 0)
(114.536 0 0)
(115.359 0 0)
(116.186 0 0)
(117.019 0 0)
(117.856 0 0)
(118.697 0 0)
(119.541 0 0)
(120.387 0 0)
(121.235 0 0)
(122.086 0 0)
(122.937 0 0)
(123.793 0 0)
(124.638 0 0)
(125.521 0 0)
(126.288 0 0)
(127.415 0 0)
(257.569 0 0)
(256.072 0 0)
(254.534 0 0)
(252.954 0 0)
(251.328 0 0)
(249.656 0 0)
(247.935 0 0)
(246.162 0 0)
(244.335 0 0)
(242.452 0 0)
(240.509 0 0)
(238.503 0 0)
(236.429 0 0)
(234.284 0 0)
(232.062 0 0)
(229.759 0 0)
(227.367 0 0)
(224.88 0 0)
(222.289 0 0)
(219.584 0 0)
(216.755 0 0)
(213.787 0 0)
(210.664 0 0)
(207.365 0 0)
(203.867 0 0)
(200.136 0 0)
(196.131 0 0)
(191.798 0 0)
(187.059 0 0)
(181.797 0 0)
(175.817 0 0)
(168.838 0 0)
(160.59 0 0)
(151.095 0 0)
(140.927 0 0)
(131.123 0 0)
(122.673 0 0)
(116.078 0 0)
(111.303 0 0)
(108.02 0 0)
(105.847 0 0)
(104.46 0 0)
(103.62 0 0)
(103.166 0 0)
(102.986 0 0)
(103.008 0 0)
(103.18 0 0)
(103.468 0 0)
(103.846 0 0)
(104.296 0 0)
(104.804 0 0)
(105.36 0 0)
(105.956 0 0)
(106.585 0 0)
(107.242 0 0)
(107.924 0 0)
(108.625 0 0)
(109.345 0 0)
(110.08 0 0)
(110.828 0 0)
(111.588 0 0)
(112.358 0 0)
(113.136 0 0)
(113.922 0 0)
(114.715 0 0)
(115.514 0 0)
(116.318 0 0)
(117.126 0 0)
(117.938 0 0)
(118.754 0 0)
(119.572 0 0)
(120.392 0 0)
(121.215 0 0)
(122.038 0 0)
(122.867 0 0)
(123.684 0 0)
(124.539 0 0)
(125.282 0 0)
(126.373 0 0)
(255.84 0 0)
(254.344 0 0)
(252.809 0 0)
(251.231 0 0)
(249.609 0 0)
(247.941 0 0)
(246.224 0 0)
(244.457 0 0)
(242.637 0 0)
(240.76 0 0)
(238.825 0 0)
(236.826 0 0)
(234.761 0 0)
(232.625 0 0)
(230.414 0 0)
(228.121 0 0)
(225.74 0 0)
(223.265 0 0)
(220.686 0 0)
(217.995 0 0)
(215.178 0 0)
(212.224 0 0)
(209.114 0 0)
(205.829 0 0)
(202.343 0 0)
(198.624 0 0)
(194.629 0 0)
(190.302 0 0)
(185.563 0 0)
(180.29 0 0)
(174.283 0 0)
(167.266 0 0)
(159.007 0 0)
(149.584 0 0)
(139.616 0 0)
(130.112 0 0)
(121.984 0 0)
(115.66 0 0)
(111.075 0 0)
(107.91 0 0)
(105.799 0 0)
(104.438 0 0)
(103.603 0 0)
(103.139 0 0)
(102.942 0 0)
(102.941 0 0)
(103.088 0 0)
(103.349 0 0)
(103.698 0 0)
(104.119 0 0)
(104.597 0 0)
(105.123 0 0)
(105.689 0 0)
(106.288 0 0)
(106.915 0 0)
(107.566 0 0)
(108.238 0 0)
(108.928 0 0)
(109.633 0 0)
(110.352 0 0)
(111.083 0 0)
(111.823 0 0)
(112.573 0 0)
(113.331 0 0)
(114.095 0 0)
(114.865 0 0)
(115.641 0 0)
(116.421 0 0)
(117.205 0 0)
(117.993 0 0)
(118.784 0 0)
(119.577 0 0)
(120.372 0 0)
(121.168 0 0)
(121.969 0 0)
(122.761 0 0)
(123.587 0 0)
(124.307 0 0)
(125.362 0 0)
(254.111 0 0)
(252.618 0 0)
(251.085 0 0)
(249.511 0 0)
(247.893 0 0)
(246.229 0 0)
(244.518 0 0)
(242.757 0 0)
(240.943 0 0)
(239.074 0 0)
(237.146 0 0)
(235.156 0 0)
(233.1 0 0)
(230.974 0 0)
(228.773 0 0)
(226.491 0 0)
(224.121 0 0)
(221.658 0 0)
(219.091 0 0)
(216.412 0 0)
(213.609 0 0)
(210.667 0 0)
(207.571 0 0)
(204.299 0 0)
(200.825 0 0)
(197.116 0 0)
(193.129 0 0)
(188.807 0 0)
(184.066 0 0)
(178.779 0 0)
(172.741 0 0)
(165.688 0 0)
(157.423 0 0)
(148.087 0 0)
(138.329 0 0)
(129.128 0 0)
(121.317 0 0)
(115.256 0 0)
(110.856 0 0)
(107.804 0 0)
(105.754 0 0)
(104.419 0 0)
(103.588 0 0)
(103.116 0 0)
(102.903 0 0)
(102.881 0 0)
(103.003 0 0)
(103.237 0 0)
(103.559 0 0)
(103.952 0 0)
(104.401 0 0)
(104.898 0 0)
(105.435 0 0)
(106.004 0 0)
(106.602 0 0)
(107.225 0 0)
(107.867 0 0)
(108.528 0 0)
(109.205 0 0)
(109.895 0 0)
(110.597 0 0)
(111.309 0 0)
(112.031 0 0)
(112.76 0 0)
(113.497 0 0)
(114.239 0 0)
(114.987 0 0)
(115.74 0 0)
(116.497 0 0)
(117.258 0 0)
(118.022 0 0)
(118.788 0 0)
(119.557 0 0)
(120.326 0 0)
(121.101 0 0)
(121.867 0 0)
(122.666 0 0)
(123.363 0 0)
(124.383 0 0)
(252.383 0 0)
(250.893 0 0)
(249.364 0 0)
(247.794 0 0)
(246.18 0 0)
(244.522 0 0)
(242.817 0 0)
(241.062 0 0)
(239.255 0 0)
(237.394 0 0)
(235.474 0 0)
(233.493 0 0)
(231.446 0 0)
(229.33 0 0)
(227.139 0 0)
(224.868 0 0)
(222.51 0 0)
(220.058 0 0)
(217.504 0 0)
(214.838 0 0)
(212.047 0 0)
(209.118 0 0)
(206.034 0 0)
(202.774 0 0)
(199.311 0 0)
(195.612 0 0)
(191.633 0 0)
(187.313 0 0)
(182.568 0 0)
(177.263 0 0)
(171.192 0 0)
(164.103 0 0)
(155.842 0 0)
(146.604 0 0)
(137.067 0 0)
(128.171 0 0)
(120.671 0 0)
(114.865 0 0)
(110.644 0 0)
(107.701 0 0)
(105.711 0 0)
(104.402 0 0)
(103.577 0 0)
(103.097 0 0)
(102.869 0 0)
(102.826 0 0)
(102.925 0 0)
(103.134 0 0)
(103.429 0 0)
(103.794 0 0)
(104.216 0 0)
(104.685 0 0)
(105.193 0 0)
(105.734 0 0)
(106.304 0 0)
(106.898 0 0)
(107.512 0 0)
(108.145 0 0)
(108.793 0 0)
(109.455 0 0)
(110.13 0 0)
(110.814 0 0)
(111.508 0 0)
(112.211 0 0)
(112.92 0 0)
(113.636 0 0)
(114.357 0 0)
(115.083 0 0)
(115.813 0 0)
(116.548 0 0)
(117.285 0 0)
(118.025 0 0)
(118.768 0 0)
(119.512 0 0)
(120.261 0 0)
(121.001 0 0)
(121.774 0 0)
(122.449 0 0)
(123.434 0 0)
(250.657 0 0)
(249.171 0 0)
(247.646 0 0)
(246.08 0 0)
(244.472 0 0)
(242.82 0 0)
(241.121 0 0)
(239.373 0 0)
(237.574 0 0)
(235.72 0 0)
(233.809 0 0)
(231.837 0 0)
(229.8 0 0)
(227.693 0 0)
(225.513 0 0)
(223.253 0 0)
(220.906 0 0)
(218.466 0 0)
(215.924 0 0)
(213.27 0 0)
(210.492 0 0)
(207.576 0 0)
(204.504 0 0)
(201.255 0 0)
(197.802 0 0)
(194.112 0 0)
(190.138 0 0)
(185.819 0 0)
(181.066 0 0)
(175.74 0 0)
(169.635 0 0)
(162.513 0 0)
(154.264 0 0)
(145.139 0 0)
(135.833 0 0)
(127.242 0 0)
(120.047 0 0)
(114.489 0 0)
(110.439 0 0)
(107.603 0 0)
(105.67 0 0)
(104.387 0 0)
(103.568 0 0)
(103.082 0 0)
(102.839 0 0)
(102.777 0 0)
(102.854 0 0)
(103.038 0 0)
(103.308 0 0)
(103.646 0 0)
(104.041 0 0)
(104.483 0 0)
(104.963 0 0)
(105.477 0 0)
(106.019 0 0)
(106.585 0 0)
(107.172 0 0)
(107.777 0 0)
(108.399 0 0)
(109.034 0 0)
(109.681 0 0)
(110.339 0 0)
(111.006 0 0)
(111.681 0 0)
(112.364 0 0)
(113.054 0 0)
(113.749 0 0)
(114.449 0 0)
(115.153 0 0)
(115.862 0 0)
(116.573 0 0)
(117.288 0 0)
(118.006 0 0)
(118.724 0 0)
(119.448 0 0)
(120.163 0 0)
(120.911 0 0)
(121.564 0 0)
(122.516 0 0)
(248.934 0 0)
(247.452 0 0)
(245.932 0 0)
(244.372 0 0)
(242.769 0 0)
(241.123 0 0)
(239.431 0 0)
(237.69 0 0)
(235.899 0 0)
(234.053 0 0)
(232.151 0 0)
(230.188 0 0)
(228.16 0 0)
(226.064 0 0)
(223.894 0 0)
(221.645 0 0)
(219.31 0 0)
(216.882 0 0)
(214.352 0 0)
(211.71 0 0)
(208.944 0 0)
(206.039 0 0)
(202.979 0 0)
(199.741 0 0)
(196.298 0 0)
(192.614 0 0)
(188.645 0 0)
(184.325 0 0)
(179.562 0 0)
(174.212 0 0)
(168.069 0 0)
(160.918 0 0)
(152.692 0 0)
(143.692 0 0)
(134.626 0 0)
(126.34 0 0)
(119.444 0 0)
(114.125 0 0)
(110.242 0 0)
(107.508 0 0)
(105.632 0 0)
(104.375 0 0)
(103.562 0 0)
(103.07 0 0)
(102.813 0 0)
(102.733 0 0)
(102.789 0 0)
(102.949 0 0)
(103.194 0 0)
(103.507 0 0)
(103.876 0 0)
(104.291 0 0)
(104.745 0 0)
(105.232 0 0)
(105.747 0 0)
(106.287 0 0)
(106.847 0 0)
(107.426 0 0)
(108.02 0 0)
(108.629 0 0)
(109.25 0 0)
(109.881 0 0)
(110.522 0 0)
(111.172 0 0)
(111.829 0 0)
(112.493 0 0)
(113.162 0 0)
(113.837 0 0)
(114.516 0 0)
(115.199 0 0)
(115.886 0 0)
(116.576 0 0)
(117.269 0 0)
(117.963 0 0)
(118.662 0 0)
(119.353 0 0)
(120.075 0 0)
(120.707 0 0)
(121.626 0 0)
(247.215 0 0)
(245.737 0 0)
(244.222 0 0)
(242.668 0 0)
(241.071 0 0)
(239.432 0 0)
(237.747 0 0)
(236.014 0 0)
(234.23 0 0)
(232.393 0 0)
(230.5 0 0)
(228.546 0 0)
(226.529 0 0)
(224.443 0 0)
(222.284 0 0)
(220.045 0 0)
(217.722 0 0)
(215.305 0 0)
(212.787 0 0)
(210.156 0 0)
(207.402 0 0)
(204.509 0 0)
(201.46 0 0)
(198.232 0 0)
(194.797 0 0)
(191.12 0 0)
(187.152 0 0)
(182.829 0 0)
(178.053 0 0)
(172.676 0 0)
(166.495 0 0)
(159.318 0 0)
(151.127 0 0)
(142.267 0 0)
(133.448 0 0)
(125.467 0 0)
(118.862 0 0)
(113.775 0 0)
(110.052 0 0)
(107.417 0 0)
(105.596 0 0)
(104.365 0 0)
(103.558 0 0)
(103.061 0 0)
(102.792 0 0)
(102.695 0 0)
(102.729 0 0)
(102.868 0 0)
(103.089 0 0)
(103.377 0 0)
(103.721 0 0)
(104.11 0 0)
(104.538 0 0)
(104.999 0 0)
(105.488 0 0)
(106.002 0 0)
(106.536 0 0)
(107.089 0 0)
(107.658 0 0)
(108.241 0 0)
(108.836 0 0)
(109.442 0 0)
(110.058 0 0)
(110.682 0 0)
(111.314 0 0)
(111.953 0 0)
(112.597 0 0)
(113.247 0 0)
(113.902 0 0)
(114.56 0 0)
(115.223 0 0)
(115.888 0 0)
(116.557 0 0)
(117.227 0 0)
(117.902 0 0)
(118.57 0 0)
(119.267 0 0)
(119.878 0 0)
(120.765 0 0)
(245.499 0 0)
(244.027 0 0)
(242.517 0 0)
(240.969 0 0)
(239.379 0 0)
(237.747 0 0)
(236.069 0 0)
(234.344 0 0)
(232.569 0 0)
(230.74 0 0)
(228.856 0 0)
(226.912 0 0)
(224.904 0 0)
(222.829 0 0)
(220.68 0 0)
(218.453 0 0)
(216.141 0 0)
(213.735 0 0)
(211.229 0 0)
(208.61 0 0)
(205.867 0 0)
(202.985 0 0)
(199.946 0 0)
(196.727 0 0)
(193.299 0 0)
(189.627 0 0)
(185.66 0 0)
(181.331 0 0)
(176.538 0 0)
(171.131 0 0)
(164.913 0 0)
(157.717 0 0)
(149.571 0 0)
(140.864 0 0)
(132.3 0 0)
(124.623 0 0)
(118.302 0 0)
(113.438 0 0)
(109.869 0 0)
(107.33 0 0)
(105.563 0 0)
(104.356 0 0)
(103.557 0 0)
(103.055 0 0)
(102.774 0 0)
(102.661 0 0)
(102.676 0 0)
(102.793 0 0)
(102.991 0 0)
(103.255 0 0)
(103.575 0 0)
(103.939 0 0)
(104.342 0 0)
(104.778 0 0)
(105.242 0 0)
(105.73 0 0)
(106.239 0 0)
(106.767 0 0)
(107.311 0 0)
(107.868 0 0)
(108.439 0 0)
(109.02 0 0)
(109.611 0 0)
(110.211 0 0)
(110.818 0 0)
(111.433 0 0)
(112.053 0 0)
(112.679 0 0)
(113.309 0 0)
(113.944 0 0)
(114.583 0 0)
(115.224 0 0)
(115.869 0 0)
(116.516 0 0)
(117.167 0 0)
(117.812 0 0)
(118.485 0 0)
(119.076 0 0)
(119.932 0 0)
(243.787 0 0)
(242.321 0 0)
(240.818 0 0)
(239.276 0 0)
(237.693 0 0)
(236.068 0 0)
(234.398 0 0)
(232.681 0 0)
(230.914 0 0)
(229.095 0 0)
(227.22 0 0)
(225.285 0 0)
(223.288 0 0)
(221.223 0 0)
(219.085 0 0)
(216.868 0 0)
(214.567 0 0)
(212.173 0 0)
(209.678 0 0)
(207.07 0 0)
(204.338 0 0)
(201.466 0 0)
(198.436 0 0)
(195.226 0 0)
(191.805 0 0)
(188.135 0 0)
(184.168 0 0)
(179.83 0 0)
(175.018 0 0)
(169.578 0 0)
(163.323 0 0)
(156.114 0 0)
(148.028 0 0)
(139.486 0 0)
(131.183 0 0)
(123.806 0 0)
(117.762 0 0)
(113.113 0 0)
(109.693 0 0)
(107.247 0 0)
(105.531 0 0)
(104.35 0 0)
(103.558 0 0)
(103.053 0 0)
(102.761 0 0)
(102.631 0 0)
(102.628 0 0)
(102.724 0 0)
(102.9 0 0)
(103.142 0 0)
(103.437 0 0)
(103.778 0 0)
(104.157 0 0)
(104.569 0 0)
(105.008 0 0)
(105.472 0 0)
(105.956 0 0)
(106.459 0 0)
(106.979 0 0)
(107.512 0 0)
(108.058 0 0)
(108.615 0 0)
(109.182 0 0)
(109.758 0 0)
(110.342 0 0)
(110.932 0 0)
(111.529 0 0)
(112.131 0 0)
(112.738 0 0)
(113.35 0 0)
(113.965 0 0)
(114.584 0 0)
(115.205 0 0)
(115.829 0 0)
(116.458 0 0)
(117.08 0 0)
(117.73 0 0)
(118.301 0 0)
(119.126 0 0)
(242.081 0 0)
(240.62 0 0)
(239.124 0 0)
(237.589 0 0)
(236.013 0 0)
(234.396 0 0)
(232.734 0 0)
(231.025 0 0)
(229.267 0 0)
(227.457 0 0)
(225.591 0 0)
(223.667 0 0)
(221.679 0 0)
(219.624 0 0)
(217.497 0 0)
(215.291 0 0)
(213.001 0 0)
(210.618 0 0)
(208.133 0 0)
(205.536 0 0)
(202.815 0 0)
(199.953 0 0)
(196.932 0 0)
(193.728 0 0)
(190.312 0 0)
(186.645 0 0)
(182.674 0 0)
(178.325 0 0)
(173.491 0 0)
(168.016 0 0)
(161.725 0 0)
(154.512 0 0)
(146.498 0 0)
(138.135 0 0)
(130.098 0 0)
(123.018 0 0)
(117.242 0 0)
(112.801 0 0)
(109.524 0 0)
(107.167 0 0)
(105.502 0 0)
(104.345 0 0)
(103.561 0 0)
(103.053 0 0)
(102.751 0 0)
(102.606 0 0)
(102.585 0 0)
(102.662 0 0)
(102.817 0 0)
(103.036 0 0)
(103.309 0 0)
(103.627 0 0)
(103.982 0 0)
(104.37 0 0)
(104.786 0 0)
(105.226 0 0)
(105.686 0 0)
(106.166 0 0)
(106.661 0 0)
(107.171 0 0)
(107.693 0 0)
(108.227 0 0)
(108.771 0 0)
(109.323 0 0)
(109.883 0 0)
(110.451 0 0)
(111.024 0 0)
(111.604 0 0)
(112.188 0 0)
(112.777 0 0)
(113.369 0 0)
(113.965 0 0)
(114.565 0 0)
(115.166 0 0)
(115.773 0 0)
(116.373 0 0)
(117 0 0)
(117.551 0 0)
(118.347 0 0)
(240.38 0 0)
(238.926 0 0)
(237.436 0 0)
(235.908 0 0)
(234.34 0 0)
(232.73 0 0)
(231.076 0 0)
(229.376 0 0)
(227.627 0 0)
(225.826 0 0)
(223.97 0 0)
(222.055 0 0)
(220.078 0 0)
(218.033 0 0)
(215.916 0 0)
(213.722 0 0)
(211.442 0 0)
(209.069 0 0)
(206.595 0 0)
(204.009 0 0)
(201.297 0 0)
(198.444 0 0)
(195.431 0 0)
(192.234 0 0)
(188.822 0 0)
(185.154 0 0)
(181.178 0 0)
(176.816 0 0)
(171.956 0 0)
(166.445 0 0)
(160.121 0 0)
(152.912 0 0)
(144.985 0 0)
(136.812 0 0)
(129.046 0 0)
(122.259 0 0)
(116.743 0 0)
(112.502 0 0)
(109.361 0 0)
(107.09 0 0)
(105.474 0 0)
(104.342 0 0)
(103.566 0 0)
(103.055 0 0)
(102.744 0 0)
(102.586 0 0)
(102.548 0 0)
(102.605 0 0)
(102.74 0 0)
(102.938 0 0)
(103.189 0 0)
(103.484 0 0)
(103.817 0 0)
(104.182 0 0)
(104.575 0 0)
(104.992 0 0)
(105.429 0 0)
(105.886 0 0)
(106.358 0 0)
(106.845 0 0)
(107.344 0 0)
(107.855 0 0)
(108.376 0 0)
(108.905 0 0)
(109.443 0 0)
(109.988 0 0)
(110.539 0 0)
(111.096 0 0)
(111.658 0 0)
(112.225 0 0)
(112.795 0 0)
(113.369 0 0)
(113.947 0 0)
(114.527 0 0)
(115.111 0 0)
(115.69 0 0)
(116.295 0 0)
(116.827 0 0)
(117.594 0 0)
(238.684 0 0)
(237.237 0 0)
(235.754 0 0)
(234.234 0 0)
(232.674 0 0)
(231.072 0 0)
(229.427 0 0)
(227.735 0 0)
(225.995 0 0)
(224.203 0 0)
(222.357 0 0)
(220.452 0 0)
(218.484 0 0)
(216.45 0 0)
(214.343 0 0)
(212.159 0 0)
(209.89 0 0)
(207.528 0 0)
(205.064 0 0)
(202.487 0 0)
(199.785 0 0)
(196.94 0 0)
(193.934 0 0)
(190.742 0 0)
(187.332 0 0)
(183.663 0 0)
(179.679 0 0)
(175.301 0 0)
(170.412 0 0)
(164.864 0 0)
(158.511 0 0)
(151.318 0 0)
(143.491 0 0)
(135.519 0 0)
(128.026 0 0)
(121.527 0 0)
(116.263 0 0)
(112.214 0 0)
(109.205 0 0)
(107.017 0 0)
(105.449 0 0)
(104.341 0 0)
(103.574 0 0)
(103.06 0 0)
(102.74 0 0)
(102.569 0 0)
(102.515 0 0)
(102.555 0 0)
(102.67 0 0)
(102.848 0 0)
(103.077 0 0)
(103.351 0 0)
(103.662 0 0)
(104.004 0 0)
(104.375 0 0)
(104.769 0 0)
(105.185 0 0)
(105.619 0 0)
(106.069 0 0)
(106.533 0 0)
(107.01 0 0)
(107.499 0 0)
(107.997 0 0)
(108.505 0 0)
(109.02 0 0)
(109.543 0 0)
(110.073 0 0)
(110.608 0 0)
(111.148 0 0)
(111.693 0 0)
(112.242 0 0)
(112.795 0 0)
(113.351 0 0)
(113.91 0 0)
(114.473 0 0)
(115.031 0 0)
(115.614 0 0)
(116.127 0 0)
(116.867 0 0)
(236.994 0 0)
(235.554 0 0)
(234.079 0 0)
(232.566 0 0)
(231.014 0 0)
(229.421 0 0)
(227.784 0 0)
(226.101 0 0)
(224.37 0 0)
(222.588 0 0)
(220.751 0 0)
(218.856 0 0)
(216.898 0 0)
(214.874 0 0)
(212.778 0 0)
(210.604 0 0)
(208.345 0 0)
(205.993 0 0)
(203.539 0 0)
(200.971 0 0)
(198.277 0 0)
(195.44 0 0)
(192.44 0 0)
(189.252 0 0)
(185.843 0 0)
(182.171 0 0)
(178.177 0 0)
(173.779 0 0)
(168.859 0 0)
(163.274 0 0)
(156.897 0 0)
(149.731 0 0)
(142.019 0 0)
(134.258 0 0)
(127.04 0 0)
(120.823 0 0)
(115.802 0 0)
(111.937 0 0)
(109.055 0 0)
(106.947 0 0)
(105.426 0 0)
(104.341 0 0)
(103.582 0 0)
(103.068 0 0)
(102.74 0 0)
(102.557 0 0)
(102.487 0 0)
(102.509 0 0)
(102.606 0 0)
(102.764 0 0)
(102.973 0 0)
(103.226 0 0)
(103.516 0 0)
(103.837 0 0)
(104.186 0 0)
(104.559 0 0)
(104.952 0 0)
(105.364 0 0)
(105.792 0 0)
(106.235 0 0)
(106.691 0 0)
(107.157 0 0)
(107.634 0 0)
(108.121 0 0)
(108.615 0 0)
(109.116 0 0)
(109.624 0 0)
(110.138 0 0)
(110.658 0 0)
(111.181 0 0)
(111.71 0 0)
(112.241 0 0)
(112.777 0 0)
(113.315 0 0)
(113.857 0 0)
(114.395 0 0)
(114.956 0 0)
(115.452 0 0)
(116.164 0 0)
(235.311 0 0)
(233.878 0 0)
(232.411 0 0)
(230.906 0 0)
(229.362 0 0)
(227.777 0 0)
(226.149 0 0)
(224.475 0 0)
(222.753 0 0)
(220.98 0 0)
(219.153 0 0)
(217.267 0 0)
(215.32 0 0)
(213.306 0 0)
(211.219 0 0)
(209.055 0 0)
(206.806 0 0)
(204.464 0 0)
(202.019 0 0)
(199.46 0 0)
(196.774 0 0)
(193.944 0 0)
(190.949 0 0)
(187.764 0 0)
(184.354 0 0)
(180.676 0 0)
(176.67 0 0)
(172.249 0 0)
(167.297 0 0)
(161.675 0 0)
(155.281 0 0)
(148.153 0 0)
(140.57 0 0)
(133.03 0 0)
(126.088 0 0)
(120.147 0 0)
(115.361 0 0)
(111.672 0 0)
(108.911 0 0)
(106.88 0 0)
(105.404 0 0)
(104.343 0 0)
(103.593 0 0)
(103.078 0 0)
(102.743 0 0)
(102.548 0 0)
(102.464 0 0)
(102.469 0 0)
(102.548 0 0)
(102.687 0 0)
(102.877 0 0)
(103.109 0 0)
(103.379 0 0)
(103.679 0 0)
(104.007 0 0)
(104.359 0 0)
(104.731 0 0)
(105.122 0 0)
(105.529 0 0)
(105.951 0 0)
(106.385 0 0)
(106.831 0 0)
(107.287 0 0)
(107.752 0 0)
(108.226 0 0)
(108.706 0 0)
(109.194 0 0)
(109.687 0 0)
(110.186 0 0)
(110.689 0 0)
(111.197 0 0)
(111.708 0 0)
(112.223 0 0)
(112.741 0 0)
(113.263 0 0)
(113.782 0 0)
(114.322 0 0)
(114.8 0 0)
(115.485 0 0)
(233.635 0 0)
(232.209 0 0)
(230.749 0 0)
(229.253 0 0)
(227.717 0 0)
(226.141 0 0)
(224.521 0 0)
(222.856 0 0)
(221.144 0 0)
(219.38 0 0)
(217.562 0 0)
(215.686 0 0)
(213.749 0 0)
(211.744 0 0)
(209.668 0 0)
(207.513 0 0)
(205.274 0 0)
(202.941 0 0)
(200.505 0 0)
(197.954 0 0)
(195.275 0 0)
(192.451 0 0)
(189.46 0 0)
(186.276 0 0)
(182.864 0 0)
(179.179 0 0)
(175.157 0 0)
(170.712 0 0)
(165.725 0 0)
(160.068 0 0)
(153.664 0 0)
(146.588 0 0)
(139.148 0 0)
(131.837 0 0)
(125.169 0 0)
(119.497 0 0)
(114.938 0 0)
(111.418 0 0)
(108.773 0 0)
(106.817 0 0)
(105.384 0 0)
(104.346 0 0)
(103.605 0 0)
(103.09 0 0)
(102.748 0 0)
(102.542 0 0)
(102.445 0 0)
(102.434 0 0)
(102.496 0 0)
(102.617 0 0)
(102.788 0 0)
(103.001 0 0)
(103.25 0 0)
(103.531 0 0)
(103.838 0 0)
(104.17 0 0)
(104.522 0 0)
(104.892 0 0)
(105.279 0 0)
(105.68 0 0)
(106.094 0 0)
(106.519 0 0)
(106.955 0 0)
(107.4 0 0)
(107.853 0 0)
(108.313 0 0)
(108.781 0 0)
(109.254 0 0)
(109.732 0 0)
(110.216 0 0)
(110.704 0 0)
(111.195 0 0)
(111.691 0 0)
(112.189 0 0)
(112.691 0 0)
(113.19 0 0)
(113.71 0 0)
(114.171 0 0)
(114.83 0 0)
(231.965 0 0)
(230.547 0 0)
(229.095 0 0)
(227.607 0 0)
(226.079 0 0)
(224.512 0 0)
(222.901 0 0)
(221.245 0 0)
(219.542 0 0)
(217.788 0 0)
(215.979 0 0)
(214.113 0 0)
(212.185 0 0)
(210.19 0 0)
(208.123 0 0)
(205.978 0 0)
(203.748 0 0)
(201.424 0 0)
(198.996 0 0)
(196.453 0 0)
(193.78 0 0)
(190.961 0 0)
(187.973 0 0)
(184.788 0 0)
(181.372 0 0)
(177.677 0 0)
(173.638 0 0)
(169.165 0 0)
(164.142 0 0)
(158.453 0 0)
(152.048 0 0)
(145.039 0 0)
(137.755 0 0)
(130.679 0 0)
(124.285 0 0)
(118.875 0 0)
(114.532 0 0)
(111.175 0 0)
(108.641 0 0)
(106.756 0 0)
(105.366 0 0)
(104.351 0 0)
(103.619 0 0)
(103.103 0 0)
(102.756 0 0)
(102.54 0 0)
(102.429 0 0)
(102.404 0 0)
(102.449 0 0)
(102.553 0 0)
(102.705 0 0)
(102.9 0 0)
(103.13 0 0)
(103.391 0 0)
(103.679 0 0)
(103.991 0 0)
(104.323 0 0)
(104.674 0 0)
(105.041 0 0)
(105.422 0 0)
(105.816 0 0)
(106.221 0 0)
(106.637 0 0)
(107.062 0 0)
(107.496 0 0)
(107.936 0 0)
(108.384 0 0)
(108.838 0 0)
(109.297 0 0)
(109.761 0 0)
(110.229 0 0)
(110.702 0 0)
(111.178 0 0)
(111.656 0 0)
(112.14 0 0)
(112.62 0 0)
(113.121 0 0)
(113.565 0 0)
(114.198 0 0)
(230.302 0 0)
(228.892 0 0)
(227.448 0 0)
(225.968 0 0)
(224.449 0 0)
(222.89 0 0)
(221.289 0 0)
(219.642 0 0)
(217.948 0 0)
(216.203 0 0)
(214.404 0 0)
(212.547 0 0)
(210.628 0 0)
(208.643 0 0)
(206.585 0 0)
(204.449 0 0)
(202.227 0 0)
(199.912 0 0)
(197.492 0 0)
(194.955 0 0)
(192.288 0 0)
(189.473 0 0)
(186.486 0 0)
(183.3 0 0)
(179.878 0 0)
(176.171 0 0)
(172.112 0 0)
(167.608 0 0)
(162.549 0 0)
(156.833 0 0)
(150.437 0 0)
(143.508 0 0)
(136.392 0 0)
(129.558 0 0)
(123.434 0 0)
(118.278 0 0)
(114.144 0 0)
(110.942 0 0)
(108.515 0 0)
(106.698 0 0)