/*--------------------------------*- C++ -*----------------------------------*\
| =========                 |                                                 |
| \\      /  F ield         | OpenFOAM: The Open Source CFD Toolbox           |
|  \\    /   O peration     | Version:  2312                                  |
|   \\  /    A nd           | Website:  www.openfoam.com                      |
|    \\/     M anipulation  |                                                 |
\*---------------------------------------------------------------------------*/
FoamFile
{
    version     2.0;
    format      ascii;
    arch        "LSB;label=32;scalar=64";
    class       volScalarField;
    location    "2.1";
    object      wave;
}
// * * * * * * * * * * * * * * * * * * * * * * * * * * * * * * * * * * * * * //

dimensions      [0 0 0 0 0 0 0];

internalField   nonuniform List<scalar> 
100
(
0.820485
0.719855
0.60114
0.467323
0.321766
0.168126
0.0102616
-0.14786
-0.302268
-0.449082
-0.584613
-0.705458
-0.808581
-0.89139
-0.951805
-0.988309
-0.999984
-0.986538
-0.948307
-0.886253
-0.801934
-0.697469
-0.575482
-0.439038
-0.291564
-0.136765
0.0214698
0.179165
0.332359
0.477204
0.61006
0.72759
0.826842
0.905321
0.961057
0.992649
0.999303
0.980853
0.937761
0.871111
0.782576
0.674382
0.549245
0.41031
0.261068
0.105266
-0.0531796
-0.210289
-0.362116
-0.504846
-0.634893
-0.74899
-0.84427
-0.918341
-0.969341
-0.995989
-0.997616
-0.97418
-0.92627
-0.855091
-0.76243
-0.650615
-0.522455
-0.38117
-0.230309
-0.0736616
0.0848358
0.241202
0.391509
0.53198
0.659086
0.769635
0.860849
0.930436
0.976649
0.998326
0.994924
0.966526
0.913847
0.83821
0.741516
0.626193
0.495138
0.351645
0.199318
0.0419829
-0.116407
-0.271872
-0.420507
-0.558578
-0.682616
-0.789505
-0.876561
-0.941595
-0.982974
-0.999659
-0.99123
-0.957899
-0.900504
-0.820486
)
;

boundaryField
{
    movingWall
    {
        type            calculated;
        value           uniform 0;
    }
    fixedWalls
    {
        type            calculated;
        value           uniform 0;
    }
    frontAndBack
    {
        type            empty;
    }
}


// ************************************************************************* //
