/*--------------------------------*- C++ -*----------------------------------*\
| =========                 |                                                 |
| \\      /  F ield         | OpenFOAM: The Open Source CFD Toolbox           |
|  \\    /   O peration     | Version:  2312                                  |
|   \\  /    A nd           | Website:  www.openfoam.com                      |
|    \\/     M anipulation  |                                                 |
\*---------------------------------------------------------------------------*/
FoamFile
{
    version     2.0;
    format      ascii;
    arch        "LSB;label=32;scalar=64";
    class       volVectorField;
    location    "0.206";
    object      U;
}
// * * * * * * * * * * * * * * * * * * * * * * * * * * * * * * * * * * * * * //

dimensions      [0 1 -1 0 0 0 0];

internalField   nonuniform List<vector> 
31205
(
(190.038 0 0)
(192.941 0 0)
(195.767 0 0)
(198.521 0 0)
(201.206 0 0)
(203.825 0 0)
(206.382 0 0)
(208.879 0 0)
(211.319 0 0)
(213.704 0 0)
(216.036 0 0)
(218.318 0 0)
(220.55 0 0)
(222.735 0 0)
(224.874 0 0)
(226.969 0 0)
(229.021 0 0)
(231.032 0 0)
(233.003 0 0)
(234.934 0 0)
(236.827 0 0)
(238.683 0 0)
(240.503 0 0)
(242.287 0 0)
(244.037 0 0)
(245.753 0 0)
(247.436 0 0)
(249.087 0 0)
(250.706 0 0)
(252.294 0 0)
(253.852 0 0)
(255.379 0 0)
(256.877 0 0)
(258.346 0 0)
(259.787 0 0)
(261.199 0 0)
(262.584 0 0)
(263.941 0 0)
(265.272 0 0)
(266.575 0 0)
(267.852 0 0)
(269.103 0 0)
(270.328 0 0)
(271.527 0 0)
(272.701 0 0)
(273.85 0 0)
(274.974 0 0)
(276.072 0 0)
(277.146 0 0)
(278.195 0 0)
(279.22 0 0)
(280.22 0 0)
(281.196 0 0)
(282.148 0 0)
(283.075 0 0)
(283.978 0 0)
(284.857 0 0)
(285.712 0 0)
(286.542 0 0)
(287.348 0 0)
(288.13 0 0)
(288.887 0 0)
(289.62 0 0)
(290.328 0 0)
(291.011 0 0)
(291.669 0 0)
(292.302 0 0)
(292.91 0 0)
(293.492 0 0)
(294.049 0 0)
(294.579 0 0)
(295.083 0 0)
(295.561 0 0)
(296.011 0 0)
(296.434 0 0)
(296.827 0 0)
(297.2 0 0)
(297.515 0 0)
(297.905 0 0)
(193.118 0 0)
(195.856 0 0)
(198.526 0 0)
(201.131 0 0)
(203.674 0 0)
(206.159 0 0)
(208.587 0 0)
(210.962 0 0)
(213.284 0 0)
(215.556 0 0)
(217.78 0 0)
(219.958 0 0)
(222.091 0 0)
(224.18 0 0)
(226.227 0 0)
(228.234 0 0)
(230.201 0 0)
(232.13 0 0)
(234.021 0 0)
(235.876 0 0)
(237.696 0 0)
(239.481 0 0)
(241.233 0 0)
(242.951 0 0)
(244.638 0 0)
(246.292 0 0)
(247.916 0 0)
(249.51 0 0)
(251.074 0 0)
(252.609 0 0)
(254.115 0 0)
(255.594 0 0)
(257.044 0 0)
(258.467 0 0)
(259.864 0 0)
(261.233 0 0)
(262.577 0 0)
(263.895 0 0)
(265.188 0 0)
(266.455 0 0)
(267.697 0 0)
(268.915 0 0)
(270.108 0 0)
(271.277 0 0)
(272.422 0 0)
(273.544 0 0)
(274.641 0 0)
(275.715 0 0)
(276.766 0 0)
(277.793 0 0)
(278.797 0 0)
(279.779 0 0)
(280.737 0 0)
(281.672 0 0)
(282.584 0 0)
(283.474 0 0)
(284.34 0 0)
(285.184 0 0)
(286.005 0 0)
(286.803 0 0)
(287.579 0 0)
(288.331 0 0)
(289.06 0 0)
(289.766 0 0)
(290.449 0 0)
(291.109 0 0)
(291.745 0 0)
(292.357 0 0)
(292.945 0 0)
(293.51 0 0)
(294.05 0 0)
(294.566 0 0)
(295.057 0 0)
(295.522 0 0)
(295.963 0 0)
(296.376 0 0)
(296.772 0 0)
(297.107 0 0)
(297.532 0 0)
(196.159 0 0)
(198.741 0 0)
(201.263 0 0)
(203.727 0 0)
(206.135 0 0)
(208.491 0 0)
(210.796 0 0)
(213.052 0 0)
(215.261 0 0)
(217.425 0 0)
(219.544 0 0)
(221.622 0 0)
(223.658 0 0)
(225.654 0 0)
(227.612 0 0)
(229.533 0 0)
(231.417 0 0)
(233.266 0 0)
(235.08 0 0)
(236.861 0 0)
(238.608 0 0)
(240.324 0 0)
(242.008 0 0)
(243.662 0 0)
(245.286 0 0)
(246.88 0 0)
(248.446 0 0)
(249.983 0 0)
(251.493 0 0)
(252.975 0 0)
(254.431 0 0)
(255.86 0 0)
(257.263 0 0)
(258.641 0 0)
(259.993 0 0)
(261.32 0 0)
(262.623 0 0)
(263.902 0 0)
(265.156 0 0)
(266.387 0 0)
(267.595 0 0)
(268.779 0 0)
(269.94 0 0)
(271.078 0 0)
(272.194 0 0)
(273.287 0 0)
(274.358 0 0)
(275.407 0 0)
(276.433 0 0)
(277.438 0 0)
(278.421 0 0)
(279.382 0 0)
(280.321 0 0)
(281.239 0 0)
(282.135 0 0)
(283.01 0 0)
(283.863 0 0)
(284.694 0 0)
(285.505 0 0)
(286.293 0 0)
(287.06 0 0)
(287.806 0 0)
(288.53 0 0)
(289.232 0 0)
(289.912 0 0)
(290.571 0 0)
(291.207 0 0)
(291.821 0 0)
(292.413 0 0)
(292.983 0 0)
(293.53 0 0)
(294.054 0 0)
(294.555 0 0)
(295.032 0 0)
(295.487 0 0)
(295.915 0 0)
(296.33 0 0)
(296.682 0 0)
(297.137 0 0)
(199.083 0 0)
(201.521 0 0)
(203.904 0 0)
(206.236 0 0)
(208.519 0 0)
(210.754 0 0)
(212.943 0 0)
(215.087 0 0)
(217.189 0 0)
(219.25 0 0)
(221.271 0 0)
(223.253 0 0)
(225.197 0 0)
(227.106 0 0)
(228.978 0 0)
(230.816 0 0)
(232.621 0 0)
(234.393 0 0)
(236.133 0 0)
(237.842 0 0)
(239.521 0 0)
(241.17 0 0)
(242.789 0 0)
(244.381 0 0)
(245.944 0 0)
(247.48 0 0)
(248.989 0 0)
(250.472 0 0)
(251.928 0 0)
(253.359 0 0)
(254.766 0 0)
(256.147 0 0)
(257.504 0 0)
(258.837 0 0)
(260.146 0 0)
(261.432 0 0)
(262.695 0 0)
(263.935 0 0)
(265.152 0 0)
(266.347 0 0)
(267.52 0 0)
(268.671 0 0)
(269.8 0 0)
(270.908 0 0)
(271.995 0 0)
(273.06 0 0)
(274.104 0 0)
(275.127 0 0)
(276.13 0 0)
(277.111 0 0)
(278.072 0 0)
(279.013 0 0)
(279.933 0 0)
(280.833 0 0)
(281.712 0 0)
(282.571 0 0)
(283.41 0 0)
(284.229 0 0)
(285.027 0 0)
(285.805 0 0)
(286.563 0 0)
(287.301 0 0)
(288.018 0 0)
(288.715 0 0)
(289.391 0 0)
(290.047 0 0)
(290.682 0 0)
(291.296 0 0)
(291.89 0 0)
(292.462 0 0)
(293.014 0 0)
(293.544 0 0)
(294.052 0 0)
(294.539 0 0)
(295.005 0 0)
(295.445 0 0)
(295.875 0 0)
(296.241 0 0)
(296.72 0 0)
(201.864 0 0)
(204.168 0 0)
(206.424 0 0)
(208.633 0 0)
(210.798 0 0)
(212.92 0 0)
(215.001 0 0)
(217.041 0 0)
(219.043 0 0)
(221.007 0 0)
(222.934 0 0)
(224.826 0 0)
(226.684 0 0)
(228.508 0 0)
(230.3 0 0)
(232.06 0 0)
(233.79 0 0)
(235.489 0 0)
(237.158 0 0)
(238.799 0 0)
(240.411 0 0)
(241.996 0 0)
(243.554 0 0)
(245.085 0 0)
(246.59 0 0)
(248.07 0 0)
(249.525 0 0)
(250.955 0 0)
(252.36 0 0)
(253.742 0 0)
(255.101 0 0)
(256.436 0 0)
(257.748 0 0)
(259.038 0 0)
(260.305 0 0)
(261.551 0 0)
(262.774 0 0)
(263.977 0 0)
(265.158 0 0)
(266.318 0 0)
(267.457 0 0)
(268.576 0 0)
(269.674 0 0)
(270.752 0 0)
(271.809 0 0)
(272.847 0 0)
(273.865 0 0)
(274.863 0 0)
(275.841 0 0)
(276.8 0 0)
(277.74 0 0)
(278.66 0 0)
(279.561 0 0)
(280.442 0 0)
(281.305 0 0)
(282.148 0 0)
(282.972 0 0)
(283.777 0 0)
(284.563 0 0)
(285.33 0 0)
(286.078 0 0)
(286.807 0 0)
(287.516 0 0)
(288.207 0 0)
(288.878 0 0)
(289.53 0 0)
(290.162 0 0)
(290.775 0 0)
(291.369 0 0)
(291.943 0 0)
(292.497 0 0)
(293.031 0 0)
(293.546 0 0)
(294.039 0 0)
(294.514 0 0)
(294.964 0 0)
(295.406 0 0)
(295.784 0 0)
(296.284 0 0)
(204.5 0 0)
(206.68 0 0)
(208.818 0 0)
(210.913 0 0)
(212.969 0 0)
(214.985 0 0)
(216.964 0 0)
(218.907 0 0)
(220.814 0 0)
(222.687 0 0)
(224.527 0 0)
(226.334 0 0)
(228.11 0 0)
(229.855 0 0)
(231.571 0 0)
(233.257 0 0)
(234.914 0 0)
(236.544 0 0)
(238.146 0 0)
(239.721 0 0)
(241.271 0 0)
(242.795 0 0)
(244.293 0 0)
(245.767 0 0)
(247.217 0 0)
(248.643 0 0)
(250.045 0 0)
(251.424 0 0)
(252.781 0 0)
(254.116 0 0)
(255.428 0 0)
(256.718 0 0)
(257.988 0 0)
(259.236 0 0)
(260.463 0 0)
(261.669 0 0)
(262.855 0 0)
(264.021 0 0)
(265.167 0 0)
(266.293 0 0)
(267.399 0 0)
(268.486 0 0)
(269.554 0 0)
(270.602 0 0)
(271.632 0 0)
(272.643 0 0)
(273.635 0 0)
(274.608 0 0)
(275.563 0 0)
(276.499 0 0)
(277.417 0 0)
(278.317 0 0)
(279.199 0 0)
(280.062 0 0)
(280.907 0 0)
(281.735 0 0)
(282.544 0 0)
(283.335 0 0)
(284.108 0 0)
(284.864 0 0)
(285.601 0 0)
(286.32 0 0)
(287.022 0 0)
(287.705 0 0)
(288.37 0 0)
(289.017 0 0)
(289.646 0 0)
(290.257 0 0)
(290.849 0 0)
(291.423 0 0)
(291.979 0 0)
(292.515 0 0)
(293.034 0 0)
(293.533 0 0)
(294.014 0 0)
(294.472 0 0)
(294.925 0 0)
(295.311 0 0)
(295.829 0 0)
(206.997 0 0)
(209.063 0 0)
(211.09 0 0)
(213.08 0 0)
(215.033 0 0)
(216.951 0 0)
(218.835 0 0)
(220.686 0 0)
(222.505 0 0)
(224.292 0 0)
(226.049 0 0)
(227.777 0 0)
(229.475 0 0)
(231.146 0 0)
(232.788 0 0)
(234.404 0 0)
(235.993 0 0)
(237.557 0 0)
(239.095 0 0)
(240.609 0 0)
(242.098 0 0)
(243.563 0 0)
(245.006 0 0)
(246.425 0 0)
(247.821 0 0)
(249.195 0 0)
(250.548 0 0)
(251.879 0 0)
(253.188 0 0)
(254.477 0 0)
(255.745 0 0)
(256.993 0 0)
(258.22 0 0)
(259.428 0 0)
(260.616 0 0)
(261.785 0 0)
(262.934 0 0)
(264.064 0 0)
(265.176 0 0)
(266.269 0 0)
(267.344 0 0)
(268.4 0 0)
(269.438 0 0)
(270.458 0 0)
(271.46 0 0)
(272.444 0 0)
(273.411 0 0)
(274.36 0 0)
(275.291 0 0)
(276.206 0 0)
(277.102 0 0)
(277.982 0 0)
(278.844 0 0)
(279.69 0 0)
(280.518 0 0)
(281.329 0 0)
(282.123 0 0)
(282.901 0 0)
(283.661 0 0)
(284.404 0 0)
(285.131 0 0)
(285.84 0 0)
(286.533 0 0)
(287.208 0 0)
(287.867 0 0)
(288.508 0 0)
(289.133 0 0)
(289.74 0 0)
(290.33 0 0)
(290.903 0 0)
(291.458 0 0)
(291.997 0 0)
(292.517 0 0)
(293.02 0 0)
(293.506 0 0)
(293.97 0 0)
(294.431 0 0)
(294.825 0 0)
(295.357 0 0)
(209.365 0 0)
(211.324 0 0)
(213.249 0 0)
(215.14 0 0)
(216.998 0 0)
(218.823 0 0)
(220.619 0 0)
(222.383 0 0)
(224.119 0 0)
(225.826 0 0)
(227.505 0 0)
(229.157 0 0)
(230.782 0 0)
(232.381 0 0)
(233.955 0 0)
(235.504 0 0)
(237.029 0 0)
(238.53 0 0)
(240.007 0 0)
(241.462 0 0)
(242.893 0 0)
(244.303 0 0)
(245.691 0 0)
(247.058 0 0)
(248.403 0 0)
(249.728 0 0)
(251.032 0 0)
(252.317 0 0)
(253.581 0 0)
(254.826 0 0)
(256.051 0 0)
(257.257 0 0)
(258.445 0 0)
(259.614 0 0)
(260.764 0 0)
(261.896 0 0)
(263.01 0 0)
(264.107 0 0)
(265.185 0 0)
(266.246 0 0)
(267.29 0 0)
(268.316 0 0)
(269.325 0 0)
(270.317 0 0)
(271.292 0 0)
(272.251 0 0)
(273.193 0 0)
(274.118 0 0)
(275.027 0 0)
(275.919 0 0)
(276.795 0 0)
(277.654 0 0)
(278.498 0 0)
(279.325 0 0)
(280.136 0 0)
(280.932 0 0)
(281.711 0 0)
(282.474 0 0)
(283.221 0 0)
(283.952 0 0)
(284.667 0 0)
(285.366 0 0)
(286.049 0 0)
(286.717 0 0)
(287.368 0 0)
(288.003 0 0)
(288.622 0 0)
(289.225 0 0)
(289.812 0 0)
(290.383 0 0)
(290.937 0 0)
(291.476 0 0)
(291.998 0 0)
(292.503 0 0)
(292.992 0 0)
(293.461 0 0)
(293.928 0 0)
(294.328 0 0)
(294.872 0 0)
(211.612 0 0)
(213.473 0 0)
(215.302 0 0)
(217.1 0 0)
(218.869 0 0)
(220.608 0 0)
(222.32 0 0)
(224.003 0 0)
(225.66 0 0)
(227.291 0 0)
(228.897 0 0)
(230.477 0 0)
(232.033 0 0)
(233.565 0 0)
(235.074 0 0)
(236.559 0 0)
(238.023 0 0)
(239.464 0 0)
(240.883 0 0)
(242.281 0 0)
(243.658 0 0)
(245.015 0 0)
(246.351 0 0)
(247.668 0 0)
(248.964 0 0)
(250.242 0 0)
(251.5 0 0)
(252.739 0 0)
(253.96 0 0)
(255.163 0 0)
(256.347 0 0)
(257.514 0 0)
(258.662 0 0)
(259.794 0 0)
(260.908 0 0)
(262.004 0 0)
(263.084 0 0)
(264.147 0 0)
(265.194 0 0)
(266.224 0 0)
(267.237 0 0)
(268.234 0 0)
(269.215 0 0)
(270.18 0 0)
(271.129 0 0)
(272.062 0 0)
(272.98 0 0)
(273.882 0 0)
(274.768 0 0)
(275.639 0 0)
(276.494 0 0)
(277.334 0 0)
(278.159 0 0)
(278.968 0 0)
(279.762 0 0)
(280.541 0 0)
(281.305 0 0)
(282.054 0 0)
(282.788 0 0)
(283.507 0 0)
(284.21 0 0)
(284.899 0 0)
(285.572 0 0)
(286.231 0 0)
(286.874 0 0)
(287.502 0 0)
(288.116 0 0)
(288.714 0 0)
(289.297 0 0)
(289.864 0 0)
(290.417 0 0)
(290.954 0 0)
(291.476 0 0)
(291.982 0 0)
(292.474 0 0)
(292.945 0 0)
(293.417 0 0)
(293.822 0 0)
(294.375 0 0)
(213.748 0 0)
(215.516 0 0)
(217.256 0 0)
(218.967 0 0)
(220.652 0 0)
(222.31 0 0)
(223.943 0 0)
(225.551 0 0)
(227.134 0 0)
(228.693 0 0)
(230.229 0 0)
(231.741 0 0)
(233.232 0 0)
(234.7 0 0)
(236.147 0 0)
(237.572 0 0)
(238.977 0 0)
(240.361 0 0)
(241.725 0 0)
(243.069 0 0)
(244.394 0 0)
(245.7 0 0)
(246.987 0 0)
(248.255 0 0)
(249.505 0 0)
(250.737 0 0)
(251.951 0 0)
(253.147 0 0)
(254.326 0 0)
(255.488 0 0)
(256.633 0 0)
(257.761 0 0)
(258.873 0 0)
(259.968 0 0)
(261.046 0 0)
(262.109 0 0)
(263.156 0 0)
(264.187 0 0)
(265.202 0 0)
(266.202 0 0)
(267.186 0 0)
(268.155 0 0)
(269.108 0 0)
(270.047 0 0)
(270.97 0 0)
(271.879 0 0)
(272.773 0 0)
(273.652 0 0)
(274.516 0 0)
(275.365 0 0)
(276.2 0 0)
(277.021 0 0)
(277.827 0 0)
(278.619 0 0)
(279.396 0 0)
(280.159 0 0)
(280.908 0 0)
(281.642 0 0)
(282.362 0 0)
(283.068 0 0)
(283.76 0 0)
(284.438 0 0)
(285.101 0 0)
(285.751 0 0)
(286.386 0 0)
(287.007 0 0)
(287.613 0 0)
(288.206 0 0)
(288.784 0 0)
(289.348 0 0)
(289.897 0 0)
(290.432 0 0)
(290.953 0 0)
(291.459 0 0)
(291.952 0 0)
(292.426 0 0)
(292.901 0 0)
(293.308 0 0)
(293.869 0 0)
(215.779 0 0)
(217.461 0 0)
(219.117 0 0)
(220.747 0 0)
(222.353 0 0)
(223.935 0 0)
(225.494 0 0)
(227.03 0 0)
(228.543 0 0)
(230.034 0 0)
(231.504 0 0)
(232.953 0 0)
(234.381 0 0)
(235.788 0 0)
(237.176 0 0)
(238.544 0 0)
(239.893 0 0)
(241.223 0 0)
(242.534 0 0)
(243.827 0 0)
(245.102 0 0)
(246.359 0 0)
(247.599 0 0)
(248.821 0 0)
(250.026 0 0)
(251.214 0 0)
(252.386 0 0)
(253.541 0 0)
(254.68 0 0)
(255.803 0 0)
(256.909 0 0)
(258 0 0)
(259.076 0 0)
(260.136 0 0)
(261.181 0 0)
(262.211 0 0)
(263.225 0 0)
(264.225 0 0)
(265.21 0 0)
(266.18 0 0)
(267.136 0 0)
(268.077 0 0)
(269.004 0 0)
(269.917 0 0)
(270.816 0 0)
(271.7 0 0)
(272.571 0 0)
(273.427 0 0)
(274.27 0 0)
(275.099 0 0)
(275.914 0 0)
(276.715 0 0)
(277.503 0 0)
(278.277 0 0)
(279.037 0 0)
(279.784 0 0)
(280.518 0 0)
(281.238 0 0)
(281.945 0 0)
(282.638 0 0)
(283.318 0 0)
(283.984 0 0)
(284.637 0 0)
(285.277 0 0)
(285.903 0 0)
(286.516 0 0)
(287.116 0 0)
(287.702 0 0)
(288.275 0 0)
(288.834 0 0)
(289.38 0 0)
(289.912 0 0)
(290.431 0 0)
(290.936 0 0)
(291.429 0 0)
(291.903 0 0)
(292.38 0 0)
(292.79 0 0)
(293.355 0 0)
(217.713 0 0)
(219.314 0 0)
(220.891 0 0)
(222.445 0 0)
(223.977 0 0)
(225.487 0 0)
(226.976 0 0)
(228.444 0 0)
(229.891 0 0)
(231.318 0 0)
(232.726 0 0)
(234.113 0 0)
(235.482 0 0)
(236.832 0 0)
(238.164 0 0)
(239.478 0 0)
(240.774 0 0)
(242.052 0 0)
(243.313 0 0)
(244.557 0 0)
(245.784 0 0)
(246.994 0 0)
(248.188 0 0)
(249.367 0 0)
(250.529 0 0)
(251.675 0 0)
(252.806 0 0)
(253.921 0 0)
(255.021 0 0)
(256.106 0 0)
(257.177 0 0)
(258.232 0 0)
(259.273 0 0)
(260.299 0 0)
(261.311 0 0)
(262.309 0 0)
(263.292 0 0)
(264.262 0 0)
(265.218 0 0)
(266.16 0 0)
(267.088 0 0)
(268.002 0 0)
(268.903 0 0)
(269.791 0 0)
(270.665 0 0)
(271.526 0 0)
(272.374 0 0)
(273.208 0 0)
(274.03 0 0)
(274.838 0 0)
(275.634 0 0)
(276.416 0 0)
(277.186 0 0)
(277.942 0 0)
(278.686 0 0)
(279.417 0 0)
(280.136 0 0)
(280.842 0 0)
(281.535 0 0)
(282.215 0 0)
(282.883 0 0)
(283.538 0 0)
(284.18 0 0)
(284.81 0 0)
(285.427 0 0)
(286.032 0 0)
(286.624 0 0)
(287.203 0 0)
(287.77 0 0)
(288.324 0 0)
(288.865 0 0)
(289.394 0 0)
(289.91 0 0)
(290.413 0 0)
(290.905 0 0)
(291.378 0 0)
(291.856 0 0)
(292.267 0 0)
(292.836 0 0)
(219.556 0 0)
(221.081 0 0)
(222.584 0 0)
(224.066 0 0)
(225.529 0 0)
(226.971 0 0)
(228.394 0 0)
(229.797 0 0)
(231.182 0 0)
(232.548 0 0)
(233.896 0 0)
(235.227 0 0)
(236.539 0 0)
(237.835 0 0)
(239.113 0 0)
(240.375 0 0)
(241.62 0 0)
(242.849 0 0)
(244.062 0 0)
(245.259 0 0)
(246.44 0 0)
(247.606 0 0)
(248.757 0 0)
(249.893 0 0)
(251.013 0 0)
(252.12 0 0)
(253.211 0 0)
(254.288 0 0)
(255.351 0 0)
(256.4 0 0)
(257.435 0 0)
(258.456 0 0)
(259.463 0 0)
(260.457 0 0)
(261.437 0 0)
(262.404 0 0)
(263.357 0 0)
(264.298 0 0)
(265.225 0 0)
(266.139 0 0)
(267.041 0 0)
(267.929 0 0)
(268.805 0 0)
(269.668 0 0)
(270.519 0 0)
(271.357 0 0)
(272.182 0 0)
(272.995 0 0)
(273.796 0 0)
(274.584 0 0)
(275.36 0 0)
(276.124 0 0)
(276.876 0 0)
(277.615 0 0)
(278.343 0 0)
(279.058 0 0)
(279.762 0 0)
(280.453 0 0)
(281.132 0 0)
(281.8 0 0)
(282.455 0 0)
(283.099 0 0)
(283.73 0 0)
(284.35 0 0)
(284.958 0 0)
(285.553 0 0)
(286.137 0 0)
(286.71 0 0)
(287.27 0 0)
(287.818 0 0)
(288.354 0 0)
(288.879 0 0)
(289.391 0 0)
(289.891 0 0)
(290.381 0 0)
(290.854 0 0)
(291.331 0 0)
(291.742 0 0)
(292.312 0 0)
(221.312 0 0)
(222.766 0 0)
(224.2 0 0)
(225.615 0 0)
(227.011 0 0)
(228.389 0 0)
(229.75 0 0)
(231.093 0 0)
(232.418 0 0)
(233.727 0 0)
(235.019 0 0)
(236.294 0 0)
(237.553 0 0)
(238.797 0 0)
(240.024 0 0)
(241.237 0 0)
(242.433 0 0)
(243.615 0 0)
(244.782 0 0)
(245.934 0 0)
(247.072 0 0)
(248.195 0 0)
(249.305 0 0)
(250.4 0 0)
(251.481 0 0)
(252.549 0 0)
(253.602 0 0)
(254.643 0 0)
(255.67 0 0)
(256.684 0 0)
(257.685 0 0)
(258.673 0 0)
(259.648 0 0)
(260.61 0 0)
(261.559 0 0)
(262.496 0 0)
(263.421 0 0)
(264.333 0 0)
(265.232 0 0)
(266.12 0 0)
(266.995 0 0)
(267.858 0 0)
(268.71 0 0)
(269.549 0 0)
(270.376 0 0)
(271.192 0 0)
(271.996 0 0)
(272.788 0 0)
(273.568 0 0)
(274.337 0 0)
(275.094 0 0)
(275.839 0 0)
(276.573 0 0)
(277.296 0 0)
(278.007 0 0)
(278.707 0 0)
(279.395 0 0)
(280.072 0 0)
(280.738 0 0)
(281.392 0 0)
(282.035 0 0)
(282.667 0 0)
(283.288 0 0)
(283.897 0 0)
(284.495 0 0)
(285.082 0 0)
(285.657 0 0)
(286.222 0 0)
(286.775 0 0)
(287.317 0 0)
(287.848 0 0)
(288.367 0 0)
(288.876 0 0)
(289.372 0 0)
(289.859 0 0)
(290.329 0 0)
(290.806 0 0)
(291.216 0 0)
(291.786 0 0)
(222.989 0 0)
(224.375 0 0)
(225.743 0 0)
(227.095 0 0)
(228.429 0 0)
(229.747 0 0)
(231.048 0 0)
(232.333 0 0)
(233.603 0 0)
(234.857 0 0)
(236.095 0 0)
(237.319 0 0)
(238.527 0 0)
(239.721 0 0)
(240.9 0 0)
(242.065 0 0)
(243.216 0 0)
(244.353 0 0)
(245.476 0 0)
(246.585 0 0)
(247.681 0 0)
(248.763 0 0)
(249.833 0 0)
(250.889 0 0)
(251.932 0 0)
(252.963 0 0)
(253.98 0 0)
(254.985 0 0)
(255.978 0 0)
(256.958 0 0)
(257.926 0 0)
(258.882 0 0)
(259.826 0 0)
(260.758 0 0)
(261.678 0 0)
(262.586 0 0)
(263.482 0 0)
(264.366 0 0)
(265.24 0 0)
(266.101 0 0)
(266.951 0 0)
(267.79 0 0)
(268.617 0 0)
(269.433 0 0)
(270.238 0 0)
(271.031 0 0)
(271.814 0 0)
(272.585 0 0)
(273.346 0 0)
(274.095 0 0)
(274.833 0 0)
(275.561 0 0)
(276.278 0 0)
(276.983 0 0)
(277.678 0 0)
(278.363 0 0)
(279.036 0 0)
(279.699 0 0)
(280.351 0 0)
(280.992 0 0)
(281.623 0 0)
(282.243 0 0)
(282.852 0 0)
(283.451 0 0)
(284.039 0 0)
(284.617 0 0)
(285.184 0 0)
(285.74 0 0)
(286.286 0 0)
(286.821 0 0)
(287.346 0 0)
(287.86 0 0)
(288.364 0 0)
(288.856 0 0)
(289.339 0 0)
(289.807 0 0)
(290.281 0 0)
(290.69 0 0)
(291.259 0 0)
(224.589 0 0)
(225.912 0 0)
(227.219 0 0)
(228.51 0 0)
(229.785 0 0)
(231.046 0 0)
(232.291 0 0)
(233.522 0 0)
(234.738 0 0)
(235.94 0 0)
(237.128 0 0)
(238.302 0 0)
(239.462 0 0)
(240.609 0 0)
(241.742 0 0)
(242.862 0 0)
(243.969 0 0)
(245.062 0 0)
(246.143 0 0)
(247.212 0 0)
(248.268 0 0)
(249.311 0 0)
(250.342 0 0)
(251.361 0 0)
(252.368 0 0)
(253.362 0 0)
(254.345 0 0)
(255.316 0 0)
(256.276 0 0)
(257.224 0 0)
(258.16 0 0)
(259.085 0 0)
(259.999 0 0)
(260.901 0 0)
(261.792 0 0)
(262.672 0 0)
(263.541 0 0)
(264.399 0 0)
(265.246 0 0)
(266.083 0 0)
(266.908 0 0)
(267.723 0 0)
(268.527 0 0)
(269.32 0 0)
(270.103 0 0)
(270.875 0 0)
(271.637 0 0)
(272.388 0 0)
(273.129 0 0)
(273.86 0 0)
(274.58 0 0)
(275.29 0 0)
(275.989 0 0)
(276.678 0 0)
(277.357 0 0)
(278.026 0 0)
(278.685 0 0)
(279.334 0 0)
(279.972 0 0)
(280.6 0 0)
(281.219 0 0)
(281.827 0 0)
(282.425 0 0)
(283.013 0 0)
(283.591 0 0)
(284.159 0 0)
(284.717 0 0)
(285.265 0 0)
(285.803 0 0)
(286.331 0 0)
(286.849 0 0)
(287.358 0 0)
(287.856 0 0)
(288.343 0 0)
(288.823 0 0)
(289.287 0 0)
(289.758 0 0)
(290.165 0 0)
(290.732 0 0)
(226.118 0 0)
(227.381 0 0)
(228.629 0 0)
(229.864 0 0)
(231.084 0 0)
(232.29 0 0)
(233.483 0 0)
(234.662 0 0)
(235.827 0 0)
(236.98 0 0)
(238.12 0 0)
(239.246 0 0)
(240.361 0 0)
(241.462 0 0)
(242.551 0 0)
(243.628 0 0)
(244.693 0 0)
(245.746 0 0)
(246.786 0 0)
(247.815 0 0)
(248.833 0 0)
(249.839 0 0)
(250.833 0 0)
(251.816 0 0)
(252.788 0 0)
(253.748 0 0)
(254.698 0 0)
(255.636 0 0)
(256.564 0 0)
(257.48 0 0)
(258.386 0 0)
(259.281 0 0)
(260.166 0 0)
(261.04 0 0)
(261.903 0 0)
(262.756 0 0)
(263.599 0 0)
(264.431 0 0)
(265.253 0 0)
(266.065 0 0)
(266.866 0 0)
(267.658 0 0)
(268.439 0 0)
(269.211 0 0)
(269.972 0 0)
(270.723 0 0)
(271.465 0 0)
(272.196 0 0)
(272.918 0 0)
(273.63 0 0)
(274.332 0 0)
(275.025 0 0)
(275.707 0 0)
(276.38 0 0)
(277.044 0 0)
(277.697 0 0)
(278.342 0 0)
(278.976 0 0)
(279.601 0 0)
(280.216 0 0)
(280.822 0 0)
(281.418 0 0)
(282.005 0 0)
(282.583 0 0)
(283.15 0 0)
(283.709 0 0)
(284.258 0 0)
(284.797 0 0)
(285.327 0 0)
(285.848 0 0)
(286.359 0 0)
(286.86 0 0)
(287.353 0 0)
(287.835 0 0)
(288.31 0 0)
(288.77 0 0)
(289.237 0 0)
(289.641 0 0)
(290.205 0 0)
(227.579 0 0)
(228.786 0 0)
(229.979 0 0)
(231.16 0 0)
(232.327 0 0)
(233.482 0 0)
(234.625 0 0)
(235.755 0 0)
(236.872 0 0)
(237.978 0 0)
(239.072 0 0)
(240.154 0 0)
(241.224 0 0)
(242.282 0 0)
(243.33 0 0)
(244.365 0 0)
(245.39 0 0)
(246.403 0 0)
(247.406 0 0)
(248.397 0 0)
(249.378 0 0)
(250.348 0 0)
(251.307 0 0)
(252.255 0 0)
(253.193 0 0)
(254.121 0 0)
(255.038 0 0)
(255.945 0 0)
(256.842 0 0)
(257.728 0 0)
(258.605 0 0)
(259.471 0 0)
(260.328 0 0)
(261.174 0 0)
(262.011 0 0)
(262.838 0 0)
(263.655 0 0)
(264.462 0 0)
(265.26 0 0)
(266.048 0 0)
(266.826 0 0)
(267.595 0 0)
(268.354 0 0)
(269.104 0 0)
(269.845 0 0)
(270.576 0 0)
(271.297 0 0)
(272.01 0 0)
(272.713 0 0)
(273.407 0 0)
(274.091 0 0)
(274.766 0 0)
(275.433 0 0)
(276.09 0 0)
(276.737 0 0)
(277.376 0 0)
(278.006 0 0)
(278.626 0 0)
(279.238 0 0)
(279.84 0 0)
(280.434 0 0)
(281.018 0 0)
(281.593 0 0)
(282.16 0 0)
(282.717 0 0)
(283.266 0 0)
(283.805 0 0)
(284.336 0 0)
(284.858 0 0)
(285.37 0 0)
(285.874 0 0)
(286.369 0 0)
(286.855 0 0)
(287.332 0 0)
(287.802 0 0)
(288.257 0 0)
(288.72 0 0)
(289.121 0 0)
(289.681 0 0)
(228.977 0 0)
(230.13 0 0)
(231.272 0 0)
(232.401 0 0)
(233.519 0 0)
(234.625 0 0)
(235.72 0 0)
(236.803 0 0)
(237.875 0 0)
(238.936 0 0)
(239.986 0 0)
(241.025 0 0)
(242.054 0 0)
(243.071 0 0)
(244.078 0 0)
(245.075 0 0)
(246.061 0 0)
(247.037 0 0)
(248.002 0 0)
(248.958 0 0)
(249.903 0 0)
(250.838 0 0)
(251.764 0 0)
(252.679 0 0)
(253.585 0 0)
(254.481 0 0)
(255.367 0 0)
(256.244 0 0)
(257.111 0 0)
(257.968 0 0)
(258.816 0 0)
(259.655 0 0)
(260.484 0 0)
(261.304 0 0)
(262.115 0 0)
(262.916 0 0)
(263.709 0 0)
(264.492 0 0)
(265.266 0 0)
(266.031 0 0)
(266.787 0 0)
(267.534 0 0)
(268.272 0 0)
(269.001 0 0)
(269.721 0 0)
(270.432 0 0)
(271.134 0 0)
(271.828 0 0)
(272.513 0 0)
(273.189 0 0)
(273.856 0 0)
(274.514 0 0)
(275.164 0 0)
(275.806 0 0)
(276.438 0 0)
(277.062 0 0)
(277.677 0 0)
(278.284 0 0)
(278.882 0 0)
(279.472 0 0)
(280.053 0 0)
(280.625 0 0)
(281.189 0 0)
(281.745 0 0)
(282.292 0 0)
(282.83 0 0)
(283.36 0 0)
(283.882 0 0)
(284.395 0 0)
(284.9 0 0)
(285.396 0 0)
(285.884 0 0)
(286.363 0 0)
(286.834 0 0)
(287.298 0 0)
(287.748 0 0)
(288.207 0 0)
(288.604 0 0)
(289.159 0 0)
(230.314 0 0)
(231.417 0 0)
(232.509 0 0)
(233.59 0 0)
(234.661 0 0)
(235.721 0 0)
(236.77 0 0)
(237.809 0 0)
(238.838 0 0)
(239.856 0 0)
(240.865 0 0)
(241.863 0 0)
(242.851 0 0)
(243.83 0 0)
(244.799 0 0)
(245.758 0 0)
(246.707 0 0)
(247.647 0 0)
(248.577 0 0)
(249.498 0 0)
(250.41 0 0)
(251.312 0 0)
(252.205 0 0)
(253.088 0 0)
(253.963 0 0)
(254.829 0 0)
(255.685 0 0)
(256.532 0 0)
(257.371 0 0)
(258.2 0 0)
(259.021 0 0)
(259.833 0 0)
(260.636 0 0)
(261.43 0 0)
(262.216 0 0)
(262.993 0 0)
(263.761 0 0)
(264.521 0 0)
(265.272 0 0)
(266.015 0 0)
(266.749 0 0)
(267.474 0 0)
(268.191 0 0)
(268.9 0 0)
(269.6 0 0)
(270.292 0 0)
(270.976 0 0)
(271.651 0 0)
(272.318 0 0)
(272.976 0 0)
(273.627 0 0)
(274.269 0 0)
(274.903 0 0)
(275.528 0 0)
(276.146 0 0)
(276.755 0 0)
(277.356 0 0)
(277.949 0 0)
(278.534 0 0)
(279.111 0 0)
(279.68 0 0)
(280.24 0 0)
(280.793 0 0)
(281.337 0 0)
(281.874 0 0)
(282.402 0 0)
(282.923 0 0)
(283.435 0 0)
(283.94 0 0)
(284.436 0 0)
(284.925 0 0)
(285.405 0 0)
(285.878 0 0)
(286.342 0 0)
(286.8 0 0)
(287.245 0 0)
(287.698 0 0)
(288.091 0 0)
(288.641 0 0)
(231.594 0 0)
(232.65 0 0)
(233.695 0 0)
(234.731 0 0)
(235.756 0 0)
(236.772 0 0)
(237.778 0 0)
(238.775 0 0)
(239.762 0 0)
(240.74 0 0)
(241.709 0 0)
(242.668 0 0)
(243.619 0 0)
(244.56 0 0)
(245.492 0 0)
(246.415 0 0)
(247.329 0 0)
(248.235 0 0)
(249.131 0 0)
(250.019 0 0)
(250.898 0 0)
(251.769 0 0)
(252.63 0 0)
(253.484 0 0)
(254.328 0 0)
(255.164 0 0)
(255.992 0 0)
(256.811 0 0)
(257.622 0 0)
(258.425 0 0)
(259.219 0 0)
(260.005 0 0)
(260.783 0 0)
(261.552 0 0)
(262.314 0 0)
(263.067 0 0)
(263.812 0 0)
(264.549 0 0)
(265.278 0 0)
(265.999 0 0)
(266.712 0 0)
(267.416 0 0)
(268.113 0 0)
(268.802 0 0)
(269.483 0 0)
(270.156 0 0)
(270.821 0 0)
(271.479 0 0)
(272.128 0 0)
(272.77 0 0)
(273.403 0 0)
(274.029 0 0)
(274.647 0 0)
(275.258 0 0)
(275.861 0 0)
(276.455 0 0)
(277.043 0 0)
(277.622 0 0)
(278.194 0 0)
(278.758 0 0)
(279.315 0 0)
(279.863 0 0)
(280.405 0 0)
(280.938 0 0)
(281.464 0 0)
(281.982 0 0)
(282.493 0 0)
(282.996 0 0)
(283.492 0 0)
(283.98 0 0)
(284.46 0 0)
(284.933 0 0)
(285.399 0 0)
(285.856 0 0)
(286.308 0 0)
(286.747 0 0)
(287.195 0 0)
(287.583 0 0)
(288.126 0 0)
(232.821 0 0)
(233.831 0 0)
(234.832 0 0)
(235.824 0 0)
(236.807 0 0)
(237.781 0 0)
(238.746 0 0)
(239.703 0 0)
(240.651 0 0)
(241.59 0 0)
(242.521 0 0)
(243.443 0 0)
(244.357 0 0)
(245.262 0 0)
(246.159 0 0)
(247.048 0 0)
(247.929 0 0)
(248.801 0 0)
(249.665 0 0)
(250.521 0 0)
(251.369 0 0)
(252.209 0 0)
(253.041 0 0)
(253.865 0 0)
(254.681 0 0)
(255.489 0 0)
(256.289 0 0)
(257.081 0 0)
(257.866 0 0)
(258.642 0 0)
(259.411 0 0)
(260.172 0 0)
(260.925 0 0)
(261.671 0 0)
(262.409 0 0)
(263.139 0 0)
(263.861 0 0)
(264.576 0 0)
(265.284 0 0)
(265.984 0 0)
(266.676 0 0)
(267.36 0 0)
(268.038 0 0)
(268.707 0 0)
(269.369 0 0)
(270.024 0 0)
(270.671 0 0)
(271.311 0 0)
(271.943 0 0)
(272.568 0 0)
(273.186 0 0)
(273.796 0 0)
(274.399 0 0)
(274.994 0 0)
(275.582 0 0)
(276.163 0 0)
(276.736 0 0)
(277.303 0 0)
(277.861 0 0)
(278.413 0 0)
(278.957 0 0)
(279.494 0 0)
(280.024 0 0)
(280.547 0 0)
(281.062 0 0)
(281.57 0 0)
(282.071 0 0)
(282.565 0 0)
(283.052 0 0)
(283.531 0 0)
(284.003 0 0)
(284.468 0 0)
(284.926 0 0)
(285.377 0 0)
(285.822 0 0)
(286.255 0 0)
(286.696 0 0)
(287.08 0 0)
(287.616 0 0)
(233.996 0 0)
(234.963 0 0)
(235.922 0 0)
(236.873 0 0)
(237.815 0 0)
(238.749 0 0)
(239.676 0 0)
(240.594 0 0)
(241.504 0 0)
(242.407 0 0)
(243.301 0 0)
(244.188 0 0)
(245.067 0 0)
(245.939 0 0)
(246.802 0 0)
(247.658 0 0)
(248.506 0 0)
(249.347 0 0)
(250.18 0 0)
(251.006 0 0)
(251.824 0 0)
(252.634 0 0)
(253.438 0 0)
(254.233 0 0)
(255.021 0 0)
(255.802 0 0)
(256.576 0 0)
(257.342 0 0)
(258.101 0 0)
(258.852 0 0)
(259.596 0 0)
(260.333 0 0)
(261.063 0 0)
(261.785 0 0)
(262.501 0 0)
(263.208 0 0)
(263.909 0 0)
(264.603 0 0)
(265.289 0 0)
(265.969 0 0)
(266.641 0 0)
(267.306 0 0)
(267.964 0 0)
(268.615 0 0)
(269.259 0 0)
(269.895 0 0)
(270.525 0 0)
(271.148 0 0)
(271.763 0 0)
(272.372 0 0)
(272.974 0 0)
(273.568 0 0)
(274.156 0 0)
(274.737 0 0)
(275.311 0 0)
(275.877 0 0)
(276.437 0 0)
(276.99 0 0)
(277.536 0 0)
(278.075 0 0)
(278.608 0 0)
(279.133 0 0)
(279.651 0 0)
(280.163 0 0)
(280.668 0 0)
(281.166 0 0)
(281.657 0 0)
(282.141 0 0)
(282.619 0 0)
(283.09 0 0)
(283.554 0 0)
(284.011 0 0)
(284.461 0 0)
(284.904 0 0)
(285.343 0 0)
(285.769 0 0)
(286.204 0 0)
(286.583 0 0)
(287.112 0 0)
(235.122 0 0)
(236.049 0 0)
(236.968 0 0)
(237.879 0 0)
(238.783 0 0)
(239.679 0 0)
(240.568 0 0)
(241.45 0 0)
(242.325 0 0)
(243.192 0 0)
(244.052 0 0)
(244.905 0 0)
(245.751 0 0)
(246.59 0 0)
(247.421 0 0)
(248.246 0 0)
(249.063 0 0)
(249.873 0 0)
(250.677 0 0)
(251.473 0 0)
(252.263 0 0)
(253.045 0 0)
(253.82 0 0)
(254.589 0 0)
(255.351 0 0)
(256.105 0 0)
(256.853 0 0)
(257.594 0 0)
(258.328 0 0)
(259.055 0 0)
(259.776 0 0)
(260.489 0 0)
(261.196 0 0)
(261.896 0 0)
(262.59 0 0)
(263.276 0 0)
(263.956 0 0)
(264.629 0 0)
(265.295 0 0)
(265.954 0 0)
(266.607 0 0)
(267.253 0 0)
(267.893 0 0)
(268.525 0 0)
(269.151 0 0)
(269.77 0 0)
(270.383 0 0)
(270.989 0 0)
(271.588 0 0)
(272.181 0 0)
(272.767 0 0)
(273.347 0 0)
(273.92 0 0)
(274.486 0 0)
(275.046 0 0)
(275.599 0 0)
(276.145 0 0)
(276.685 0 0)
(277.218 0 0)
(277.745 0 0)
(278.266 0 0)
(278.779 0 0)
(279.287 0 0)
(279.787 0 0)
(280.282 0 0)
(280.77 0 0)
(281.251 0 0)
(281.726 0 0)
(282.194 0 0)
(282.656 0 0)
(283.111 0 0)
(283.56 0 0)
(284.003 0 0)
(284.439 0 0)
(284.87 0 0)
(285.29 0 0)
(285.719 0 0)
(286.092 0 0)
(286.613 0 0)
(236.203 0 0)
(237.091 0 0)
(237.971 0 0)
(238.845 0 0)
(239.712 0 0)
(240.573 0 0)
(241.426 0 0)
(242.274 0 0)
(243.114 0 0)
(243.948 0 0)
(244.775 0 0)
(245.595 0 0)
(246.409 0 0)
(247.217 0 0)
(248.018 0 0)
(248.812 0 0)
(249.6 0 0)
(250.381 0 0)
(251.156 0 0)
(251.924 0 0)
(252.686 0 0)
(253.441 0 0)
(254.19 0 0)
(254.932 0 0)
(255.668 0 0)
(256.398 0 0)
(257.121 0 0)
(257.838 0 0)
(258.548 0 0)
(259.252 0 0)
(259.95 0 0)
(260.641 0 0)
(261.325 0 0)
(262.004 0 0)
(262.676 0 0)
(263.341 0 0)
(264.001 0 0)
(264.654 0 0)
(265.3 0 0)
(265.94 0 0)
(266.574 0 0)
(267.202 0 0)
(267.823 0 0)
(268.438 0 0)
(269.047 0 0)
(269.649 0 0)
(270.245 0 0)
(270.835 0 0)
(271.418 0 0)
(271.995 0 0)
(272.566 0 0)
(273.131 0 0)
(273.689 0 0)
(274.241 0 0)
(274.787 0 0)
(275.327 0 0)
(275.86 0 0)
(276.387 0 0)
(276.908 0 0)
(277.423 0 0)
(277.931 0 0)
(278.434 0 0)
(278.93 0 0)
(279.42 0 0)
(279.903 0 0)
(280.381 0 0)
(280.853 0 0)
(281.318 0 0)
(281.777 0 0)
(282.23 0 0)
(282.677 0 0)
(283.118 0 0)
(283.553 0 0)
(283.981 0 0)
(284.405 0 0)
(284.817 0 0)
(285.24 0 0)
(285.607 0 0)
(286.12 0 0)
(237.239 0 0)
(238.09 0 0)
(238.935 0 0)
(239.773 0 0)
(240.605 0 0)
(241.431 0 0)
(242.251 0 0)
(243.065 0 0)
(243.873 0 0)
(244.675 0 0)
(245.47 0 0)
(246.26 0 0)
(247.043 0 0)
(247.821 0 0)
(248.592 0 0)
(249.358 0 0)
(250.117 0 0)
(250.87 0 0)
(251.618 0 0)
(252.359 0 0)
(253.094 0 0)
(253.824 0 0)
(254.547 0 0)
(255.264 0 0)
(255.976 0 0)
(256.681 0 0)
(257.38 0 0)
(258.074 0 0)
(258.761 0 0)
(259.442 0 0)
(260.118 0 0)
(260.787 0 0)
(261.451 0 0)
(262.108 0 0)
(262.759 0 0)
(263.405 0 0)
(264.044 0 0)
(264.678 0 0)
(265.305 0 0)
(265.927 0 0)
(266.542 0 0)
(267.152 0 0)
(267.756 0 0)
(268.353 0 0)
(268.945 0 0)
(269.531 0 0)
(270.111 0 0)
(270.685 0 0)
(271.252 0 0)
(271.814 0 0)
(272.37 0 0)
(272.92 0 0)
(273.465 0 0)
(274.003 0 0)
(274.535 0 0)
(275.061 0 0)
(275.582 0 0)
(276.096 0 0)
(276.605 0 0)
(277.108 0 0)
(277.605 0 0)
(278.095 0 0)
(278.581 0 0)
(279.06 0 0)
(279.533 0 0)
(280.001 0 0)
(280.462 0 0)
(280.918 0 0)
(281.368 0 0)
(281.812 0 0)
(282.25 0 0)
(282.683 0 0)
(283.11 0 0)
(283.53 0 0)
(283.947 0 0)
(284.352 0 0)
(284.767 0 0)
(285.13 0 0)
(285.634 0 0)
(238.234 0 0)
(239.05 0 0)
(239.86 0 0)
(240.665 0 0)
(241.463 0 0)
(242.257 0 0)
(243.044 0 0)
(243.826 0 0)
(244.603 0 0)
(245.374 0 0)
(246.14 0 0)
(246.9 0 0)
(247.654 0 0)
(248.403 0 0)
(249.146 0 0)
(249.884 0 0)
(250.616 0 0)
(251.342 0 0)
(252.063 0 0)
(252.779 0 0)
(253.489 0 0)
(254.193 0 0)
(254.892 0 0)
(255.585 0 0)
(256.273 0 0)
(256.955 0 0)
(257.631 0 0)
(258.302 0 0)
(258.967 0 0)
(259.627 0 0)
(260.281 0 0)
(260.929 0 0)
(261.572 0 0)
(262.209 0 0)
(262.84 0 0)
(263.466 0 0)
(264.087 0 0)
(264.701 0 0)
(265.31 0 0)
(265.914 0 0)
(266.512 0 0)
(267.104 0 0)