/*--------------------------------*- C++ -*----------------------------------*\
| =========                 |                                                 |
| \\      /  F ield         | OpenFOAM: The Open Source CFD Toolbox           |
|  \\    /   O peration     | Version:  2312                                  |
|   \\  /    A nd           | Website:  www.openfoam.com                      |
|    \\/     M anipulation  |                                                 |
\*---------------------------------------------------------------------------*/
FoamFile
{
    version     2.0;
    format      ascii;
    arch        "LSB;label=32;scalar=64";
    class       surfaceScalarField;
    location    "0.089";
    object      phi;
}
// * * * * * * * * * * * * * * * * * * * * * * * * * * * * * * * * * * * * * //

dimensions      [0 3 -1 0 0 0 0];

oriented        oriented;

internalField   nonuniform List<scalar> 
62015
(
31.6298
0.166227
-31.059
32.2016
0.166577
32.7704
0.166708
33.3335
0.166603
33.8891
0.166249
34.4359
0.165637
34.9733
0.16476
35.5006
0.163616
36.0179
0.162202
36.5252
0.160518
37.0226
0.158563
37.5105
0.15634
37.9892
0.153851
38.4592
0.151097
38.9209
0.148082
39.375
0.144808
39.8218
0.14128
40.2619
0.137501
40.696
0.133475
41.1244
0.129206
41.5477
0.124698
41.9665
0.119956
42.3813
0.114984
42.7925
0.109786
43.2008
0.104368
43.6064
0.0987335
44.01
0.0928879
44.412
0.0868359
44.8129
0.0805827
45.213
0.0741332
45.6127
0.0674926
46.0126
0.0606656
46.4129
0.0536584
46.8142
0.0464753
47.2166
0.0391226
47.6206
0.0316049
48.0266
0.0239286
48.4348
0.0160983
48.8456
0.00812021
49.2593
0
49.6762
-0.00825691
50.0965
-0.0166439
50.5205
-0.0251566
50.9485
-0.0337875
51.3807
-0.042532
51.8174
-0.0513831
52.2588
-0.0603356
52.705
-0.0693825
53.1563
-0.0785189
53.6129
-0.0877376
54.075
-0.0970327
54.5427
-0.106398
55.0161
-0.115828
55.4955
-0.125315
55.981
-0.134854
56.4726
-0.144438
56.9705
-0.154061
57.4748
-0.163716
57.9856
-0.173398
58.503
-0.183098
59.027
-0.192813
59.5577
-0.202535
60.0952
-0.212257
60.6395
-0.221973
61.1906
-0.231677
61.7486
-0.241363
62.3134
-0.251023
62.8851
-0.260653
63.4637
-0.270245
64.0491
-0.279792
64.6413
-0.28929
65.2403
-0.298731
65.8459
-0.30811
66.4586
-0.317419
67.0765
-0.326658
67.7053
-0.335796
68.3269
-0.344912
68.9971
-0.35373
-0.363091
69.5433
31.321
0.334484
-30.786
31.8545
0.334841
32.3829
0.334748
32.9045
0.33418
33.4181
0.333119
33.923
0.331552
34.4187
0.329472
34.905
0.326874
35.3821
0.323757
35.8499
0.320119
36.3088
0.315963
36.7592
0.311291
37.2014
0.306109
37.6358
0.30042
38.0629
0.29423
38.4833
0.287546
38.8973
0.280374
39.3055
0.272721
39.7084
0.264595
40.1065
0.256002
40.5003
0.246952
40.8902
0.237452
41.2768
0.227511
41.6604
0.217137
42.0416
0.20634
42.4209
0.195128
42.7985
0.183509
43.1751
0.171495
43.5509
0.159093
43.9264
0.146315
44.3019
0.133169
44.6779
0.119665
45.0547
0.105814
45.4327
0.0916259
45.8121
0.0771106
46.1934
0.0622787
46.5769
0.0471409
46.9627
0.0317079
47.3514
0.0159908
47.743
0
48.138
-0.0162531
48.5365
-0.0327573
48.9388
-0.0495017
49.3452
-0.0664747
49.7559
-0.0836643
50.1711
-0.10106
50.5909
-0.118649
51.0157
-0.136421
51.4455
-0.154363
51.8807
-0.172463
52.3212
-0.190709
52.7674
-0.209091
53.2192
-0.227594
53.677
-0.246208
54.1407
-0.26492
54.6105
-0.283717
55.0866
-0.302589
55.5689
-0.321521
56.0577
-0.340502
56.553
-0.35952
57.0547
-0.378562
57.5631
-0.397616
58.0782
-0.416669
58.5999
-0.435709
59.1283
-0.454724
59.6635
-0.473701
60.2054
-0.492629
60.7541
-0.511494
61.3095
-0.530284
61.8717
-0.548988
62.4405
-0.567593
63.0161
-0.586086
63.5981
-0.604458
64.1871
-0.62269
64.7813
-0.640788
65.386
-0.658687
65.9844
-0.676539
66.6283
-0.693821
-0.712126
67.1578
31.017
0.504695
-30.5191
31.5115
0.504696
31.9997
0.504016
32.4806
0.50263
32.9535
0.500519
33.418
0.497671
33.8738
0.494076
34.321
0.489733
34.7597
0.484639
35.1901
0.478796
35.6125
0.472207
36.0273
0.464878
36.4348
0.456814
36.8355
0.448022
37.2299
0.438512
37.6183
0.42829
38.0013
0.417368
38.3793
0.405754
38.7527
0.393459
39.1221
0.380495
39.4878
0.366871
39.8503
0.352601
40.2101
0.337696
40.5676
0.322168
40.9232
0.30603
41.2774
0.289294
41.6304
0.271974
41.9828
0.254083
42.3348
0.235634
42.6869
0.216641
43.0394
0.197119
43.3927
0.177081
43.7471
0.156542
44.1029
0.135517
44.4605
0.114021
44.8201
0.0920676
45.1821
0.0696737
45.5467
0.0468536
45.9141
0.0236242
46.2848
0
46.6589
-0.0240024
47.0366
-0.0483666
47.4182
-0.0730765
47.804
-0.0981158
48.1941
-0.123468
48.5887
-0.149116
48.988
-0.175043
49.3922
-0.201232
49.8015
-0.227665
50.2161
-0.254326
50.6361
-0.281198
51.0616
-0.308262
51.4927
-0.335501
51.9297
-0.362898
52.3727
-0.390435
52.8216
-0.418094
53.2767
-0.445856
53.738
-0.473706
54.2056
-0.501624
54.6796
-0.529591
55.16
-0.557592
55.647
-0.585607
56.1404
-0.613618
56.6404
-0.641609
57.1471
-0.669559
57.6603
-0.697452
58.1802
-0.72527
58.7067
-0.752994
59.2398
-0.780607
59.7795
-0.808091
60.3258
-0.835429
60.8787
-0.862602
61.438
-0.889594
62.0041
-0.916383
62.5754
-0.942972
63.1568
-0.969271
63.7326
-0.995495
64.3514
-1.0209
-1.04776
64.8633
30.6976
0.676449
-30.2366
31.1539
0.675743
31.6035
0.674135
32.0457
0.671603
32.4801
0.668127
32.9065
0.663699
33.325
0.65831
33.7355
0.65196
34.1384
0.644647
34.5339
0.636377
34.9223
0.627152
35.3039
0.61698
35.6791
0.60587
36.0484
0.59383
36.4122
0.580871
36.7709
0.567004
37.1248
0.552241
37.4745
0.536594
37.8204
0.520077
38.1628
0.502703
38.5023
0.484486
38.8392
0.465442
39.1739
0.445585
39.5068
0.42493
39.8383
0.403494
40.1689
0.381293
40.4987
0.358343
40.8283
0.334662
41.158
0.310266
41.488
0.285173
41.8188
0.259401
42.1507
0.232969
42.4839
0.205894
42.8188
0.178196
43.1557
0.149893
43.4948
0.121006
43.8364
0.0915526
44.1808
0.0615539
44.5283
0.0310296
44.879
0
45.2333
-0.0315142
45.5912
-0.0634922
45.9532
-0.0959133
46.3193
-0.128756
46.6898
-0.161998
47.0648
-0.19562
47.4446
-0.229598
47.8293
-0.263911
48.219
-0.298536
48.6139
-0.333452
49.0142
-0.368636
49.42
-0.404065
49.8315
-0.439717
50.2486
-0.475569
50.6717
-0.511598
51.1006
-0.547781
51.5356
-0.584096
51.9768
-0.620517
52.4241
-0.657024
52.8777
-0.693593
53.3377
-0.730199
53.804
-0.76682
54.2767
-0.803434
54.7559
-0.840015
55.2416
-0.876542
55.7337
-0.91299
56.2324
-0.949338
56.7375
-0.985561
57.2492
-1.02164
57.7673
-1.05754
58.2919
-1.09325
58.8229
-1.12875
59.3602
-1.16401
59.9042
-1.19899
60.4533
-1.23372
61.0123
-1.26807
61.5661
-1.30232
62.1608
-1.33551
-1.37055
62.6549
30.3545
0.849243
-29.9295
30.7743
0.847503
31.1872
0.844655
31.593
0.840677
31.9914
0.835557
32.3824
0.829284
32.7661
0.821854
33.1427
0.813267
33.5124
0.803525
33.8754
0.792632
34.2323
0.780595
34.5831
0.767424
34.9285
0.753127
35.2686
0.737716
35.604
0.721203
35.935
0.703602
36.262
0.684926
36.5854
0.665191
36.9056
0.644411
37.223
0.622604
37.538
0.599785
37.8509
0.575973
38.1622
0.551185
38.4722
0.525439
38.7812
0.498755
39.0896
0.471152
39.3978
0.442649
39.706
0.413267
40.0147
0.383026
40.3241
0.351949
40.6344
0.320054
40.9461
0.287365
41.2594
0.253905
41.5746
0.219695
41.892
0.184758
42.2117
0.149118
42.5342
0.112798
42.8595
0.075822
43.188
0.0382144
43.5199
0
43.8554
-0.0387967
44.1946
-0.0781508
44.5379
-0.118036
44.8854
-0.158428
45.2373
-0.1993
45.5937
-0.240626
45.9549
-0.28238
46.321
-0.324535
46.692
-0.367064
47.0683
-0.409941
47.4499
-0.453137
47.8369
-0.496627
48.2295
-0.540381
48.6277
-0.584374
49.0317
-0.628576
49.4416
-0.672961
49.8574
-0.717499
50.2793
-0.762164
50.7072
-0.806927
51.1413
-0.85176
51.5816
-0.896634
52.0282
-0.941521
52.481
-0.986394
52.9402
-1.03122
53.4057
-1.07598
53.8776
-1.12064
54.3559
-1.16517
54.8405
-1.20955
55.3315
-1.25374
55.8289
-1.29772
56.3325
-1.34146
56.8425
-1.38493
57.3586
-1.42811
57.8813
-1.47096
58.409
-1.51349
58.9463
-1.55555
59.4789
-1.59749
60.0504
-1.63814
-1.68102
60.5268
29.986
1.02258
-29.5954
30.3712
1.01951
30.7497
1.01514
31.1214
1.00945
31.4862
1.00244
31.8443
0.994089
32.1958
0.984401
32.541
0.973378
32.8799
0.961023
33.2131
0.947343
33.5407
0.932345
33.8632
0.91604
34.1808
0.898439
34.494
0.879556
34.803
0.859403
35.1084
0.837997
35.4104
0.815354
35.7094
0.791489
36.0058
0.766421
36.2999
0.740169
36.5921
0.712751
36.8828
0.684188
37.1722
0.654499
37.4608
0.623705
37.7488
0.591829
38.0366
0.558892
38.3245
0.524917
38.6128
0.489927
38.9017
0.453947
39.1917
0.416999
39.4829
0.379109
39.7757
0.340303
40.0703
0.300605
40.3669
0.260041
40.6659
0.218639
40.9674
0.176425
41.2717
0.133426
41.5791
0.0896701
41.8897
0.0451853
42.2038
0
42.5215
-0.045857
42.8431
-0.0923565
43.1687
-0.139469
43.4985
-0.187165
43.8328
-0.235414
44.1716
-0.284186
44.5151
-0.33345
44.8634
-0.383175
45.2168
-0.43333
45.5753
-0.483884
45.939
-0.534805
46.3081
-0.586062
46.6827
-0.637621
47.0629
-0.689452
47.4488
-0.741521
47.8404
-0.793797
48.2379
-0.846246
48.6413
-0.898837
49.0507
-0.951536
49.4661
-1.00431
49.8877
-1.05713
50.3153
-1.10995
50.7491
-1.16276
51.1891
-1.21551
51.6353
-1.26817
52.0878
-1.3207
52.5465
-1.37308
53.0114
-1.42528
53.4825
-1.47726
53.9599
-1.52898
54.4434
-1.58042
54.9331
-1.63154
55.4288
-1.68231
55.931
-1.73269
56.438
-1.78269
56.9544
-1.83215
57.4665
-1.88145
58.0157
-1.92924
-1.97961
58.4749
29.5931
1.19602
-29.2351
29.9457
1.19135
30.2921
1.18521
30.6321
1.17758
30.9658
1.16845
31.2934
1.15782
31.6152
1.14568
31.9312
1.13205
32.2418
1.11693
32.5473
1.10032
32.8479
1.08223
33.1441
1.06268
33.4362
1.04168
33.7244
1.01924
34.0091
0.995381
34.2907
0.970116
34.5696
0.943465
34.8459
0.915444
35.1202
0.886075
35.3927
0.855378
35.6637
0.823373
35.9337
0.790083
36.2028
0.755531
36.4714
0.719739
36.7398
0.682732
37.0083
0.644535
37.2773
0.605173
37.5469
0.564671
37.8174
0.523057
38.0892
0.480357
38.3624
0.436599
38.6375
0.391812
38.9144
0.346024
39.1937
0.299263
39.4754
0.251562
39.7597
0.202948
40.047
0.153454
40.3374
0.10311
40.6311
0.0519481
40.9284
0
41.2293
-0.0527015
41.5341
-0.106123
41.843
-0.160233
42.1562
-0.214995
42.4737
-0.270378
42.7957
-0.326346
43.1224
-0.382864
43.454
-0.439898
43.7905
-0.497412
44.1321
-0.555371
44.4789
-0.613739
44.831
-0.67248
45.1884
-0.731558
45.5514
-0.790936
45.92
-0.850578
46.2942
-0.910448
46.6742
-0.970507
47.06
-1.03072
47.4516
-1.09105
47.8492
-1.15145
48.2527
-1.2119
48.6623
-1.27236
49.0778
-1.33278
49.4995
-1.39313
49.9272
-1.45337
50.361
-1.51347
50.8009
-1.57338
51.2469
-1.63308
51.6989
-1.69252
52.1571
-1.75166
52.6212
-1.81048
53.0915
-1.86893
53.5675
-1.92698
54.0499
-1.98458
54.5371
-2.04174
55.0333
-2.09828
55.5257
-2.15462
56.0534
-2.20928
-2.26681
56.4958
29.1781
1.36916
-28.8508
29.5003
1.36266
29.8167
1.35452
30.1273
1.34473
30.4322
1.3333
30.7317
1.32021
31.0258
1.30547
31.315
1.28908
31.5994
1.27105
31.8793
1.25139
32.1551
1.23011
32.427
1.20723
32.6953
1.18275
32.9605
1.15669
33.2227
1.12907
33.4823
1.0999
33.7397
1.06921
33.9951
1.03702
34.2488
1.00335
34.5012
0.968218
34.7526
0.931648
35.0032
0.893665
35.2534
0.854294
35.5034
0.813559
35.7535
0.771488
36.0041
0.728108
36.2553
0.683445
36.5074
0.637529
36.7607
0.590389
37.0155
0.542055
37.2719
0.492556
37.5302
0.441924
37.7907
0.390191
38.0535
0.337389
38.319
0.28355
38.5872
0.228708
38.8584
0.172898
39.1328
0.116153
39.4106
0.0585085
39.6919
0
39.977
-0.0593365
40.266
-0.119465
40.5591
-0.180348
40.8564
-0.241949
41.158
-0.304229
41.4642
-0.367152
41.775
-0.430678
42.0906
-0.494768
42.4111
-0.559384
42.7366
-0.624486
43.0673
-0.690034
43.4031
-0.755989
43.7443
-0.822311
44.0909
-0.888957
44.443
-0.955889
44.8006
-1.02307
45.1639
-1.09045
45.5328
-1.15799
45.9075
-1.22565
46.288
-1.29339
46.6744
-1.36118
47.0666
-1.42895
47.4647
-1.49669
47.8687
-1.56434
48.2787
-1.63186
48.6946
-1.69921
49.1165
-1.76635
49.5443
-1.83324
49.9781
-1.89984
50.4178
-1.9661
50.8633
-2.03199
51.3148
-2.09747
51.772
-2.16249
52.2354
-2.22701
52.7035
-2.29102
53.1803
-2.35435
53.6536
-2.41744
54.1606
-2.47866
-2.54303
54.5868
28.7436
1.54164
-28.445
29.0375
1.53309
29.3261
1.52276
29.6094
1.51064
29.8877
1.49674
30.1611
1.48104
30.4298
1.46356
30.6942
1.44429
30.9544
1.42324
31.2107
1.40043
31.4635
1.37587
31.7129
1.34957
31.9594
1.32155
32.2032
1.29182
32.4445
1.2604
32.6838
1.22731
32.9212
1.19257
33.1572
1.15621
33.3919
1.11824
33.6256
1.07869
33.8587
1.03758
34.0913
0.994944
34.3239
0.950804
34.5566
0.905187
34.7896
0.858122
35.0234
0.809638
35.258
0.759766
35.4938
0.708535
35.731
0.655978
35.9698
0.602126
36.2104
0.547012
36.4531
0.490671
36.6981
0.433137
36.9455
0.374444
37.1957
0.314628
37.4487
0.253726
37.7047
0.191774
37.9641
0.12881
38.2268
0.0648729
38.4932
0
38.7633
-0.0657691
39.0373
-0.132394
39.3154
-0.199836
39.5976
-0.268053
39.8843
-0.337005
40.1754
-0.40665
40.4711
-0.476945
40.7716
-0.547849
41.0769
-0.619319
41.3871
-0.691312
41.7024
-0.763785
42.0228
-0.836693
42.3485
-0.909992
42.6794
-0.98364
43.0158
-1.05759
43.3576
-1.1318
43.7049
-1.20622
44.0578
-1.28081
44.4163
-1.35553
44.7805
-1.43032
45.1504
-1.50515
45.526
-1.57997
45.9074
-1.65472
46.2946
-1.72938
46.6876
-1.80389
47.0864
-1.8782
47.491
-1.95227
47.9014
-2.02607
48.3176
-2.09953
48.7395
-2.17262
49.1673
-2.24529
49.6007
-2.3175
50.0398
-2.3892
50.4849
-2.46034
50.9346
-2.53093
51.3927
-2.60074
51.8476
-2.6703
52.3347
-2.73781
-2.80872
52.7454
28.2923
1.71313
-28.0204
28.56
1.70236
28.8228
1.68968
29.0809
1.67508
29.3345
1.65856
29.5838
1.64012
29.8291
1.61977
30.0705
1.59752
30.3084
1.57336
30.5429
1.54732
30.7744
1.51941
31.0031
1.48964
31.2294
1.45802
31.4534
1.42459
31.6754
1.38934
31.8958
1.35231
32.1148
1.31352
32.3327
1.27298
32.5497
1.23073
32.7661
1.18679
32.9821
1.14118
33.1981
1.09394
33.4142
1.04508
33.6307
0.994648
33.8479
0.942663
34.0659
0.889159
34.2851
0.834168
34.5056
0.777723
34.7277
0.719857
34.9515
0.660606
35.1773
0.600003
35.4054
0.538086
35.6358
0.474892
35.8687
0.410457
36.1045
0.344821
36.3432
0.278021
36.585
0.210099
36.8301
0.141094
37.0786
0.0710469
37.3308
0
37.5868
-0.0720049
37.8466
-0.144925
38.1105
-0.218717
38.3786
-0.293337
38.651
-0.368741
38.9279
-0.444883
39.2093
-0.521719
39.4953
-0.599203
39.7862
-0.677289
40.0819
-0.75593
40.3826
-0.83508
40.6883
-0.91469
40.9991
-0.994715
41.3152
-1.07511
41.6366
-1.15581
41.9633
-1.23679
42.2954
-1.31799
42.6329
-1.39936
42.976
-1.48086
43.3246
-1.56243
43.6787
-1.64403
44.0385
-1.72561
44.4039
-1.80711
44.775
-1.88849
45.1517
-1.96971
45.5341
-2.0507
45.9221
-2.13143
46.3158
-2.21184
46.7152
-2.29188
47.1201
-2.37152
47.5307
-2.45069
47.9469
-2.52935
48.3686
-2.60745
48.796
-2.68494
49.2281
-2.76182
49.6682
-2.83786
50.1055
-2.9136
50.5734
-2.98713
-3.06428
50.969
27.8267
1.88337
-27.5795
28.07
1.87022
28.309
1.85503
28.5438
1.83781
28.7746
1.81856
29.0018
1.79728
29.2253
1.77397
29.4456
1.74864
29.6629
1.7213
29.8773
1.69196
30.0891
1.66064
30.2987
1.62735
30.5062
1.59211
30.7119
1.55494
30.9161
1.51585
31.119
1.47488
31.3209
1.43203
31.522
1.38734
31.7225
1.34083
31.9228
1.29253
32.123
1.24246
32.3234
1.19066
32.5242
1.13715
32.7257
1.08197
32.928
1.02514
33.1314
0.966702
33.3361
0.906686
33.5423
0.845128
33.7503
0.782063
33.9601
0.717528
34.172
0.651562
34.3863
0.584201
34.603
0.515486
34.8224
0.445455
35.0446
0.374151
35.2698
0.301615
35.4982
0.227888
35.7298
0.153014
35.965
0.0770363
36.2038
0
36.4464
-0.0780503
36.6928
-0.157069
36.9433
-0.23701
37.1979
-0.317826
37.4569
-0.399471
37.7202
-0.481895
37.988
-0.565051
38.2604
-0.648889
38.5375
-0.733361
38.8194
-0.818417
39.1062
-0.904007
39.3979
-0.99008
39.6947
-1.07658
39.9966
-1.16347
40.3037
-1.25069
40.6159
-1.33818
40.9335
-1.4259
41.2564
-1.5138
41.5847
-1.60182
41.9184
-1.6899
42.2576
-1.77801
42.6022
-1.86608
42.9523
-1.95406
43.3079
-2.04191
43.669
-2.12956
44.0357
-2.21696
44.4079
-2.30407
44.7856
-2.39083
45.1688
-2.47719
45.5574
-2.5631
45.9516
-2.6485
46.3512
-2.73334
46.7561
-2.81758
47.1666
-2.90115
47.5817
-2.98405
48.0045
-3.06604
48.4248
-3.1477
48.8743
-3.22701
-3.31011
49.2554
27.349
2.05209
-27.1248
27.5698
2.03643
27.7868
2.01862
28.0001
1.99868
28.21
1.97659
28.4166
1.95237
28.6202
1.92601
28.821
1.89754
29.0192
1.86695
29.215
1.83427
29.4087
1.7995
29.6006
1.76266
29.7908
1.72377
29.9796
1.68285
30.1672
1.63991
30.3539
1.59499
30.5399
1.54811
30.7254
1.49929
30.9107
1.44855
31.096
1.39593
31.2815
1.34145
31.4674
1.28514
31.654
1.22704
31.8414
1.16718
32.0298
1.10559
32.2195
1.0423
32.4107
0.977354
32.6036
0.910784
32.7983
0.84263
32.995
0.772929
33.1939
0.701722
33.3952
0.629047
33.599
0.554948
33.8056
0.479465
34.0151
0.402643
34.2276
0.324525
34.4433
0.245156
34.6623
0.164581
34.8849
0.0828468
35.111
0
35.3409
-0.0839115
35.5747
-0.168839
35.8125
-0.254734
36.0544
-0.341548
36.3005
-0.429228
36.551
-0.517725
36.8059
-0.606988
37.0653
-0.696965
37.3294
-0.787602
37.5982
-0.878848
37.8718
-0.97065
38.1502
-1.06295
38.4336
-1.1557
38.7219
-1.24885
39.0154
-1.34233
39.3139
-1.4361
39.6177
-1.5301
39.9266
-1.62427
40.2408
-1.71856
40.5602
-1.81291
40.885
-1.90727
41.2151
-2.00158
41.5506
-2.09579
41.8915
-2.18984
42.2377
-2.28367
42.5893
-2.37723
42.9462
-2.47046
43.3086
-2.56331
43.6763
-2.65573
44.0493
-2.74765
44.4277
-2.83902
44.8113
-2.92979
45.2002
-3.0199
45.5945
-3.10929
45.9932
-3.19796
46.3994
-3.28566
46.8034
-3.37299
47.2351
-3.45782
-3.54661
47.6023
26.8614
2.21908
-26.6584
27.0615
2.20079
27.2581
2.18026
27.4516
2.1575
27.6422
2.13249
27.8299
2.10526
28.015
2.0758
28.1978
2.04412
28.3784
2.01024
28.5571
1.97417
28.7341
1.93592
28.9096
1.89551
29.0837
1.85296
29.2569
1.80828
29.4292
1.76151
29.6009
1.71266
29.7722
1.66175
29.9432
1.60882
30.1144
1.55389
30.2857
1.49699
30.4575
1.43815
30.6299
1.37741
30.8032
1.31478
30.9775
1.25031
31.153
1.18404
31.33
1.11599
31.5085
1.04621
31.6888
0.974729
31.8711
0.901594
32.0555
0.826842
32.2422
0.750515
32.4314
0.672656
32.6232
0.593307
32.8177
0.512513
33.0152
0.430319
33.2158
0.346772
33.4195
0.261918
33.6266
0.175806
33.8372
0.0884833
34.0514
0
34.2694
-0.0895938
34.4912
-0.180247
34.7169
-0.271908
34.9468
-0.364526
35.1808
-0.458046
35.4191
-0.552415
35.6617
-0.647579
35.9089
-0.743484
36.1605
-0.840075
36.4168
-0.937295
36.6778
-1.03509
36.9436
-1.1334
37.2142
-1.23217
37.4897
-1.33135
37.7702
-1.43087
38.0556
-1.53068
38.3461
-1.63071
38.6417
-1.73092
38.9424
-1.83125
39.2483
-1.93162
39.5594
-2.03199
39.8756
-2.1323
40.1971
-2.23249
40.5238
-2.33249
40.8557
-2.43226
41.1929
-2.53173
41.5353
-2.63084
41.8829
-2.72953
42.2358
-2.82775
42.5938
-2.92544
42.957
-3.02253
43.3254
-3.11898
43.6988
-3.21472
44.0775
-3.30969
44.4606
-3.40389
44.8508
-3.49705
45.2391
-3.58979
45.6537
-3.67992
-3.77414
46.0074
26.366
2.38415
-26.1825
26.5468
2.36314
26.7248
2.3398
26.9
2.31414
27.0727
2.28615
27.243
2.25584
27.4112
2.22323
27.5774
2.18831
27.7418
2.1511
27.9046
2.11161
28.0661
2.06986
28.2264
2.02587
28.3858
1.97965
28.5445
1.93123
28.7026
1.88062
28.8603
1.82786
29.018
1.77296
29.1757
1.71596
29.3336
1.65688
29.492
1.59575
29.6511
1.53261
29.8109
1.46748
29.9718
1.4004
30.1339
1.3314
30.2973
1.26052
30.4624
1.1878
30.6291
1.11328
30.7977
1.037
30.9683
0.95899
31.1412
0.879302
31.3165
0.797976
31.4942
0.715058
31.6747
0.630591
31.8579
0.544624
32.0441
0.457202
32.2334
0.368374
32.4259
0.27819
32.6218
0.186698
32.8211
0.0939513
33.024
0
33.2307
-0.095103
33.4411
-0.191304
33.6555
-0.28855
33.8739
-0.386785
34.0964
-0.485954
34.3232
-0.586001
34.5542
-0.686869
34.7897
-0.788502
35.0295
-0.890841
35.274
-0.993828
35.523
-1.0974
35.7767
-1.20151
36.0352
-1.30608
36.2984
-1.41107
36.5665
-1.51641
36.8395
-1.62203
37.1173
-1.72788
37.4002
-1.8339
37.6881
-1.94003
37.9809
-2.0462
38.2789
-2.15235
38.5819
-2.25842
38.89
-2.36435
39.2031
-2.47008
39.5214
-2.57554
39.8448
-2.68068
40.1732
-2.78543
40.5068
-2.88973
40.8454
-2.99352
41.189
-3.09673
41.5377
-3.19931
41.8914
-3.3012
42.25
-3.40234
42.6138
-3.50265
42.9817
-3.60214
43.3566
-3.70052
43.7298
-3.79846
44.128
-3.89365
-3.99305
44.4688
25.8644
2.54712
-25.6989
26.0276
2.52331
26.1883
2.4971
26.3467
2.46848
26.503
2.43746
26.6572
2.40403
26.8097
2.36822
26.9606
2.33002
27.11
2.28946
27.2583
2.24654
27.4055
2.20129
27.5518
2.15371
27.6975
2.10383
27.8427
2.05167
27.9877
1.99725
28.1326
1.9406
28.2776
1.88175
28.4228
1.82071
28.5685
1.75753
28.7149
1.69222
28.8621
1.62483
29.0103
1.55538
29.1596
1.48392
29.3103
1.41047
29.4625
1.33508
29.6163
1.25778
29.772
1.17861
29.9296
1.09762
30.0894
1.01485
30.2515
0.930341
30.416
0.844136
30.583
0.756283
30.7528
0.666829
30.9254
0.575823
31.101
0.483313
31.2797
0.389349
31.4616
0.293984
31.6468
0.197268
31.8355
0.0992558
32.0278
0
32.2238
-0.100444
32.4235
-0.202021
32.6271
-0.304675
32.8347
-0.408348
33.0463
-0.512983
33.2621
-0.618521
33.4821
-0.724903
33.7064
-0.832069
33.9351
-0.939959
34.1683
-1.04851
34.4059
-1.15767
34.6482
-1.26736
34.8951
-1.37753
35.1466
-1.48812
35.4029
-1.59906
35.6639
-1.71028
35.9298
-1.82173
36.2005
-1.93334
36.4761
-2.04505
36.7565
-2.15679
37.0419
-2.2685
37.3322
-2.38011
37.6275
-2.49156
37.9277
-2.60279
38.2329
-2.71372
38.5431
-2.8243
38.8582
-2.93446
39.1782
-3.04414
39.5032
-3.15327
39.833
-3.26178
40.1678
-3.36963
40.5074
-3.47673
40.8518
-3.58304
41.2012
-3.68846
41.5547
-3.79302
41.9149
-3.89641
42.2736
-3.9993
42.656
-4.09935
-4.20369
42.9842
25.3583
2.70785
-25.2095
25.5053
2.68119
25.6502
2.65204
25.7931
2.62042
25.9342
2.58632
26.0737
2.54974
26.2117
2.51071
26.3485
2.46922
26.4841
2.42529
26.6189
2.37893
26.7529
2.33017
26.8863
2.27901
27.0193
2.22548
27.1521
2.16961
27.2849
2.1114
27.4178
2.0509
27.5511
1.98812
27.6848
1.92309
27.8191
1.85585
27.9543
1.78643
28.0905
1.71485
28.2278
1.64116
28.3664
1.56538
28.5064
1.48756
28.6481
1.40774
28.7915
1.32595
28.9369
1.24224
29.0843
1.15665
29.2338
1.06922
29.3858
0.979993
29.5402
0.889026
29.6972
0.796361
29.8569
0.702047
30.0195
0.606134
30.1851
0.508673
30.3538
0.409715
30.5257
0.309315
30.701
0.207525
30.8796
0.104402
31.0618
-2.10977e-07
31.2477
-0.105623
31.4373
-0.21241
31.6307
-0.320301
31.828
-0.429239
32.0293
-0.539162
32.2347
-0.65001
32.4442
-0.761721
32.658
-0.874234
32.876
-0.987485
33.0985
-1.10141
33.3253
-1.21595
33.5566
-1.33103
33.7925
-1.4466
34.0329
-1.56259
34.2779
-1.67892
34.5276
-1.79554
34.782
-1.91238
35.0411
-2.02938
35.3049
-2.14646
35.5735
-2.26356
35.8469
-2.38061
36.1251
-2.49754
36.4082
-2.6143
36.696
-2.7308
36.9887
-2.84699
37.2862
-2.96279
37.5884
-3.07815
37.8955
-3.19298
38.2074
-3.30724
38.5241
-3.42084
38.8455
-3.53372
39.1716
-3.64582
39.5023
-3.75708
39.8379
-3.86741
40.1775
-3.97681
40.5236
-4.08499
40.8683
-4.19263
41.2356
-4.29733
-4.40639
41.5519
24.8493
2.86621
-24.7158
24.9814
2.83665
25.1116
2.80453
25.2403
2.76987
25.3674
2.73266
25.4933
2.69292
25.618
2.65064
25.7418
2.60585
25.8647
2.55855
25.987
2.50876
26.1088
2.45649
26.2303
2.40177
26.3516
2.34461
26.473
2.28504
26.5945
2.22308
26.7163
2.15876
26.8387
2.0921
26.9617
2.02313
27.0855
1.95189
27.2103
1.8784
27.3361
1.8027
27.4633
1.72483
27.5919
1.64482
27.722
1.56271
27.8539
1.47854
27.9876
1.39235
28.1232
1.30419
28.261
1.2141
28.4011
1.12211
28.5435
1.02829
28.6885
0.932678
28.836
0.835321
28.9864
0.736272
29.1396
0.635581
29.2957
0.533303
29.455
0.429489
29.6175
0.324196
29.7833
0.217478
29.9525
0.109394
30.1251
0
30.3014
-0.110644
30.4814
-0.222479
30.6651
-0.335444
30.8527
-0.449477
31.0443
-0.564518
31.2398
-0.680501
31.4394
-0.797365
31.6431
-0.915044
31.8511
-1.03347
32.0633
-1.15259
32.2799
-1.27232
32.5008
-1.39261
32.7261
-1.51338
32.9559
-1.63457
33.1902
-1.7561
33.4291
-1.87792
33.6725
-1.99995
33.9205
-2.12213
34.1732
-2.24438
34.4305
-2.36663
34.6924
-2.48882
34.959
-2.61087
35.2303
-2.73272
35.5063
-2.8543
35.787
-2.97553
36.0724
-3.09636
36.3624
-3.21669
36.6571
-3.33648
36.9564
-3.45565
37.2604
-3.57412
37.569
-3.69184
37.8822
-3.80873
38.1998
-3.92473
38.5222
-4.03975
38.8485
-4.1538
39.1809
-4.26657
39.5123
-4.37875
39.865
-4.4879
-4.60145
40.1697
24.3387
3.02211
-24.2192
24.457
2.98961
24.5738
2.95449
24.6893
2.91676
24.8037
2.87643
24.917
2.8335
25.0295
2.78798
25.1413
2.73987
25.2525
2.68921
25.3633
2.63599
25.4738
2.58024
25.5843
2.52197
25.6948
2.46121
25.8055
2.39797
25.9166
2.33229
26.0282
2.26419
26.1404
2.1937
26.2535
2.12084
26.3675
2.04565
26.4826
1.96817
26.5989
1.88842
26.7167
1.80644
26.8359
1.72227
26.9568
1.63595
27.0795
1.54752
27.2041
1.45703
27.3307
1.36451
27.4595
1.27001
27.5906
1.17358
27.7242
1.07527
27.8602
0.975122
27.9989
0.873192
28.1404
0.769529
28.2848
0.664188
28.4321
0.557222
28.5825
0.448687
28.7361
0.338639
28.8929
0.227136
29.0532
0.114236
29.2169
0
29.3841
-0.115512
29.555
-0.23224
29.7296
-0.350118
29.908
-0.469086
30.0902
-0.589078
30.2764
-0.710029
30.4665
-0.831874
30.6608
-0.954546
30.8591
-1.07798
31.0616
-1.2021
31.2684
-1.32685
31.4794
-1.45215
31.6947
-1.57794
31.9144
-1.70415
32.1385
-1.8307
32.367
-1.95752
32.6
-2.08455
32.8374
-2.21171
33.0794
-2.33894
33.3259
-2.46615
33.5769
-2.59328
33.8324
-2.72026
34.0925
-2.847
34.3572
-2.97346
34.6264
-3.09954
34.9001
-3.22517
35.1784
-3.3503
35.4613
-3.47484
35.7486
-3.59872
36.0404
-3.72187
36.3367
-3.84422
36.6375
-3.9657
36.9426
-4.08625
37.2523
-4.20576
37.5657
-4.32426
37.8852
-4.44142
38.2037
-4.55795
38.5424
-4.67135
-4.78919
38.836
23.8277
3.17544
-23.7211
23.9334
3.13998
24.0379
3.10184
24.1413
3.06103
24.2439
3.01757
24.3457
2.97145
24.4468
2.92268
24.5476
2.87128
24.6479
2.81725
24.7481
2.76062
24.8483
2.7014
24.9486
2.63962
25.0491
2.57528
25.15
2.50842
25.2514
2.43906
25.3535
2.36723
25.4564
2.29295
25.5602
2.21625
25.6651
2.13718
25.7712
2.05576
25.8787
1.97202
25.9876
1.88601
26.0982
1.79776
26.2104
1.70731
26.3245
1.61471
26.4406
1.52
26.5588
1.42322
26.6792
1.32442
26.802
1.22365
26.9272
1.12096
27.0549
1.01639
27.1853
0.910001
27.3184
0.801845
27.4544
0.691977
27.5934
0.580452
27.7355
0.467326
27.8807
0.352658
28.0291
0.236507
28.1809
0.118934
28.3361
0
28.4948
-0.120233
28.6571
-0.241701
28.823
-0.36434
28.9927
-0.488084
29.1661
-0.612869
29.3434
-0.738625
29.5246
-0.865287
29.7098
-0.992784
29.899
-1.12105
30.0923
-1.25001
30.2897
-1.3796
30.4913
-1.50975
30.6971
-1.64037
30.9072
-1.77142
31.1215
-1.9028
31.3402
-2.03445
31.5632
-2.16629
31.7905
-2.29825
32.0222
-2.43027
32.2584
-2.56225
32.4989
-2.69413
32.7439
-2.82584
32.9933
-2.9573
33.2471
-3.08843
33.5053
-3.21917
33.768
-3.34943
34.035
-3.47915
34.3065
-3.60824
34.5823
-3.73665
34.8625
-3.86428
35.147
-3.99108
35.4359
-4.11696
35.7289
-4.24186
36.0264
-4.36568
36.3276
-4.48843
36.6345
-4.6098
36.9407
-4.73048
37.2661
-4.84797
-4.9699
37.5489
23.3175
3.32614
-23.2227
23.4115
3.2877
23.5046
3.24653
23.597
3.20264
23.6887
3.15604
23.7799
3.10673
23.8707
3.05473
23.9612
3.00004
24.0516
2.94267
24.1421
2.88265
24.2326
2.82
24.3235
2.75472
24.4148
2.68684
24.5066
2.61639
24.599
2.5434
24.6923
2.46788
24.7865
2.38987
24.8818
2.3094
24.9783
2.2265
25.076
2.1412
25.1752
2.05355
25.276
1.96358
25.3784
1.87133
25.4826
1.77684
25.5888
1.68015
25.6969
1.58131
25.8072
1.48037
25.9197
1.37737
26.0346
1.27236
26.152
1.16539
26.2719
1.05651
26.3945
0.945776
26.5198
0.833245
26.648
0.71897
26.7791
0.60301
26.9133
0.485421
27.0506
0.366265
27.1911
0.245601
27.3349
0.123492
27.4821
0
27.6327
-0.12481
27.7868
-0.250873
27.9445
-0.378123
28.1059
-0.506493
28.271
-0.635914
28.4398
-0.766319
28.6125
-0.897638
28.7891
-1.0298
28.9697
-1.16273
29.1542
-1.29637
29.3427
-1.43063
29.5354
-1.56545
29.7321
-1.70075
29.933
-1.83645
30.138
-1.97249
30.3473
-2.10879
30.5607
-2.24527
30.7784
-2.38186
31.0004
-2.51848
31.2267
-2.65505
31.4572
-2.79151
31.6921
-2.92776
31.9312
-3.06375
32.1746
-3.19938
32.4224
-3.33459
32.6744
-3.4693
32.9307
-3.60342
33.1912
-3.7369
33.4561
-3.86964
33.7251
-4.00158
33.9983
-4.13263
34.2758
-4.26273
34.5573
-4.3918
34.8431
-4.51975
35.1325
-4.64658
35.4274
-4.77197
35.7217
-4.89663
36.0342
-5.01803
-5.14385
36.3068
22.8089
3.47414
-22.725
22.8923
3.43272
22.975
3.38852
23.0572
3.34155
23.1389
3.29182
23.2203
3.23934
23.3016
3.18411
23.3827
3.12615
23.464
3.06547
23.5454
3.00208
23.6271
2.93602
23.7093
2.86728
23.792
2.79591
23.8754
2.72191
23.9596
2.64533
24.0447
2.56618
24.1309
2.48449
24.2182
2.4003
24.3068
2.31364
24.3968
2.22454
24.4883
2.13304
24.5815
2.03919
24.6763
1.94301
24.7731
1.84456
24.8717
1.74388
24.9725
1.641
25.0754
1.53599
25.1805
1.42888
25.2881
1.31973
25.3981
1.20859
25.5107
1.09551
25.6259
0.980543
25.7439
0.863751
25.8647
0.74519
25.9884
0.624915
26.1152
0.502989
26.245
0.379471
26.378
0.254425
26.5143
0.127913
26.6539
-2.10886e-07
26.7968
-0.129248
26.9432
-0.259764
27.0932
-0.391481
27.2467
-0.524329
27.4039
-0.65824
27.5648
-0.793142
27.7294
-0.928964
27.8978
-1.06563
28.0701
-1.20308
28.2463
-1.34123
28.4264
-1.48
28.6104
-1.61933
28.7985
-1.75913
28.9906
-1.89934
29.1868
-2.03987
29.3871
-2.18064
29.5915
-2.32159
29.8
-2.46263
30.0127
-2.60369
30.2295
-2.74468
30.4505
-2.88554
30.6757
-3.02617
30.905
-3.1665
31.1385
-3.30646
31.3762
-3.44597
31.618
-3.58494
31.864
-3.7233
32.1141
-3.86098
32.3684
-3.99788
32.6267
-4.13394
32.8891
-4.26908
33.1556
-4.40322
33.4261
-4.53629
33.7007
-4.6682
33.9787
-4.79893
34.2621
-4.92818
34.5451
-5.05664
34.8453
-5.18178
-5.31132
35.1079
22.303
3.61941
-22.2291
22.3766
3.575
22.4497
3.52777
22.5225
3.47773
22.5951
3.42488
22.6675
3.36924
22.74
3.31081
22.8125
3.2496
22.8853
3.18563
22.9584
3.11892
23.032
3.04948
23.1061
2.97733
23.1809
2.9025
23.2566
2.825
23.3331
2.74488
23.4107
2.66215
23.4894
2.57684
23.5693
2.48899
23.6507
2.39863
23.7335
2.3058
23.8178
2.21053
23.9039
2.11287
23.9917
2.01285
24.0814
1.91052
24.1731
1.80592
24.2669
1.6991
24.3629
1.59011
24.4612
1.47899
24.5619
1.3658
24.665
1.25059
24.7707
1.13342
24.879
1.01433
24.9901
0.89339
25.104
0.770655
25.2207
0.646186
25.3405
0.520043
25.4633
0.392289
25.5892
0.262986
25.7184
0.132202
25.8507
0
25.9865
-0.133551
26.1256
-0.268383
26.2682
-0.404427
26.4143
-0.541612
26.5639
-0.679867
26.7172
-0.819121
26.8742
-0.959299
27.0348
-1.10033
27.1993
-1.24213
27.3675
-1.38464
27.5395
-1.52777
27.7155
-1.67145
27.8953
-1.8156
28.0791
-1.96015
28.2668
-2.105
28.4586
-2.2501
28.6543
-2.39535
28.854
-2.54068
29.0578
-2.68601
29.2656
-2.83126
29.4775
-2.97634
29.6934
-3.12118
29.9133
-3.2657
30.1373
-3.40982
30.3654
-3.55345
30.5975
-3.69652
30.8336
-3.83895
31.0738
-3.98065
31.3179
-4.12156
31.566