/*--------------------------------*- C++ -*----------------------------------*\
| =========                 |                                                 |
| \\      /  F ield         | OpenFOAM: The Open Source CFD Toolbox           |
|  \\    /   O peration     | Version:  2312                                  |
|   \\  /    A nd           | Website:  www.openfoam.com                      |
|    \\/     M anipulation  |                                                 |
\*---------------------------------------------------------------------------*/
FoamFile
{
    version     2.0;
    format      ascii;
    arch        "LSB;label=32;scalar=64";
    class       volVectorField;
    location    "0.974";
    object      U;
}
// * * * * * * * * * * * * * * * * * * * * * * * * * * * * * * * * * * * * * //

dimensions      [0 1 -1 0 0 0 0];

internalField   nonuniform List<vector> 
31205
(
(295.5 0 0)
(294.887 0 0)
(294.235 0 0)
(293.541 0 0)
(292.807 0 0)
(292.03 0 0)
(291.21 0 0)
(290.347 0 0)
(289.439 0 0)
(288.485 0 0)
(287.485 0 0)
(286.436 0 0)
(285.338 0 0)
(284.189 0 0)
(282.988 0 0)
(281.733 0 0)
(280.421 0 0)
(279.052 0 0)
(277.622 0 0)
(276.128 0 0)
(274.569 0 0)
(272.941 0 0)
(271.241 0 0)
(269.465 0 0)
(267.607 0 0)
(265.665 0 0)
(263.631 0 0)
(261.5 0 0)
(259.264 0 0)
(256.916 0 0)
(254.445 0 0)
(251.841 0 0)
(249.089 0 0)
(246.173 0 0)
(243.073 0 0)
(239.765 0 0)
(236.217 0 0)
(232.387 0 0)
(228.211 0 0)
(223.613 0 0)
(218.542 0 0)
(212.884 0 0)
(205.922 0 0)
(195.582 0 0)
(179.4 0 0)
(158.217 0 0)
(137.457 0 0)
(122.116 0 0)
(112.938 0 0)
(108.12 0 0)
(105.802 0 0)
(104.819 0 0)
(104.556 0 0)
(104.699 0 0)
(105.087 0 0)
(105.635 0 0)
(106.291 0 0)
(107.026 0 0)
(107.82 0 0)
(108.66 0 0)
(109.536 0 0)
(110.441 0 0)
(111.37 0 0)
(112.318 0 0)
(113.283 0 0)
(114.262 0 0)
(115.252 0 0)
(116.252 0 0)
(117.261 0 0)
(118.276 0 0)
(119.297 0 0)
(120.323 0 0)
(121.353 0 0)
(122.386 0 0)
(123.426 0 0)
(124.452 0 0)
(125.53 0 0)
(126.457 0 0)
(127.855 0 0)
(294.847 0 0)
(294.213 0 0)
(293.54 0 0)
(292.828 0 0)
(292.077 0 0)
(291.285 0 0)
(290.453 0 0)
(289.578 0 0)
(288.661 0 0)
(287.7 0 0)
(286.693 0 0)
(285.641 0 0)
(284.541 0 0)
(283.392 0 0)
(282.193 0 0)
(280.941 0 0)
(279.636 0 0)
(278.275 0 0)
(276.855 0 0)
(275.374 0 0)
(273.831 0 0)
(272.22 0 0)
(270.541 0 0)
(268.787 0 0)
(266.956 0 0)
(265.043 0 0)
(263.043 0 0)
(260.949 0 0)
(258.755 0 0)
(256.453 0 0)
(254.033 0 0)
(251.486 0 0)
(248.798 0 0)
(245.954 0 0)
(242.936 0 0)
(239.72 0 0)
(236.278 0 0)
(232.572 0 0)
(228.546 0 0)
(224.126 0 0)
(219.252 0 0)
(213.858 0 0)
(207.48 0 0)
(198.47 0 0)
(184.22 0 0)
(164.25 0 0)
(142.9 0 0)
(125.845 0 0)
(115.058 0 0)
(109.186 0 0)
(106.267 0 0)
(104.946 0 0)
(104.48 0 0)
(104.49 0 0)
(104.782 0 0)
(105.252 0 0)
(105.844 0 0)
(106.521 0 0)
(107.263 0 0)
(108.054 0 0)
(108.884 0 0)
(109.745 0 0)
(110.631 0 0)
(111.539 0 0)
(112.464 0 0)
(113.403 0 0)
(114.355 0 0)
(115.318 0 0)
(116.289 0 0)
(117.268 0 0)
(118.253 0 0)
(119.243 0 0)
(120.239 0 0)
(121.237 0 0)
(122.243 0 0)
(123.236 0 0)
(124.279 0 0)
(125.176 0 0)
(126.527 0 0)
(294.135 0 0)
(293.479 0 0)
(292.787 0 0)
(292.058 0 0)
(291.291 0 0)
(290.485 0 0)
(289.639 0 0)
(288.754 0 0)
(287.827 0 0)
(286.858 0 0)
(285.846 0 0)
(284.789 0 0)
(283.686 0 0)
(282.537 0 0)
(281.339 0 0)
(280.09 0 0)
(278.79 0 0)
(277.435 0 0)
(276.025 0 0)
(274.555 0 0)
(273.025 0 0)
(271.431 0 0)
(269.769 0 0)
(268.037 0 0)
(266.23 0 0)
(264.343 0 0)
(262.373 0 0)
(260.312 0 0)
(258.156 0 0)
(255.895 0 0)
(253.522 0 0)
(251.026 0 0)
(248.396 0 0)
(245.616 0 0)
(242.671 0 0)
(239.537 0 0)
(236.189 0 0)
(232.593 0 0)
(228.697 0 0)
(224.433 0 0)
(219.735 0 0)
(214.554 0 0)
(208.592 0 0)
(200.577 0 0)
(188.009 0 0)
(169.485 0 0)
(148.097 0 0)
(129.685 0 0)
(117.358 0 0)
(110.395 0 0)
(106.833 0 0)
(105.148 0 0)
(104.467 0 0)
(104.338 0 0)
(104.531 0 0)
(104.924 0 0)
(105.451 0 0)
(106.071 0 0)
(106.761 0 0)
(107.504 0 0)
(108.288 0 0)
(109.105 0 0)
(109.95 0 0)
(110.817 0 0)
(111.702 0 0)
(112.603 0 0)
(113.517 0 0)
(114.443 0 0)
(115.378 0 0)
(116.321 0 0)
(117.271 0 0)
(118.226 0 0)
(119.187 0 0)
(120.151 0 0)
(121.123 0 0)
(122.084 0 0)
(123.092 0 0)
(123.963 0 0)
(125.264 0 0)
(293.385 0 0)
(292.71 0 0)
(292 0 0)
(291.254 0 0)
(290.472 0 0)
(289.653 0 0)
(288.796 0 0)
(287.9 0 0)
(286.965 0 0)
(285.989 0 0)
(284.971 0 0)
(283.911 0 0)
(282.806 0 0)
(281.656 0 0)
(280.46 0 0)
(279.214 0 0)
(277.919 0 0)
(276.571 0 0)
(275.169 0 0)
(273.711 0 0)
(272.193 0 0)
(270.614 0 0)
(268.97 0 0)
(267.257 0 0)
(265.473 0 0)
(263.612 0 0)
(261.67 0 0)
(259.641 0 0)
(257.519 0 0)
(255.298 0 0)
(252.968 0 0)
(250.52 0 0)
(247.944 0 0)
(245.225 0 0)
(242.346 0 0)
(239.289 0 0)
(236.028 0 0)
(232.532 0 0)
(228.755 0 0)
(224.633 0 0)
(220.098 0 0)
(215.104 0 0)
(209.462 0 0)
(202.213 0 0)
(191.1 0 0)
(174.123 0 0)
(153.121 0 0)
(133.679 0 0)
(119.877 0 0)
(111.769 0 0)
(107.507 0 0)
(105.425 0 0)
(104.512 0 0)
(104.237 0 0)
(104.327 0 0)
(104.641 0 0)
(105.102 0 0)
(105.666 0 0)
(106.305 0 0)
(107 0 0)
(107.739 0 0)
(108.514 0 0)
(109.317 0 0)
(110.144 0 0)
(110.991 0 0)
(111.854 0 0)
(112.731 0 0)
(113.62 0 0)
(114.519 0 0)
(115.427 0 0)
(116.343 0 0)
(117.264 0 0)
(118.192 0 0)
(119.122 0 0)
(120.061 0 0)
(120.989 0 0)
(121.964 0 0)
(122.807 0 0)
(124.063 0 0)
(292.608 0 0)
(291.915 0 0)
(291.189 0 0)
(290.429 0 0)
(289.634 0 0)
(288.803 0 0)
(287.936 0 0)
(287.031 0 0)
(286.089 0 0)
(285.107 0 0)
(284.085 0 0)
(283.022 0 0)
(281.917 0 0)
(280.767 0 0)
(279.573 0 0)
(278.331 0 0)
(277.041 0 0)
(275.701 0 0)
(274.308 0 0)
(272.861 0 0)
(271.357 0 0)
(269.792 0 0)
(268.166 0 0)
(266.473 0 0)
(264.711 0 0)
(262.875 0 0)
(260.961 0 0)
(258.963 0 0)
(256.876 0 0)
(254.692 0 0)
(252.405 0 0)
(250.004 0 0)
(247.48 0 0)
(244.819 0 0)
(242.005 0 0)
(239.022 0 0)
(235.844 0 0)
(232.443 0 0)
(228.778 0 0)
(224.791 0 0)
(220.411 0 0)
(215.592 0 0)
(210.214 0 0)
(203.58 0 0)
(193.743 0 0)
(178.372 0 0)
(158.118 0 0)
(137.951 0 0)
(122.717 0 0)
(113.374 0 0)
(108.325 0 0)
(105.791 0 0)
(104.618 0 0)
(104.181 0 0)
(104.162 0 0)
(104.394 0 0)
(104.789 0 0)
(105.296 0 0)
(105.883 0 0)
(106.53 0 0)
(107.225 0 0)
(107.957 0 0)
(108.72 0 0)
(109.508 0 0)
(110.316 0 0)
(111.142 0 0)
(111.983 0 0)
(112.837 0 0)
(113.701 0 0)
(114.574 0 0)
(115.456 0 0)
(116.344 0 0)
(117.238 0 0)
(118.136 0 0)
(119.042 0 0)
(119.939 0 0)
(120.88 0 0)
(121.696 0 0)
(122.909 0 0)
(291.809 0 0)
(291.101 0 0)
(290.361 0 0)
(289.588 0 0)
(288.782 0 0)
(287.941 0 0)
(287.065 0 0)
(286.154 0 0)
(285.206 0 0)
(284.22 0 0)
(283.195 0 0)
(282.13 0 0)
(281.025 0 0)
(279.877 0 0)
(278.685 0 0)
(277.449 0 0)
(276.165 0 0)
(274.833 0 0)
(273.45 0 0)
(272.015 0 0)
(270.524 0 0)
(268.976 0 0)
(267.367 0 0)
(265.695 0 0)
(263.955 0 0)
(262.144 0 0)
(260.258 0 0)
(258.291 0 0)
(256.238 0 0)
(254.092 0 0)
(251.846 0 0)
(249.492 0 0)
(247.019 0 0)
(244.414 0 0)
(241.665 0 0)
(238.753 0 0)
(235.655 0 0)
(232.347 0 0)
(228.79 0 0)
(224.931 0 0)
(220.702 0 0)
(216.052 0 0)
(210.903 0 0)
(204.769 0 0)
(196.047 0 0)
(182.296 0 0)
(163.114 0 0)
(142.557 0 0)
(125.959 0 0)
(115.276 0 0)
(109.325 0 0)
(106.266 0 0)
(104.793 0 0)
(104.176 0 0)
(104.037 0 0)
(104.182 0 0)
(104.508 0 0)
(104.955 0 0)
(105.49 0 0)
(106.09 0 0)
(106.741 0 0)
(107.431 0 0)
(108.153 0 0)
(108.902 0 0)
(109.673 0 0)
(110.462 0 0)
(111.267 0 0)
(112.086 0 0)
(112.916 0 0)
(113.755 0 0)
(114.603 0 0)
(115.458 0 0)
(116.32 0 0)
(117.186 0 0)
(118.06 0 0)
(118.926 0 0)
(119.835 0 0)
(120.623 0 0)
(121.795 0 0)
(290.992 0 0)
(290.271 0 0)
(289.519 0 0)
(288.735 0 0)
(287.919 0 0)
(287.07 0 0)
(286.188 0 0)
(285.27 0 0)
(284.318 0 0)
(283.329 0 0)
(282.302 0 0)
(281.238 0 0)
(280.134 0 0)
(278.988 0 0)
(277.801 0 0)
(276.57 0 0)
(275.294 0 0)
(273.971 0 0)
(272.599 0 0)
(271.176 0 0)
(269.699 0 0)
(268.167 0 0)
(266.577 0 0)
(264.925 0 0)
(263.208 0 0)
(261.423 0 0)
(259.565 0 0)
(257.629 0 0)
(255.61 0 0)
(253.502 0 0)
(251.297 0 0)
(248.989 0 0)
(246.566 0 0)
(244.018 0 0)
(241.331 0 0)
(238.488 0 0)
(235.47 0 0)
(232.251 0 0)
(228.799 0 0)
(225.063 0 0)
(220.982 0 0)
(216.496 0 0)
(211.552 0 0)
(205.827 0 0)
(198.058 0 0)
(185.887 0 0)
(168.055 0 0)
(147.488 0 0)
(129.654 0 0)
(117.539 0 0)
(110.553 0 0)
(106.876 0 0)
(105.051 0 0)
(104.226 0 0)
(103.954 0 0)
(104.005 0 0)
(104.257 0 0)
(104.644 0 0)
(105.126 0 0)
(105.678 0 0)
(106.284 0 0)
(106.932 0 0)
(107.615 0 0)
(108.325 0 0)
(109.059 0 0)
(109.812 0 0)
(110.582 0 0)
(111.365 0 0)
(112.161 0 0)
(112.967 0 0)
(113.782 0 0)
(114.605 0 0)
(115.435 0 0)
(116.269 0 0)
(117.113 0 0)
(117.948 0 0)
(118.825 0 0)
(119.587 0 0)
(120.718 0 0)
(290.16 0 0)
(289.427 0 0)
(288.665 0 0)
(287.872 0 0)
(287.048 0 0)
(286.192 0 0)
(285.304 0 0)
(284.383 0 0)
(283.427 0 0)
(282.436 0 0)
(281.41 0 0)
(280.346 0 0)
(279.244 0 0)
(278.103 0 0)
(276.921 0 0)
(275.696 0 0)
(274.428 0 0)
(273.115 0 0)
(271.754 0 0)
(270.345 0 0)
(268.883 0 0)
(267.368 0 0)
(265.797 0 0)
(264.166 0 0)
(262.472 0 0)
(260.712 0 0)
(258.882 0 0)
(256.977 0 0)
(254.993 0 0)
(252.922 0 0)
(250.759 0 0)
(248.496 0 0)
(246.123 0 0)
(243.63 0 0)
(241.004 0 0)
(238.231 0 0)
(235.29 0 0)
(232.158 0 0)
(228.806 0 0)
(225.191 0 0)
(221.251 0 0)
(216.926 0 0)
(212.171 0 0)
(206.782 0 0)
(199.811 0 0)
(189.121 0 0)
(172.848 0 0)
(152.681 0 0)
(133.827 0 0)
(120.218 0 0)
(112.053 0 0)
(107.648 0 0)
(105.407 0 0)
(104.341 0 0)
(103.918 0 0)
(103.866 0 0)
(104.04 0 0)
(104.364 0 0)
(104.791 0 0)
(105.295 0 0)
(105.855 0 0)
(106.462 0 0)
(107.104 0 0)
(107.776 0 0)
(108.473 0 0)
(109.19 0 0)
(109.925 0 0)
(110.674 0 0)
(111.437 0 0)
(112.21 0 0)
(112.993 0 0)
(113.784 0 0)
(114.582 0 0)
(115.385 0 0)
(116.198 0 0)
(117.003 0 0)
(117.849 0 0)
(118.585 0 0)
(119.676 0 0)
(289.314 0 0)
(288.571 0 0)
(287.8 0 0)
(287 0 0)
(286.169 0 0)
(285.308 0 0)
(284.416 0 0)
(283.492 0 0)
(282.535 0 0)
(281.544 0 0)
(280.518 0 0)
(279.456 0 0)
(278.358 0 0)
(277.221 0 0)
(276.045 0 0)
(274.828 0 0)
(273.569 0 0)
(272.266 0 0)
(270.918 0 0)
(269.522 0 0)
(268.076 0 0)
(266.578 0 0)
(265.026 0 0)
(263.417 0 0)
(261.746 0 0)
(260.013 0 0)
(258.211 0 0)
(256.337 0 0)
(254.387 0 0)
(252.353 0 0)
(250.231 0 0)
(248.013 0 0)
(245.689 0 0)
(243.251 0 0)
(240.686 0 0)
(237.979 0 0)
(235.114 0 0)
(232.068 0 0)
(228.814 0 0)
(225.313 0 0)
(221.51 0 0)
(217.344 0 0)
(212.768 0 0)
(207.657 0 0)
(201.339 0 0)
(191.986 0 0)
(177.393 0 0)
(158.042 0 0)
(138.473 0 0)
(123.37 0 0)
(113.881 0 0)
(108.617 0 0)
(105.88 0 0)
(104.53 0 0)
(103.934 0 0)
(103.767 0 0)
(103.858 0 0)
(104.115 0 0)
(104.486 0 0)
(104.939 0 0)
(105.455 0 0)
(106.018 0 0)
(106.621 0 0)
(107.255 0 0)
(107.915 0 0)
(108.596 0 0)
(109.296 0 0)
(110.012 0 0)
(110.742 0 0)
(111.483 0 0)
(112.234 0 0)
(112.993 0 0)
(113.761 0 0)
(114.533 0 0)
(115.316 0 0)
(116.091 0 0)
(116.907 0 0)
(117.617 0 0)
(118.669 0 0)
(288.456 0 0)
(287.705 0 0)
(286.927 0 0)
(286.12 0 0)
(285.285 0 0)
(284.42 0 0)
(283.525 0 0)
(282.599 0 0)
(281.642 0 0)
(280.651 0 0)
(279.627 0 0)
(278.569 0 0)
(277.474 0 0)
(276.343 0 0)
(275.174 0 0)
(273.966 0 0)
(272.717 0 0)
(271.425 0 0)
(270.089 0 0)
(268.708 0 0)
(267.278 0 0)
(265.798 0 0)
(264.266 0 0)
(262.678 0 0)
(261.031 0 0)
(259.324 0 0)
(257.55 0 0)
(255.708 0 0)
(253.791 0 0)
(251.795 0 0)
(249.713 0 0)
(247.539 0 0)
(245.265 0 0)
(242.88 0 0)
(240.375 0 0)
(237.734 0 0)
(234.943 0 0)
(231.98 0 0)
(228.821 0 0)
(225.43 0 0)
(221.759 0 0)
(217.746 0 0)
(213.343 0 0)
(208.471 0 0)
(202.676 0 0)
(194.485 0 0)
(181.603 0 0)
(163.446 0 0)
(143.555 0 0)
(127.037 0 0)
(116.094 0 0)
(109.823 0 0)
(106.494 0 0)
(104.806 0 0)
(104.01 0 0)
(103.713 0 0)
(103.712 0 0)
(103.898 0 0)
(104.21 0 0)
(104.612 0 0)
(105.082 0 0)
(105.603 0 0)
(106.165 0 0)
(106.761 0 0)
(107.384 0 0)
(108.031 0 0)
(108.697 0 0)
(109.379 0 0)
(110.076 0 0)
(110.785 0 0)
(111.504 0 0)
(112.233 0 0)
(112.97 0 0)
(113.713 0 0)
(114.465 0 0)
(115.212 0 0)
(115.998 0 0)
(116.682 0 0)
(117.696 0 0)
(287.588 0 0)
(286.83 0 0)
(286.046 0 0)
(285.235 0 0)
(284.396 0 0)
(283.529 0 0)
(282.632 0 0)
(281.706 0 0)
(280.749 0 0)
(279.76 0 0)
(278.739 0 0)
(277.684 0 0)
(276.595 0 0)
(275.471 0 0)
(274.31 0 0)
(273.11 0 0)
(271.871 0 0)
(270.592 0 0)
(269.269 0 0)
(267.903 0 0)
(266.489 0 0)
(265.028 0 0)
(263.515 0 0)
(261.949 0 0)
(260.327 0 0)
(258.645 0 0)
(256.901 0 0)
(255.089 0 0)
(253.206 0 0)
(251.247 0 0)
(249.206 0 0)
(247.076 0 0)
(244.85 0 0)
(242.518 0 0)
(240.071 0 0)
(237.495 0 0)
(234.776 0 0)
(231.894 0 0)
(228.827 0 0)
(225.543 0 0)
(221.998 0 0)
(218.135 0 0)
(213.899 0 0)
(209.237 0 0)
(203.86 0 0)
(196.644 0 0)
(185.412 0 0)
(168.757 0 0)
(149.002 0 0)
(131.251 0 0)
(118.756 0 0)
(111.318 0 0)
(107.278 0 0)
(105.184 0 0)
(104.152 0 0)
(103.708 0 0)
(103.605 0 0)
(103.715 0 0)
(103.966 0 0)
(104.315 0 0)
(104.737 0 0)
(105.215 0 0)
(105.737 0 0)
(106.295 0 0)
(106.882 0 0)
(107.493 0 0)
(108.125 0 0)
(108.774 0 0)
(109.439 0 0)
(110.116 0 0)
(110.805 0 0)
(111.503 0 0)
(112.21 0 0)
(112.924 0 0)
(113.647 0 0)
(114.365 0 0)
(115.121 0 0)
(115.781 0 0)
(116.756 0 0)
(286.712 0 0)
(285.949 0 0)
(285.16 0 0)
(284.346 0 0)
(283.504 0 0)
(282.635 0 0)
(281.738 0 0)
(280.812 0 0)
(279.857 0 0)
(278.871 0 0)
(277.854 0 0)
(276.804 0 0)
(275.721 0 0)
(274.604 0 0)
(273.451 0 0)
(272.261 0 0)
(271.034 0 0)
(269.766 0 0)
(268.458 0 0)
(267.106 0 0)
(265.71 0 0)
(264.267 0 0)
(262.775 0 0)
(261.231 0 0)
(259.633 0 0)
(257.978 0 0)
(256.262 0 0)
(254.482 0 0)
(252.632 0 0)
(250.71 0 0)
(248.708 0 0)
(246.622 0 0)
(244.443 0 0)
(242.164 0 0)
(239.774 0 0)
(237.262 0 0)
(234.613 0 0)
(231.81 0 0)
(228.832 0 0)
(225.651 0 0)
(222.228 0 0)
(218.508 0 0)
(214.435 0 0)
(209.965 0 0)
(204.923 0 0)
(198.5 0 0)
(188.783 0 0)
(173.837 0 0)
(154.702 0 0)
(136.017 0 0)
(121.933 0 0)
(113.16 0 0)
(108.27 0 0)
(105.687 0 0)
(104.373 0 0)
(103.758 0 0)
(103.541 0 0)
(103.568 0 0)
(103.753 0 0)
(104.047 0 0)
(104.421 0 0)
(104.855 0 0)
(105.337 0 0)
(105.856 0 0)
(106.407 0 0)
(106.983 0 0)
(107.581 0 0)
(108.198 0 0)
(108.83 0 0)
(109.477 0 0)
(110.135 0 0)
(110.803 0 0)
(111.48 0 0)
(112.165 0 0)
(112.859 0 0)
(113.55 0 0)
(114.276 0 0)
(114.911 0 0)
(115.85 0 0)
(285.829 0 0)
(285.062 0 0)
(284.27 0 0)
(283.453 0 0)
(282.61 0 0)
(281.741 0 0)
(280.844 0 0)
(279.92 0 0)
(278.967 0 0)
(277.985 0 0)
(276.972 0 0)
(275.928 0 0)
(274.852 0 0)
(273.743 0 0)
(272.599 0 0)
(271.42 0 0)
(270.204 0 0)
(268.95 0 0)
(267.655 0 0)
(266.32 0 0)
(264.941 0 0)
(263.517 0 0)
(262.045 0 0)
(260.524 0 0)
(258.95 0 0)
(257.321 0 0)
(255.634 0 0)
(253.884 0 0)
(252.069 0 0)
(250.183 0 0)
(248.221 0 0)
(246.177 0 0)
(244.046 0 0)
(241.817 0 0)
(239.484 0 0)
(237.034 0 0)
(234.454 0 0)
(231.728 0 0)
(228.837 0 0)
(225.755 0 0)
(222.448 0 0)
(218.866 0 0)
(214.952 0 0)
(210.663 0 0)
(205.894 0 0)
(200.1 0 0)
(191.71 0 0)
(178.564 0 0)
(160.512 0 0)
(141.305 0 0)
(125.683 0 0)
(115.42 0 0)
(109.517 0 0)
(106.34 0 0)
(104.687 0 0)
(103.87 0 0)
(103.524 0 0)
(103.459 0 0)
(103.574 0 0)
(103.811 0 0)
(104.134 0 0)
(104.524 0 0)
(104.964 0 0)
(105.445 0 0)
(105.959 0 0)
(106.501 0 0)
(107.065 0 0)
(107.649 0 0)
(108.25 0 0)
(108.865 0 0)
(109.493 0 0)
(110.132 0 0)
(110.78 0 0)
(111.436 0 0)
(112.102 0 0)
(112.765 0 0)
(113.463 0 0)
(114.074 0 0)
(114.977 0 0)
(284.941 0 0)
(284.17 0 0)
(283.377 0 0)
(282.559 0 0)
(281.715 0 0)
(280.847 0 0)
(279.952 0 0)
(279.03 0 0)
(278.08 0 0)
(277.102 0 0)
(276.095 0 0)
(275.058 0 0)
(273.989 0 0)
(272.888 0 0)
(271.754 0 0)
(270.586 0 0)
(269.382 0 0)
(268.141 0 0)
(266.862 0 0)
(265.543 0 0)
(264.181 0 0)
(262.776 0 0)
(261.326 0 0)
(259.827 0 0)
(258.278 0 0)
(256.675 0 0)
(255.017 0 0)
(253.298 0 0)
(251.516 0 0)
(249.666 0 0)
(247.743 0 0)
(245.742 0 0)
(243.657 0 0)
(241.479 0 0)
(239.201 0 0)
(236.811 0 0)
(234.299 0 0)
(231.648 0 0)
(228.841 0 0)
(225.855 0 0)
(222.659 0 0)
(219.209 0 0)
(215.449 0 0)
(211.333 0 0)
(206.796 0 0)
(201.491 0 0)
(194.215 0 0)
(182.841 0 0)
(166.264 0 0)
(147.038 0 0)
(130.051 0 0)
(118.173 0 0)
(111.078 0 0)
(107.178 0 0)
(105.113 0 0)
(104.055 0 0)
(103.559 0 0)
(103.392 0 0)
(103.43 0 0)
(103.606 0 0)
(103.877 0 0)
(104.221 0 0)
(104.619 0 0)
(105.061 0 0)
(105.539 0 0)
(106.045 0 0)
(106.576 0 0)
(107.128 0 0)
(107.698 0 0)
(108.282 0 0)
(108.88 0 0)
(109.49 0 0)
(110.109 0 0)
(110.737 0 0)
(111.375 0 0)
(112.011 0 0)
(112.681 0 0)
(113.268 0 0)
(114.135 0 0)
(284.048 0 0)
(283.276 0 0)
(282.481 0 0)
(281.663 0 0)
(280.821 0 0)
(279.953 0 0)
(279.061 0 0)
(278.142 0 0)
(277.197 0 0)
(276.224 0 0)
(275.223 0 0)
(274.193 0 0)
(273.132 0 0)
(272.041 0 0)
(270.917 0 0)
(269.761 0 0)
(268.569 0 0)
(267.342 0 0)
(266.078 0 0)
(264.775 0 0)
(263.432 0 0)
(262.047 0 0)
(260.617 0 0)
(259.141 0 0)
(257.616 0 0)
(256.04 0 0)
(254.41 0 0)
(252.722 0 0)
(250.973 0 0)
(249.159 0 0)
(247.275 0 0)
(245.316 0 0)
(243.276 0 0)
(241.148 0 0)
(238.924 0 0)
(236.594 0 0)
(234.148 0 0)
(231.57 0 0)
(228.845 0 0)
(225.951 0 0)
(222.862 0 0)
(219.537 0 0)
(215.926 0 0)
(211.978 0 0)
(207.645 0 0)
(202.721 0 0)
(196.344 0 0)
(186.613 0 0)
(171.784 0 0)
(153.091 0 0)
(135.049 0 0)
(121.5 0 0)
(113.024 0 0)
(108.246 0 0)
(105.675 0 0)
(104.326 0 0)
(103.654 0 0)
(103.37 0 0)
(103.324 0 0)
(103.434 0 0)
(103.651 0 0)
(103.947 0 0)
(104.303 0 0)
(104.705 0 0)
(105.146 0 0)
(105.617 0 0)
(106.115 0 0)
(106.634 0 0)
(107.173 0 0)
(107.727 0 0)
(108.296 0 0)
(108.876 0 0)
(109.467 0 0)
(110.067 0 0)
(110.677 0 0)
(111.286 0 0)
(111.929 0 0)
(112.493 0 0)
(113.325 0 0)
(283.153 0 0)
(282.38 0 0)
(281.585 0 0)
(280.768 0 0)
(279.927 0 0)
(279.062 0 0)
(278.173 0 0)
(277.258 0 0)
(276.318 0 0)
(275.351 0 0)
(274.357 0 0)
(273.334 0 0)
(272.283 0 0)
(271.201 0 0)
(270.088 0 0)
(268.944 0 0)
(267.765 0 0)
(266.553 0 0)
(265.304 0 0)
(264.018 0 0)
(262.693 0 0)
(261.327 0 0)
(259.919 0 0)
(258.466 0 0)
(256.966 0 0)
(255.416 0 0)
(253.814 0 0)
(252.157 0 0)
(250.441 0 0)
(248.662 0 0)
(246.817 0 0)
(244.899 0 0)
(242.904 0 0)
(240.825 0 0)
(238.654 0 0)
(236.383 0 0)
(234 0 0)
(231.494 0 0)
(228.848 0 0)
(226.044 0 0)
(223.056 0 0)
(219.852 0 0)
(216.384 0 0)
(212.598 0 0)
(208.453 0 0)
(203.831 0 0)
(198.154 0 0)
(189.862 0 0)
(176.915 0 0)
(159.291 0 0)
(140.646 0 0)
(125.473 0 0)
(115.439 0 0)
(109.601 0 0)
(106.406 0 0)
(104.701 0 0)
(103.817 0 0)
(103.399 0 0)
(103.259 0 0)
(103.297 0 0)
(103.457 0 0)
(103.703 0 0)
(104.015 0 0)
(104.377 0 0)
(104.78 0 0)
(105.217 0 0)
(105.681 0 0)
(106.168 0 0)
(106.675 0 0)
(107.2 0 0)
(107.739 0 0)
(108.29 0 0)
(108.854 0 0)
(109.426 0 0)
(110.009 0 0)
(110.592 0 0)
(111.207 0 0)
(111.748 0 0)
(112.545 0 0)
(282.256 0 0)
(281.483 0 0)
(280.689 0 0)
(279.873 0 0)
(279.035 0 0)
(278.173 0 0)
(277.288 0 0)
(276.378 0 0)
(275.444 0 0)
(274.483 0 0)
(273.497 0 0)
(272.482 0 0)
(271.44 0 0)
(270.369 0 0)
(269.268 0 0)
(268.135 0 0)
(266.971 0 0)
(265.773 0 0)
(264.54 0 0)
(263.271 0 0)
(261.964 0 0)
(260.618 0 0)
(259.231 0 0)
(257.801 0 0)
(256.326 0 0)
(254.803 0 0)
(253.229 0 0)
(251.602 0 0)
(249.919 0 0)
(248.176 0 0)
(246.368 0 0)
(244.491 0 0)
(242.54 0 0)
(240.509 0 0)
(238.391 0 0)
(236.176 0 0)
(233.856 0 0)
(231.419 0 0)
(228.85 0 0)
(226.133 0 0)
(223.244 0 0)
(220.154 0 0)
(216.821 0 0)
(213.193 0 0)
(209.226 0 0)
(204.851 0 0)
(199.708 0 0)
(192.614 0 0)
(181.532 0 0)
(165.431 0 0)
(146.75 0 0)
(130.145 0 0)
(118.414 0 0)
(111.314 0 0)
(107.348 0 0)
(105.202 0 0)
(104.062 0 0)
(103.485 0 0)
(103.238 0 0)
(103.198 0 0)
(103.296 0 0)
(103.49 0 0)
(103.756 0 0)
(104.077 0 0)
(104.442 0 0)
(104.843 0 0)
(105.274 0 0)
(105.729 0 0)
(106.205 0 0)
(106.699 0 0)
(107.209 0 0)
(107.733 0 0)
(108.268 0 0)
(108.813 0 0)
(109.37 0 0)
(109.926 0 0)
(110.515 0 0)
(111.033 0 0)
(111.796 0 0)
(281.358 0 0)
(280.586 0 0)
(279.794 0 0)
(278.981 0 0)
(278.146 0 0)
(277.288 0 0)
(276.407 0 0)
(275.503 0 0)
(274.575 0 0)
(273.622 0 0)
(272.643 0 0)
(271.638 0 0)
(270.606 0 0)
(269.545 0 0)
(268.456 0 0)
(267.336 0 0)
(266.185 0 0)
(265.002 0 0)
(263.786 0 0)
(262.534 0 0)
(261.246 0 0)
(259.92 0 0)
(258.555 0 0)
(257.147 0 0)
(255.697 0 0)
(254.2 0 0)
(252.655 0 0)
(251.058 0 0)
(249.407 0 0)
(247.699 0 0)
(245.929 0 0)
(244.092 0 0)
(242.185 0 0)
(240.201 0 0)
(238.133 0 0)
(235.975 0 0)
(233.716 0 0)
(231.346 0 0)
(228.852 0 0)
(226.218 0 0)
(223.424 0 0)
(220.443 0 0)
(217.239 0 0)
(213.763 0 0)
(209.967 0 0)
(205.804 0 0)
(201.066 0 0)
(194.922 0 0)
(185.561 0 0)
(171.298 0 0)
(153.205 0 0)
(135.528 0 0)
(122.045 0 0)
(113.471 0 0)
(108.557 0 0)
(105.861 0 0)
(104.405 0 0)
(103.638 0 0)
(103.268 0 0)
(103.14 0 0)
(103.169 0 0)
(103.308 0 0)
(103.527 0 0)
(103.806 0 0)
(104.132 0 0)
(104.497 0 0)
(104.894 0 0)
(105.317 0 0)
(105.762 0 0)
(106.226 0 0)
(106.707 0 0)
(107.203 0 0)
(107.71 0 0)
(108.228 0 0)
(108.758 0 0)
(109.29 0 0)
(109.851 0 0)
(110.347 0 0)
(111.077 0 0)
(280.461 0 0)
(279.691 0 0)
(278.901 0 0)
(278.091 0 0)
(277.26 0 0)
(276.407 0 0)
(275.532 0 0)
(274.634 0 0)
(273.712 0 0)
(272.767 0 0)
(271.797 0 0)
(270.801 0 0)
(269.779 0 0)
(268.73 0 0)
(267.652 0 0)
(266.546 0 0)
(265.409 0 0)
(264.242 0 0)
(263.042 0 0)
(261.808 0 0)
(260.539 0 0)
(259.233 0 0)
(257.889 0 0)
(256.505 0 0)
(255.078 0 0)
(253.608 0 0)
(252.091 0 0)
(250.524 0 0)
(248.906 0 0)
(247.232 0 0)
(245.498 0 0)
(243.702 0 0)
(241.837 0 0)
(239.9 0 0)
(237.882 0 0)
(235.778 0 0)
(233.579 0 0)
(231.275 0 0)
(228.854 0 0)
(226.301 0 0)
(223.598 0 0)
(220.721 0 0)
(217.639 0 0)
(214.308 0 0)
(210.678 0 0)
(206.707 0 0)
(202.281 0 0)
(196.861 0 0)
(188.988 0 0)
(176.697 0 0)
(159.793 0 0)
(141.574 0 0)
(126.416 0 0)
(116.175 0 0)
(110.104 0 0)
(106.718 0 0)
(104.868 0 0)
(103.869 0 0)
(103.353 0 0)
(103.125 0 0)
(103.081 0 0)
(103.16 0 0)
(103.329 0 0)
(103.564 0 0)
(103.851 0 0)
(104.179 0 0)
(104.541 0 0)
(104.932 0 0)
(105.346 0 0)
(105.781 0 0)
(106.233 0 0)
(106.7 0 0)
(107.18 0 0)
(107.672 0 0)
(108.175 0 0)
(108.681 0 0)
(109.217 0 0)
(109.69 0 0)
(110.388 0 0)
(279.565 0 0)
(278.798 0 0)
(278.011 0 0)
(277.205 0 0)
(276.378 0 0)
(275.531 0 0)
(274.661 0 0)
(273.77 0 0)
(272.856 0 0)
(271.919 0 0)
(270.958 0 0)
(269.972 0 0)
(268.961 0 0)
(267.923 0 0)
(266.859 0 0)
(265.766 0 0)
(264.644 0 0)
(263.491 0 0)
(262.308 0 0)
(261.092 0 0)
(259.842 0 0)
(258.556 0 0)
(257.234 0 0)
(255.873 0 0)
(254.471 0 0)
(253.027 0 0)
(251.537 0 0)
(250.001 0 0)
(248.414 0 0)
(246.774 0 0)
(245.077 0 0)
(243.32 0 0)
(241.498 0 0)
(239.606 0 0)
(237.637 0 0)
(235.587 0 0)
(233.446 0 0)
(231.206 0 0)
(228.855 0 0)
(226.38 0 0)
(223.765 0 0)
(220.988 0 0)
(218.022 0 0)
(214.828 0 0)
(211.358 0 0)
(207.568 0 0)
(203.392 0 0)
(198.51 0 0)
(191.848 0 0)
(181.488 0 0)
(166.258 0 0)
(148.153 0 0)
(131.58 0 0)
(119.538 0 0)
(112.078 0 0)
(107.829 0 0)
(105.482 0 0)
(104.196 0 0)
(103.504 0 0)
(103.161 0 0)
(103.033 0 0)
(103.048 0 0)
(103.163 0 0)
(103.352 0 0)
(103.598 0 0)
(103.889 0 0)
(104.216 0 0)
(104.574 0 0)
(104.957 0 0)
(105.362 0 0)
(105.785 0 0)
(106.224 0 0)
(106.678 0 0)
(107.142 0 0)
(107.62 0 0)
(108.101 0 0)
(108.611 0 0)
(109.062 0 0)
(109.728 0 0)
(278.671 0 0)
(277.907 0 0)
(277.125 0 0)
(276.323 0 0)
(275.501 0 0)
(274.66 0 0)
(273.797 0 0)
(272.913 0 0)
(272.007 0 0)
(271.079 0 0)
(270.127 0 0)
(269.152 0 0)
(268.152 0 0)
(267.126 0 0)
(266.074 0 0)
(264.995 0 0)
(263.888 0 0)
(262.751 0 0)
(261.585 0 0)
(260.386 0 0)
(259.155 0 0)
(257.89 0 0)
(256.59 0 0)
(255.251 0 0)
(253.874 0 0)
(252.456 0 0)
(250.995 0 0)
(249.488 0 0)
(247.932 0 0)
(246.326 0 0)
(244.665 0 0)
(242.947 0 0)
(241.166 0 0)
(239.318 0 0)
(237.398 0 0)
(235.4 0 0)
(233.316 0 0)
(231.138 0 0)
(228.856 0 0)
(226.456 0 0)
(223.926 0 0)
(221.245 0 0)
(218.389 0 0)
(215.325 0 0)
(212.007 0 0)
(208.39 0 0)
(204.428 0 0)
(199.944 0 0)
(194.216 0 0)
(185.595 0 0)
(172.343 0 0)
(155.055 0 0)
(137.531 0 0)
(123.67 0 0)
(114.589 0 0)
(109.266 0 0)
(106.288 0 0)
(104.64 0 0)
(103.733 0 0)
(103.253 0 0)
(103.03 0 0)
(102.973 0 0)
(103.031 0 0)
(103.172 0 0)
(103.375 0 0)
(103.627 0 0)
(103.919 0 0)
(104.244 0 0)
(104.595 0 0)
(104.97 0 0)
(105.364 0 0)
(105.776 0 0)
(106.202 0 0)
(106.641 0 0)
(107.093 0 0)
(107.548 0 0)
(108.033 0 0)
(108.463 0 0)
(109.096 0 0)
(277.78 0 0)
(277.02 0 0)
(276.242 0 0)
(275.446 0 0)
(274.63 0 0)
(273.795 0 0)
(272.939 0 0)
(272.063 0 0)
(271.166 0 0)
(270.247 0 0)
(269.305 0 0)
(268.34 0 0)
(267.352 0 0)
(266.338 0 0)
(265.3 0 0)
(264.235 0 0)
(263.142 0 0)
(262.022 0 0)
(260.872 0 0)
(259.692 0 0)
(258.48 0 0)
(257.235 0 0)
(255.956 0 0)
(254.641 0 0)
(253.288 0 0)
(251.896 0 0)
(250.462 0 0)
(248.984 0 0)
(247.46 0 0)
(245.888 0 0)
(244.262 0 0)
(242.582 0 0)
(240.842 0 0)
(239.038 0 0)
(237.165 0 0)
(235.218 0 0)
(233.19 0 0)
(231.072 0 0)
(228.856 0 0)
(226.53 0 0)
(224.081 0 0)
(221.492 0 0)
(218.741 0 0)
(215.799 0 0)
(212.626 0 0)
(209.175 0 0)
(205.407 0 0)
(201.225 0 0)
(196.186 0 0)
(189.022 0 0)
(177.831 0 0)
(161.996 0 0)
(144.174 0 0)
(128.657 0 0)
(117.763 0 0)
(111.121 0 0)
(107.34 0 0)
(105.232 0 0)
(104.057 0 0)
(103.41 0 0)
(103.077 0 0)
(102.94 0 0)
(102.935 0 0)
(103.024 0 0)
(103.183 0 0)
(103.395 0 0)
(103.651 0 0)
(103.941 0 0)
(104.261 0 0)
(104.605 0 0)
(104.971 0 0)
(105.354 0 0)
(105.754 0 0)
(106.166 0 0)
(106.592 0 0)
(107.023 0 0)
(107.482 0 0)
(107.891 0 0)
(108.493 0 0)
(276.893 0 0)
(276.138 0 0)
(275.365 0 0)
(274.574 0 0)
(273.765 0 0)
(272.936 0 0)
(272.089 0 0)
(271.221 0 0)
(270.332 0 0)
(269.423 0 0)
(268.491 0 0)
(267.538 0 0)
(266.561 0 0)
(265.56 0 0)
(264.535 0 0)
(263.484 0 0)
(262.407 0 0)
(261.303 0 0)
(260.17 0 0)
(259.008 0 0)
(257.816 0 0)
(256.591 0 0)
(255.334 0 0)
(254.042 0 0)
(252.713 0 0)
(251.347 0 0)
(249.94 0 0)
(248.491 0 0)
(246.998 0 0)
(245.458 0 0)
(243.868 0 0)
(242.225 0 0)
(240.525 0 0)
(238.764 0 0)
(236.938 0 0)
(235.041 0 0)
(233.066 0 0)
(231.007 0 0)
(228.856 0 0)
(226.601 0 0)
(224.23 0 0)
(221.729 0 0)
(219.078 0 0)
(216.252 0 0)
(213.216 0 0)
(209.925 0 0)
(206.337 0 0)
(202.397 0 0)
(197.856 0 0)
(191.833 0 0)
(182.582 0 0)
(168.663 0 0)
(151.31 0 0)
(134.533 0 0)
(121.734 0 0)
(113.512 0 0)
(108.714 0 0)
(106.013 0 0)
(104.497 0 0)
(103.646 0 0)
(103.181 0 0)
(102.952 0 0)
(102.878 0 0)
(102.911 0 0)
(103.022 0 0)
(103.193 0 0)
(103.411 0 0)
(103.666 0 0)
(103.954 0 0)
(104.268 0 0)
(104.604 0 0)
(104.96 0 0)
(105.332 0 0)
(105.718 0 0)
(106.119 0 0)
(106.526 0 0)
(106.96 0 0)
(107.347 0 0)
(107.918 0 0)
(276.01 0 0)
(275.26 0 0)
(274.493 0 0)
(273.708 0 0)
(272.906 0 0)
(272.085 0 0)
(271.245 0 0)
(270.386 0 0)
(269.507 0 0)
(268.607 0 0)
(267.687 0 0)
(266.744 0 0)
(265.78 0 0)
(264.792 0 0)
(263.78 0 0)
(262.744 0 0)
(261.682 0 0)
(260.594 0 0)
(259.479 0 0)
(258.335 0 0)
(257.162 0 0)
(255.958 0 0)
(254.722 0 0)
(253.453 0 0)
(252.148 0 0)
(250.808 0 0)
(249.428 0 0)
(248.008 0 0)
(246.546 0 0)
(245.038 0 0)
(243.483 0 0)
(241.877 0 0)
(240.216 0 0)
(238.497 0 0)
(236.716 0 0)
(234.868 0 0)
(232.946 0 0)
(230.944 0 0)
(228.855 0 0)
(226.669 0 0)
(224.374 0 0)
(221.958 0 0)
(219.402 0 0)
(216.686 0 0)
(213.778 0 0)
(210.638 0 0)
(207.223 0 0)
(203.491 0 0)
(199.312 0 0)
(194.132 0 0)
(186.552 0 0)
(174.765 0 0)
(158.64 0 0)
(141.238 0 0)
(126.618 0 0)
(116.58 0 0)
(110.508 0 0)
(107.042 0 0)
(105.086 0 0)
(103.978 0 0)
(103.352 0 0)
(103.016 0 0)
(102.863 0 0)
(102.834 0 0)
(102.894 0 0)
(103.021 0 0)
(103.2 0 0)
(103.42 0 0)
(103.675 0 0)
(103.958 0 0)
(104.265 0 0)
(104.592 0 0)
(104.937 0 0)
(105.298 0 0)
(105.673 0 0)
(106.055 0 0)
(106.464 0 0)
(106.83 0 0)
(107.371 0 0)
(275.133 0 0)
(274.388 0 0)
(273.627 0 0)
(272.849 0 0)
(272.054 0 0)
(271.241 0 0)
(270.41 0 0)
(269.56 0 0)
(268.69 0 0)
(267.801 0 0)
(266.891 0 0)
(265.961 0 0)
(265.008 0 0)
(264.033 0 0)
(263.036 0 0)
(262.014 0 0)
(260.968 0 0)
(259.896 0 0)
(258.798 0 0)
(257.673 0 0)
(256.519 0 0)
(255.336 0 0)
(254.121 0 0)
(252.875 0 0)
(251.594 0 0)
(250.279 0 0)
(248.926 0 0)
(247.535 0 0)
(246.103 0 0)
(244.627 0 0)
(243.106 0 0)
(241.536 0 0)
(239.914 0 0)
(238.237 0 0)
(236.5 0 0)
(234.699 0 0)
(232.829 0 0)
(230.883 0 0)
(228.854 0 0)
(226.734 0 0)
(224.513 0 0)
(222.178 0 0)
(219.713 0 0)
(217.101 0 0)
(214.314 0 0)
(211.317 0 0)
(208.067 0 0)
(204.524 0 0)
(200.62 0 0)
(196.04 0 0)
(189.787 0 0)
(180.091 0 0)
(165.799 0 0)
(148.585 0 0)
(132.482 0 0)
(120.478 0 0)
(112.849 0 0)
(108.396 0 0)
(105.868 0 0)
(104.429 0 0)
(103.604 0 0)
(103.138 0 0)
(102.894 0 0)
(102.797 0 0)
(102.802 0 0)
(102.882 0 0)
(103.02 0 0)
(103.204 0 0)
(103.424 0 0)
(103.675 0 0)
(103.952 0 0)
(104.252 0 0)
(104.57 0 0)
(104.904 0 0)
(105.254 0 0)
(105.611 0 0)
(105.996 0 0)
(106.341 0 0)
(106.851 0 0)
(274.26 0 0)
(273.522 0 0)
(272.768 0 0)
(271.997 0 0)
(271.21 0 0)
(270.405 0 0)
(269.582 0 0)
(268.742 0 0)
(267.882 0 0)
(267.004 0 0)
(266.105 0 0)
(265.186 0 0)
(264.247 0 0)
(263.285 0 0)
(262.302 0 0)
(261.295 0 0)
(260.265 0 0)
(259.209 0 0)
(258.129 0 0)
(257.022 0 0)
(255.887 0 0)
(254.724 0 0)
(253.531 0 0)
(252.307 0 0)
(251.051 0 0)
(249.761 0 0)
(248.435 0 0)
(247.072 0 0)
(245.669 0 0)
(244.225 0 0)
(242.737 0 0)
(241.203 0 0)
(239.619 0 0)
(237.982 0 0)
(236.289 0 0)
(234.535 0 0)
(232.715 0 0)
(230.823 0 0)
(228.853 0 0)
(226.797 0 0)
(224.647 0 0)
(222.39 0 0)
(220.013 0 0)
(217.499 0 0)
(214.826 0 0)
(211.962 0 0)
(208.869 0 0)
(205.505 0 0)
(201.825 0 0)
(197.667 0 0)
(192.397 0 0)
(184.544 0 0)
(172.425 0 0)
(156.258 0 0)
(139.293 0 0)
(125.352 0 0)
(115.893 0 0)
(110.183 0 0)
(106.904 0 0)
(105.033 0 0)
(103.954 0 0)
(103.33 0 0)
(102.979 0 0)
(102.804 0 0)
(102.748 0 0)
(102.778 0 0)
(102.872 0 0)
(103.017 0 0)
(103.203 0 0)
(103.421 0 0)
(103.668 0 0)
(103.938 0 0)
(104.229 0 0)
(104.537 0 0)
(104.861 0 0)
(105.195 0 0)
(105.555 0 0)
(105.878 0 0)
(106.359 0 0)
(273.395 0 0)
(272.663 0 0)
(271.916 0 0)
(271.153 0 0)
(270.373 0 0)
(269.577 0 0)
(268.764 0 0)
(267.933 0 0)
(267.084 0 0)
(266.216 0 0)
(265.329 0 0)
(264.422 0 0)
(263.495 0 0)
(262.548 0 0)
(261.578 0 0)
(260.586 0 0)
(259.572 0 0)
(258.533 0 0)
(257.47 0 0)
(256.381 0 0)
(255.266 0 0)
(254.123 0 0)
(252.952 0 0)
(251.75 0 0)
(250.518 0 0)
(249.253 0 0)
(247.953 0 0)
(246.618 0 0)
(245.245 0 0)
(243.832 0 0)
(242.377 0 0)
(240.878 0 0)
(239.331 0 0)
(237.734 0 0)
(236.083 0 0)
(234.375 0 0)
(232.603 0 0)
(230.764 0 0)
(228.852 0 0)
(226.858 0 0)
(224.776 0 0)