/*--------------------------------*- C++ -*----------------------------------*\
| =========                 |                                                 |
| \\      /  F ield         | OpenFOAM: The Open Source CFD Toolbox           |
|  \\    /   O peration     | Version:  2312                                  |
|   \\  /    A nd           | Website:  www.openfoam.com                      |
|    \\/     M anipulation  |                                                 |
\*---------------------------------------------------------------------------*/
FoamFile
{
    version     2.0;
    format      ascii;
    arch        "LSB;label=32;scalar=64";
    class       volVectorField;
    location    "0.744";
    object      U;
}
// * * * * * * * * * * * * * * * * * * * * * * * * * * * * * * * * * * * * * //

dimensions      [0 1 -1 0 0 0 0];

internalField   nonuniform List<vector> 
31205
(
(201.527 0 0)
(204.284 0 0)
(206.967 0 0)
(209.582 0 0)
(212.13 0 0)
(214.616 0 0)
(217.041 0 0)
(219.409 0 0)
(221.721 0 0)
(223.98 0 0)
(226.188 0 0)
(228.346 0 0)
(230.457 0 0)
(232.522 0 0)
(234.542 0 0)
(236.519 0 0)
(238.454 0 0)
(240.348 0 0)
(242.202 0 0)
(244.018 0 0)
(245.797 0 0)
(247.539 0 0)
(249.245 0 0)
(250.916 0 0)
(252.552 0 0)
(254.156 0 0)
(255.726 0 0)
(257.264 0 0)
(258.771 0 0)
(260.246 0 0)
(261.691 0 0)
(263.106 0 0)
(264.491 0 0)
(265.847 0 0)
(267.174 0 0)
(268.472 0 0)
(269.743 0 0)
(270.985 0 0)
(272.2 0 0)
(273.388 0 0)
(274.549 0 0)
(275.684 0 0)
(276.791 0 0)
(277.873 0 0)
(278.928 0 0)
(279.957 0 0)
(280.96 0 0)
(281.938 0 0)
(282.889 0 0)
(283.815 0 0)
(284.716 0 0)
(285.591 0 0)
(286.44 0 0)
(287.264 0 0)
(288.062 0 0)
(288.835 0 0)
(289.582 0 0)
(290.303 0 0)
(290.999 0 0)
(291.668 0 0)
(292.311 0 0)
(292.928 0 0)
(293.519 0 0)
(294.083 0 0)
(294.62 0 0)
(295.13 0 0)
(295.612 0 0)
(296.066 0 0)
(296.493 0 0)
(296.89 0 0)
(297.259 0 0)
(297.598 0 0)
(297.907 0 0)
(298.186 0 0)
(298.433 0 0)
(298.65 0 0)
(298.831 0 0)
(298.982 0 0)
(299.109 0 0)
(204.452 0 0)
(207.052 0 0)
(209.587 0 0)
(212.059 0 0)
(214.473 0 0)
(216.83 0 0)
(219.132 0 0)
(221.382 0 0)
(223.582 0 0)
(225.733 0 0)
(227.838 0 0)
(229.897 0 0)
(231.913 0 0)
(233.886 0 0)
(235.819 0 0)
(237.711 0 0)
(239.565 0 0)
(241.381 0 0)
(243.161 0 0)
(244.904 0 0)
(246.613 0 0)
(248.287 0 0)
(249.929 0 0)
(251.537 0 0)
(253.114 0 0)
(254.659 0 0)
(256.174 0 0)
(257.658 0 0)
(259.113 0 0)
(260.539 0 0)
(261.936 0 0)
(263.304 0 0)
(264.645 0 0)
(265.958 0 0)
(267.245 0 0)
(268.504 0 0)
(269.737 0 0)
(270.944 0 0)
(272.125 0 0)
(273.28 0 0)
(274.41 0 0)
(275.514 0 0)
(276.594 0 0)
(277.648 0 0)
(278.678 0 0)
(279.684 0 0)
(280.665 0 0)
(281.621 0 0)
(282.554 0 0)
(283.462 0 0)
(284.346 0 0)
(285.206 0 0)
(286.042 0 0)
(286.854 0 0)
(287.642 0 0)
(288.406 0 0)
(289.145 0 0)
(289.861 0 0)
(290.552 0 0)
(291.219 0 0)
(291.861 0 0)
(292.479 0 0)
(293.071 0 0)
(293.639 0 0)
(294.182 0 0)
(294.699 0 0)
(295.191 0 0)
(295.657 0 0)
(296.097 0 0)
(296.51 0 0)
(296.896 0 0)
(297.255 0 0)
(297.586 0 0)
(297.89 0 0)
(298.164 0 0)
(298.41 0 0)
(298.626 0 0)
(298.806 0 0)
(298.986 0 0)
(207.34 0 0)
(209.791 0 0)
(212.184 0 0)
(214.522 0 0)
(216.807 0 0)
(219.04 0 0)
(221.225 0 0)
(223.362 0 0)
(225.454 0 0)
(227.501 0 0)
(229.506 0 0)
(231.47 0 0)
(233.393 0 0)
(235.278 0 0)
(237.125 0 0)
(238.936 0 0)
(240.71 0 0)
(242.45 0 0)
(244.156 0 0)
(245.829 0 0)
(247.469 0 0)
(249.078 0 0)
(250.655 0 0)
(252.203 0 0)
(253.72 0 0)
(255.208 0 0)
(256.668 0 0)
(258.099 0 0)
(259.503 0 0)
(260.879 0 0)
(262.228 0 0)
(263.551 0 0)
(264.848 0 0)
(266.119 0 0)
(267.364 0 0)
(268.584 0 0)
(269.78 0 0)
(270.95 0 0)
(272.097 0 0)
(273.219 0 0)
(274.317 0 0)
(275.392 0 0)
(276.442 0 0)
(277.47 0 0)
(278.474 0 0)
(279.455 0 0)
(280.413 0 0)
(281.348 0 0)
(282.26 0 0)
(283.15 0 0)
(284.016 0 0)
(284.86 0 0)
(285.681 0 0)
(286.48 0 0)
(287.256 0 0)
(288.009 0 0)
(288.74 0 0)
(289.448 0 0)
(290.133 0 0)
(290.795 0 0)
(291.434 0 0)
(292.05 0 0)
(292.643 0 0)
(293.213 0 0)
(293.759 0 0)
(294.281 0 0)
(294.779 0 0)
(295.253 0 0)
(295.703 0 0)
(296.128 0 0)
(296.528 0 0)
(296.903 0 0)
(297.253 0 0)
(297.576 0 0)
(297.873 0 0)
(298.143 0 0)
(298.387 0 0)
(298.593 0 0)
(298.817 0 0)
(210.116 0 0)
(212.429 0 0)
(214.691 0 0)
(216.902 0 0)
(219.067 0 0)
(221.185 0 0)
(223.258 0 0)
(225.289 0 0)
(227.279 0 0)
(229.228 0 0)
(231.138 0 0)
(233.011 0 0)
(234.847 0 0)
(236.647 0 0)
(238.413 0 0)
(240.145 0 0)
(241.844 0 0)
(243.511 0 0)
(245.146 0 0)
(246.751 0 0)
(248.325 0 0)
(249.87 0 0)
(251.387 0 0)
(252.875 0 0)
(254.335 0 0)
(255.768 0 0)
(257.174 0 0)
(258.554 0 0)
(259.907 0 0)
(261.236 0 0)
(262.539 0 0)
(263.817 0 0)
(265.071 0 0)
(266.3 0 0)
(267.506 0 0)
(268.687 0 0)
(269.846 0 0)
(270.981 0 0)
(272.093 0 0)
(273.183 0 0)
(274.25 0 0)
(275.295 0 0)
(276.317 0 0)
(277.317 0 0)
(278.296 0 0)
(279.252 0 0)
(280.187 0 0)
(281.1 0 0)
(281.992 0 0)
(282.862 0 0)
(283.711 0 0)
(284.538 0 0)
(285.344 0 0)
(286.129 0 0)
(286.892 0 0)
(287.634 0 0)
(288.355 0 0)
(289.054 0 0)
(289.731 0 0)
(290.388 0 0)
(291.022 0 0)
(291.635 0 0)
(292.227 0 0)
(292.796 0 0)
(293.343 0 0)
(293.868 0 0)
(294.371 0 0)
(294.851 0 0)
(295.309 0 0)
(295.743 0 0)
(296.155 0 0)
(296.543 0 0)
(296.907 0 0)
(297.247 0 0)
(297.562 0 0)
(297.852 0 0)
(298.121 0 0)
(298.348 0 0)
(298.611 0 0)
(212.755 0 0)
(214.941 0 0)
(217.08 0 0)
(219.175 0 0)
(221.227 0 0)
(223.237 0 0)
(225.207 0 0)
(227.138 0 0)
(229.032 0 0)
(230.889 0 0)
(232.71 0 0)
(234.497 0 0)
(236.25 0 0)
(237.97 0 0)
(239.659 0 0)
(241.316 0 0)
(242.943 0 0)
(244.54 0 0)
(246.109 0 0)
(247.648 0 0)
(249.16 0 0)
(250.644 0 0)
(252.102 0 0)
(253.533 0 0)
(254.938 0 0)
(256.318 0 0)
(257.673 0 0)
(259.003 0 0)
(260.309 0 0)
(261.591 0 0)
(262.849 0 0)
(264.084 0 0)
(265.296 0 0)
(266.486 0 0)
(267.652 0 0)
(268.797 0 0)
(269.919 0 0)
(271.02 0 0)
(272.099 0 0)
(273.157 0 0)
(274.194 0 0)
(275.209 0 0)
(276.203 0 0)
(277.177 0 0)
(278.13 0 0)
(279.062 0 0)
(279.974 0 0)
(280.866 0 0)
(281.737 0 0)
(282.588 0 0)
(283.418 0 0)
(284.229 0 0)
(285.019 0 0)
(285.79 0 0)
(286.54 0 0)
(287.27 0 0)
(287.98 0 0)
(288.67 0 0)
(289.34 0 0)
(289.989 0 0)
(290.618 0 0)
(291.227 0 0)
(291.816 0 0)
(292.384 0 0)
(292.931 0 0)
(293.457 0 0)
(293.963 0 0)
(294.448 0 0)
(294.911 0 0)
(295.353 0 0)
(295.773 0 0)
(296.172 0 0)
(296.548 0 0)
(296.902 0 0)
(297.234 0 0)
(297.541 0 0)
(297.831 0 0)
(298.076 0 0)
(298.371 0 0)
(215.255 0 0)
(217.323 0 0)
(219.35 0 0)
(221.336 0 0)
(223.283 0 0)
(225.193 0 0)
(227.066 0 0)
(228.903 0 0)
(230.707 0 0)
(232.477 0 0)
(234.214 0 0)
(235.92 0 0)
(237.595 0 0)
(239.24 0 0)
(240.855 0 0)
(242.442 0 0)
(244.001 0 0)
(245.532 0 0)
(247.036 0 0)
(248.514 0 0)
(249.966 0 0)
(251.392 0 0)
(252.793 0 0)
(254.17 0 0)
(255.523 0 0)
(256.852 0 0)
(258.158 0 0)
(259.44 0 0)
(260.7 0 0)
(261.937 0 0)
(263.153 0 0)
(264.346 0 0)
(265.518 0 0)
(266.668 0 0)
(267.798 0 0)
(268.906 0 0)
(269.994 0 0)
(271.061 0 0)
(272.108 0 0)
(273.135 0 0)
(274.142 0 0)
(275.128 0 0)
(276.096 0 0)
(277.043 0 0)
(277.971 0 0)
(278.88 0 0)
(279.769 0 0)
(280.639 0 0)
(281.49 0 0)
(282.322 0 0)
(283.135 0 0)
(283.928 0 0)
(284.703 0 0)
(285.459 0 0)
(286.196 0 0)
(286.914 0 0)
(287.613 0 0)
(288.293 0 0)
(288.954 0 0)
(289.596 0 0)
(290.219 0 0)
(290.823 0 0)
(291.408 0 0)
(291.973 0 0)
(292.52 0 0)
(293.046 0 0)
(293.553 0 0)
(294.041 0 0)
(294.508 0 0)
(294.956 0 0)
(295.383 0 0)
(295.79 0 0)
(296.177 0 0)
(296.543 0 0)
(296.888 0 0)
(297.21 0 0)
(297.517 0 0)
(297.778 0 0)
(298.102 0 0)
(217.624 0 0)
(219.582 0 0)
(221.503 0 0)
(223.388 0 0)
(225.238 0 0)
(227.053 0 0)
(228.836 0 0)
(230.586 0 0)
(232.305 0 0)
(233.993 0 0)
(235.651 0 0)
(237.281 0 0)
(238.882 0 0)
(240.455 0 0)
(242.002 0 0)
(243.521 0 0)
(245.015 0 0)
(246.483 0 0)
(247.927 0 0)
(249.346 0 0)
(250.74 0 0)
(252.111 0 0)
(253.459 0 0)
(254.784 0 0)
(256.087 0 0)
(257.367 0 0)
(258.626 0 0)
(259.862 0 0)
(261.078 0 0)
(262.273 0 0)
(263.446 0 0)
(264.6 0 0)
(265.733 0 0)
(266.846 0 0)
(267.939 0 0)
(269.013 0 0)
(270.067 0 0)
(271.101 0 0)
(272.117 0 0)
(273.114 0 0)
(274.092 0 0)
(275.051 0 0)
(275.991 0 0)
(276.913 0 0)
(277.817 0 0)
(278.702 0 0)
(279.569 0 0)
(280.418 0 0)
(281.249 0 0)
(282.062 0 0)
(282.857 0 0)
(283.634 0 0)
(284.393 0 0)
(285.135 0 0)
(285.858 0 0)
(286.564 0 0)
(287.252 0 0)
(287.921 0 0)
(288.574 0 0)
(289.208 0 0)
(289.824 0 0)
(290.422 0 0)
(291.003 0 0)
(291.565 0 0)
(292.109 0 0)
(292.634 0 0)
(293.142 0 0)
(293.631 0 0)
(294.101 0 0)
(294.553 0 0)
(294.986 0 0)
(295.4 0 0)
(295.795 0 0)
(296.17 0 0)
(296.527 0 0)
(296.861 0 0)
(297.184 0 0)
(297.459 0 0)
(297.807 0 0)
(219.868 0 0)
(221.725 0 0)
(223.549 0 0)
(225.339 0 0)
(227.097 0 0)
(228.825 0 0)
(230.522 0 0)
(232.19 0 0)
(233.829 0 0)
(235.44 0 0)
(237.024 0 0)
(238.582 0 0)
(240.113 0 0)
(241.619 0 0)
(243.099 0 0)
(244.556 0 0)
(245.988 0 0)
(247.396 0 0)
(248.782 0 0)
(250.145 0 0)
(251.485 0 0)
(252.803 0 0)
(254.1 0 0)
(255.375 0 0)
(256.63 0 0)
(257.863 0 0)
(259.076 0 0)
(260.27 0 0)
(261.443 0 0)
(262.596 0 0)
(263.73 0 0)
(264.845 0 0)
(265.941 0 0)
(267.018 0 0)
(268.076 0 0)
(269.116 0 0)
(270.137 0 0)
(271.141 0 0)
(272.126 0 0)
(273.093 0 0)
(274.043 0 0)
(274.975 0 0)
(275.89 0 0)
(276.787 0 0)
(277.667 0 0)
(278.529 0 0)
(279.375 0 0)
(280.203 0 0)
(281.014 0 0)
(281.808 0 0)
(282.586 0 0)
(283.346 0 0)
(284.09 0 0)
(284.816 0 0)
(285.526 0 0)
(286.219 0 0)
(286.896 0 0)
(287.555 0 0)
(288.198 0 0)
(288.824 0 0)
(289.433 0 0)
(290.025 0 0)
(290.6 0 0)
(291.158 0 0)
(291.699 0 0)
(292.223 0 0)
(292.73 0 0)
(293.219 0 0)
(293.691 0 0)
(294.146 0 0)
(294.583 0 0)
(295.002 0 0)
(295.404 0 0)
(295.787 0 0)
(296.153 0 0)
(296.498 0 0)
(296.834 0 0)
(297.12 0 0)
(297.489 0 0)
(221.998 0 0)
(223.761 0 0)
(225.492 0 0)
(227.194 0 0)
(228.867 0 0)
(230.512 0 0)
(232.13 0 0)
(233.72 0 0)
(235.284 0 0)
(236.823 0 0)
(238.337 0 0)
(239.826 0 0)
(241.291 0 0)
(242.733 0 0)
(244.151 0 0)
(245.547 0 0)
(246.921 0 0)
(248.273 0 0)
(249.603 0 0)
(250.912 0 0)
(252.201 0 0)
(253.469 0 0)
(254.716 0 0)
(255.944 0 0)
(257.152 0 0)
(258.341 0 0)
(259.511 0 0)
(260.662 0 0)
(261.795 0 0)
(262.908 0 0)
(264.004 0 0)
(265.082 0 0)
(266.141 0 0)
(267.184 0 0)
(268.208 0 0)
(269.215 0 0)
(270.205 0 0)
(271.178 0 0)
(272.134 0 0)
(273.073 0 0)
(273.996 0 0)
(274.902 0 0)
(275.791 0 0)
(276.664 0 0)
(277.52 0 0)
(278.361 0 0)
(279.185 0 0)
(279.993 0 0)
(280.784 0 0)
(281.56 0 0)
(282.32 0 0)
(283.064 0 0)
(283.792 0 0)
(284.504 0 0)
(285.2 0 0)
(285.881 0 0)
(286.545 0 0)
(287.194 0 0)
(287.827 0 0)
(288.444 0 0)
(289.045 0 0)
(289.631 0 0)
(290.2 0 0)
(290.753 0 0)
(291.291 0 0)
(291.812 0 0)
(292.317 0 0)
(292.806 0 0)
(293.279 0 0)
(293.735 0 0)
(294.175 0 0)
(294.598 0 0)
(295.005 0 0)
(295.395 0 0)
(295.768 0 0)
(296.122 0 0)
(296.468 0 0)
(296.764 0 0)
(297.152 0 0)
(224.021 0 0)
(225.695 0 0)
(227.342 0 0)
(228.961 0 0)
(230.554 0 0)
(232.121 0 0)
(233.663 0 0)
(235.181 0 0)
(236.675 0 0)
(238.145 0 0)
(239.592 0 0)
(241.017 0 0)
(242.419 0 0)
(243.8 0 0)
(245.16 0 0)
(246.498 0 0)
(247.816 0 0)
(249.114 0 0)
(250.392 0 0)
(251.65 0 0)
(252.889 0 0)
(254.108 0 0)
(255.309 0 0)
(256.492 0 0)
(257.656 0 0)
(258.802 0 0)
(259.93 0 0)
(261.041 0 0)
(262.134 0 0)
(263.21 0 0)
(264.269 0 0)
(265.311 0 0)
(266.336 0 0)
(267.344 0 0)
(268.336 0 0)
(269.312 0 0)
(270.271 0 0)
(271.215 0 0)
(272.142 0 0)
(273.054 0 0)
(273.95 0 0)
(274.83 0 0)
(275.695 0 0)
(276.544 0 0)
(277.378 0 0)
(278.196 0 0)
(278.999 0 0)
(279.787 0 0)
(280.56 0 0)
(281.318 0 0)
(282.06 0 0)
(282.788 0 0)
(283.5 0 0)
(284.198 0 0)
(284.881 0 0)
(285.548 0 0)
(286.201 0 0)
(286.839 0 0)
(287.462 0 0)
(288.07 0 0)
(288.663 0 0)
(289.241 0 0)
(289.804 0 0)
(290.352 0 0)
(290.885 0 0)
(291.403 0 0)
(291.905 0 0)
(292.393 0 0)
(292.865 0 0)
(293.322 0 0)
(293.763 0 0)
(294.189 0 0)
(294.6 0 0)
(294.995 0 0)
(295.374 0 0)
(295.735 0 0)
(296.09 0 0)
(296.394 0 0)
(296.797 0 0)
(225.944 0 0)
(227.536 0 0)
(229.102 0 0)
(230.644 0 0)
(232.162 0 0)
(233.656 0 0)
(235.127 0 0)
(236.576 0 0)
(238.003 0 0)
(239.409 0 0)
(240.793 0 0)
(242.157 0 0)
(243.5 0 0)
(244.823 0 0)
(246.126 0 0)
(247.411 0 0)
(248.676 0 0)
(249.922 0 0)
(251.149 0 0)
(252.359 0 0)
(253.55 0 0)
(254.724 0 0)
(255.881 0 0)
(257.019 0 0)
(258.141 0 0)
(259.246 0 0)
(260.335 0 0)
(261.406 0 0)
(262.462 0 0)
(263.501 0 0)
(264.524 0 0)
(265.532 0 0)
(266.523 0 0)
(267.499 0 0)
(268.46 0 0)
(269.405 0 0)
(270.335 0 0)
(271.25 0 0)
(272.15 0 0)
(273.035 0 0)
(273.905 0 0)
(274.76 0 0)
(275.601 0 0)
(276.427 0 0)
(277.239 0 0)
(278.036 0 0)
(278.819 0 0)
(279.587 0 0)
(280.341 0 0)
(281.081 0 0)
(281.806 0 0)
(282.518 0 0)
(283.215 0 0)
(283.898 0 0)
(284.567 0 0)
(285.222 0 0)
(285.862 0 0)
(286.489 0 0)
(287.102 0 0)
(287.7 0 0)
(288.285 0 0)
(288.855 0 0)
(289.411 0 0)
(289.954 0 0)
(290.482 0 0)
(290.995 0 0)
(291.495 0 0)
(291.98 0 0)
(292.451 0 0)
(292.908 0 0)
(293.35 0 0)
(293.777 0 0)
(294.191 0 0)
(294.589 0 0)
(294.973 0 0)
(295.339 0 0)
(295.702 0 0)
(296.013 0 0)
(296.428 0 0)
(227.774 0 0)
(229.289 0 0)
(230.78 0 0)
(232.249 0 0)
(233.696 0 0)
(235.121 0 0)
(236.526 0 0)
(237.91 0 0)
(239.274 0 0)
(240.618 0 0)
(241.943 0 0)
(243.249 0 0)
(244.536 0 0)
(245.804 0 0)
(247.054 0 0)
(248.286 0 0)
(249.501 0 0)
(250.698 0 0)
(251.878 0 0)
(253.041 0 0)
(254.187 0 0)
(255.317 0 0)
(256.43 0 0)
(257.528 0 0)
(258.609 0 0)
(259.675 0 0)
(260.725 0 0)
(261.759 0 0)
(262.778 0 0)
(263.782 0 0)
(264.772 0 0)
(265.746 0 0)
(266.705 0 0)
(267.65 0 0)
(268.58 0 0)
(269.496 0 0)
(270.397 0 0)
(271.284 0 0)
(272.158 0 0)
(273.017 0 0)
(273.862 0 0)
(274.693 0 0)
(275.51 0 0)
(276.314 0 0)
(277.104 0 0)
(277.88 0 0)
(278.642 0 0)
(279.391 0 0)
(280.127 0 0)
(280.849 0 0)
(281.558 0 0)
(282.253 0 0)
(282.935 0 0)
(283.604 0 0)
(284.259 0 0)
(284.901 0 0)
(285.53 0 0)
(286.145 0 0)
(286.748 0 0)
(287.336 0 0)
(287.912 0 0)
(288.474 0 0)
(289.024 0 0)
(289.559 0 0)
(290.082 0 0)
(290.591 0 0)
(291.087 0 0)
(291.569 0 0)
(292.038 0 0)
(292.493 0 0)
(292.935 0 0)
(293.363 0 0)
(293.778 0 0)
(294.178 0 0)
(294.566 0 0)
(294.937 0 0)
(295.305 0 0)
(295.621 0 0)
(296.046 0 0)
(229.517 0 0)
(230.959 0 0)
(232.379 0 0)
(233.78 0 0)
(235.16 0 0)
(236.521 0 0)
(237.863 0 0)
(239.186 0 0)
(240.49 0 0)
(241.776 0 0)
(243.045 0 0)
(244.295 0 0)
(245.529 0 0)
(246.745 0 0)
(247.944 0 0)
(249.127 0 0)
(250.294 0 0)
(251.444 0 0)
(252.578 0 0)
(253.697 0 0)
(254.8 0 0)
(255.888 0 0)
(256.96 0 0)
(258.018 0 0)
(259.06 0 0)
(260.088 0 0)
(261.101 0 0)
(262.1 0 0)
(263.084 0 0)
(264.054 0 0)
(265.01 0 0)
(265.953 0 0)
(266.881 0 0)
(267.795 0 0)
(268.696 0 0)
(269.583 0 0)
(270.457 0 0)
(271.318 0 0)
(272.165 0 0)
(272.999 0 0)
(273.819 0 0)
(274.627 0 0)
(275.422 0 0)
(276.203 0 0)
(276.972 0 0)
(277.728 0 0)
(278.471 0 0)
(279.201 0 0)
(279.918 0 0)
(280.623 0 0)
(281.315 0 0)
(281.995 0 0)
(282.662 0 0)
(283.316 0 0)
(283.958 0 0)
(284.587 0 0)
(285.203 0 0)
(285.808 0 0)
(286.399 0 0)
(286.978 0 0)
(287.545 0 0)
(288.099 0 0)
(288.64 0 0)
(289.169 0 0)
(289.686 0 0)
(290.19 0 0)
(290.681 0 0)
(291.16 0 0)
(291.626 0 0)
(292.079 0 0)
(292.52 0 0)
(292.948 0 0)
(293.363 0 0)
(293.765 0 0)
(294.155 0 0)
(294.529 0 0)
(294.901 0 0)
(295.221 0 0)
(295.655 0 0)
(231.178 0 0)
(232.551 0 0)
(233.906 0 0)
(235.241 0 0)
(236.559 0 0)
(237.859 0 0)
(239.141 0 0)
(240.406 0 0)
(241.654 0 0)
(242.885 0 0)
(244.1 0 0)
(245.299 0 0)
(246.481 0 0)
(247.648 0 0)
(248.799 0 0)
(249.935 0 0)
(251.056 0 0)
(252.161 0 0)
(253.252 0 0)
(254.328 0 0)
(255.39 0 0)
(256.437 0 0)
(257.471 0 0)
(258.49 0 0)
(259.495 0 0)
(260.486 0 0)
(261.464 0 0)
(262.429 0 0)
(263.379 0 0)
(264.317 0 0)
(265.241 0 0)
(266.153 0 0)
(267.051 0 0)
(267.936 0 0)
(268.809 0 0)
(269.668 0 0)
(270.515 0 0)
(271.35 0 0)
(272.172 0 0)
(272.981 0 0)
(273.778 0 0)
(274.563 0 0)
(275.336 0 0)
(276.096 0 0)
(276.844 0 0)
(277.58 0 0)
(278.303 0 0)
(279.015 0 0)
(279.715 0 0)
(280.403 0 0)
(281.078 0 0)
(281.742 0 0)
(282.394 0 0)
(283.034 0 0)
(283.662 0 0)
(284.279 0 0)
(284.883 0 0)
(285.476 0 0)
(286.057 0 0)
(286.626 0 0)
(287.183 0 0)
(287.729 0 0)
(288.262 0 0)
(288.784 0 0)
(289.294 0 0)
(289.792 0 0)
(290.279 0 0)
(290.753 0 0)
(291.216 0 0)
(291.666 0 0)
(292.105 0 0)
(292.532 0 0)
(292.947 0 0)
(293.349 0 0)
(293.741 0 0)
(294.116 0 0)
(294.492 0 0)
(294.815 0 0)
(295.255 0 0)
(232.761 0 0)
(234.071 0 0)
(235.363 0 0)
(236.638 0 0)
(237.896 0 0)
(239.138 0 0)
(240.364 0 0)
(241.574 0 0)
(242.769 0 0)
(243.948 0 0)
(245.112 0 0)
(246.261 0 0)
(247.395 0 0)
(248.515 0 0)
(249.62 0 0)
(250.711 0 0)
(251.788 0 0)
(252.851 0 0)
(253.9 0 0)
(254.936 0 0)
(255.958 0 0)
(256.967 0 0)
(257.962 0 0)
(258.945 0 0)
(259.914 0 0)
(260.871 0 0)
(261.815 0 0)
(262.746 0 0)
(263.665 0 0)
(264.571 0 0)
(265.465 0 0)
(266.346 0 0)
(267.215 0 0)
(268.073 0 0)
(268.918 0 0)
(269.751 0 0)
(270.572 0 0)
(271.381 0 0)
(272.179 0 0)
(272.965 0 0)
(273.739 0 0)
(274.501 0 0)
(275.252 0 0)
(275.991 0 0)
(276.719 0 0)
(277.435 0 0)
(278.14 0 0)
(278.834 0 0)
(279.516 0 0)
(280.187 0 0)
(280.847 0 0)
(281.495 0 0)
(282.132 0 0)
(282.758 0 0)
(283.373 0 0)
(283.977 0 0)
(284.569 0 0)
(285.15 0 0)
(285.72 0 0)
(286.279 0 0)
(286.827 0 0)
(287.364 0 0)
(287.889 0 0)
(288.404 0 0)
(288.907 0 0)
(289.399 0 0)
(289.88 0 0)
(290.35 0 0)
(290.808 0 0)
(291.256 0 0)
(291.692 0 0)
(292.117 0 0)
(292.53 0 0)
(292.932 0 0)
(293.324 0 0)
(293.701 0 0)
(294.079 0 0)
(294.404 0 0)
(294.849 0 0)
(234.273 0 0)
(235.522 0 0)
(236.755 0 0)
(237.972 0 0)
(239.175 0 0)
(240.362 0 0)
(241.535 0 0)
(242.693 0 0)
(243.837 0 0)
(244.966 0 0)
(246.082 0 0)
(247.184 0 0)
(248.272 0 0)
(249.347 0 0)
(250.408 0 0)
(251.457 0 0)
(252.492 0 0)
(253.514 0 0)
(254.524 0 0)
(255.521 0 0)
(256.505 0 0)
(257.477 0 0)
(258.436 0 0)
(259.384 0 0)
(260.319 0 0)
(261.242 0 0)
(262.153 0 0)
(263.053 0 0)
(263.94 0 0)
(264.816 0 0)
(265.681 0 0)
(266.533 0 0)
(267.375 0 0)
(268.205 0 0)
(269.023 0 0)
(269.83 0 0)
(270.627 0 0)
(271.412 0 0)
(272.185 0 0)
(272.948 0 0)
(273.7 0 0)
(274.441 0 0)
(275.171 0 0)
(275.89 0 0)
(276.598 0 0)
(277.295 0 0)
(277.982 0 0)
(278.658 0 0)
(279.323 0 0)
(279.977 0 0)
(280.621 0 0)
(281.254 0 0)
(281.877 0 0)
(282.489 0 0)
(283.09 0 0)
(283.681 0 0)
(284.261 0 0)
(284.831 0 0)
(285.39 0 0)
(285.939 0 0)
(286.477 0 0)
(287.005 0 0)
(287.522 0 0)
(288.028 0 0)
(288.525 0 0)
(289.01 0 0)
(289.485 0 0)
(289.95 0 0)
(290.404 0 0)
(290.847 0 0)
(291.28 0 0)
(291.703 0 0)
(292.114 0 0)
(292.515 0 0)
(292.907 0 0)
(293.283 0 0)
(293.663 0 0)
(293.989 0 0)
(294.437 0 0)
(235.716 0 0)
(236.908 0 0)
(238.085 0 0)
(239.248 0 0)
(240.398 0 0)
(241.533 0 0)
(242.656 0 0)
(243.765 0 0)
(244.86 0 0)
(245.943 0 0)
(247.013 0 0)
(248.07 0 0)
(249.114 0 0)
(250.146 0 0)
(251.166 0 0)
(252.174 0 0)
(253.169 0 0)
(254.152 0 0)
(255.124 0 0)
(256.084 0 0)
(257.032 0 0)
(257.968 0 0)
(258.893 0 0)
(259.807 0 0)
(260.709 0 0)
(261.6 0 0)
(262.48 0 0)
(263.349 0 0)
(264.207 0 0)
(265.053 0 0)
(265.889 0 0)
(266.714 0 0)
(267.529 0 0)
(268.332 0 0)
(269.125 0 0)
(269.908 0 0)
(270.68 0 0)
(271.441 0 0)
(272.192 0 0)
(272.932 0 0)
(273.662 0 0)
(274.382 0 0)
(275.092 0 0)
(275.791 0 0)
(276.48 0 0)
(277.159 0 0)
(277.827 0 0)
(278.486 0 0)
(279.134 0 0)
(279.772 0 0)
(280.4 0 0)
(281.019 0 0)
(281.627 0 0)
(282.225 0 0)
(282.813 0 0)
(283.391 0 0)
(283.959 0 0)
(284.518 0 0)
(285.066 0 0)
(285.604 0 0)
(286.133 0 0)
(286.651 0 0)
(287.16 0 0)
(287.659 0 0)
(288.147 0 0)
(288.626 0 0)
(289.095 0 0)
(289.554 0 0)
(290.003 0 0)
(290.442 0 0)
(290.871 0 0)
(291.291 0 0)
(291.7 0 0)
(292.099 0 0)
(292.489 0 0)
(292.865 0 0)
(293.245 0 0)
(293.572 0 0)
(294.022 0 0)
(237.094 0 0)
(238.233 0 0)
(239.357 0 0)
(240.469 0 0)
(241.569 0 0)
(242.655 0 0)
(243.73 0 0)
(244.792 0 0)
(245.842 0 0)
(246.88 0 0)
(247.906 0 0)
(248.92 0 0)
(249.923 0 0)
(250.914 0 0)
(251.894 0 0)
(252.863 0 0)
(253.82 0 0)
(254.766 0 0)
(255.702 0 0)
(256.626 0 0)
(257.539 0 0)
(258.442 0 0)
(259.334 0 0)
(260.215 0 0)
(261.086 0 0)
(261.946 0 0)
(262.795 0 0)
(263.635 0 0)
(264.464 0 0)
(265.283 0 0)
(266.091 0 0)
(266.89 0 0)
(267.678 0 0)
(268.456 0 0)
(269.224 0 0)
(269.983 0 0)
(270.731 0 0)
(271.469 0 0)
(272.198 0 0)
(272.917 0 0)
(273.626 0 0)
(274.325 0 0)
(275.015 0 0)
(275.695 0 0)
(276.365 0 0)
(277.026 0 0)
(277.677 0 0)
(278.318 0 0)
(278.95 0 0)
(279.572 0 0)
(280.185 0 0)
(280.789 0 0)
(281.383 0 0)
(281.967 0 0)
(282.542 0 0)
(283.108 0 0)
(283.664 0 0)
(284.211 0 0)
(284.748 0 0)
(285.276 0 0)
(285.795 0 0)
(286.304 0 0)
(286.804 0 0)
(287.294 0 0)
(287.775 0 0)
(288.247 0 0)
(288.71 0 0)
(289.163 0 0)
(289.606 0 0)
(290.041 0 0)
(290.466 0 0)
(290.881 0 0)
(291.288 0 0)
(291.684 0 0)
(292.072 0 0)
(292.447 0 0)
(292.826 0 0)
(293.153 0 0)
(293.603 0 0)
(238.412 0 0)
(239.499 0 0)
(240.575 0 0)
(241.638 0 0)
(242.69 0 0)
(243.73 0 0)
(244.759 0 0)
(245.777 0 0)
(246.783 0 0)
(247.779 0 0)
(248.763 0 0)
(249.737 0 0)
(250.7 0 0)
(251.653 0 0)
(252.595 0 0)
(253.526 0 0)
(254.447 0 0)
(255.358 0 0)
(256.258 0 0)
(257.148 0 0)
(258.028 0 0)
(258.898 0 0)
(259.759 0 0)
(260.609 0 0)
(261.449 0 0)
(262.279 0 0)
(263.1 0 0)
(263.911 0 0)
(264.713 0 0)
(265.504 0 0)
(266.286 0 0)
(267.059 0 0)
(267.822 0 0)
(268.576 0 0)
(269.32 0 0)
(270.055 0 0)
(270.781 0 0)
(271.497 0 0)
(272.204 0 0)
(272.902 0 0)
(273.59 0 0)
(274.27 0 0)
(274.94 0 0)
(275.601 0 0)
(276.253 0 0)
(276.896 0 0)
(277.53 0 0)
(278.155 0 0)
(278.771 0 0)
(279.378 0 0)
(279.975 0 0)
(280.564 0 0)
(281.144 0 0)
(281.715 0 0)
(282.277 0 0)
(282.83 0 0)
(283.375 0 0)
(283.91 0 0)
(284.436 0 0)
(284.954 0 0)
(285.463 0 0)
(285.963 0 0)
(286.454 0 0)
(286.936 0 0)
(287.409 0 0)
(287.874 0 0)
(288.329 0 0)
(288.776 0 0)
(289.214 0 0)
(289.643 0 0)
(290.064 0 0)
(290.475 0 0)
(290.878 0 0)
(291.271 0 0)
(291.657 0 0)
(292.03 0 0)
(292.407 0 0)
(292.733 0 0)
(293.183 0 0)
(239.672 0 0)
(240.712 0 0)
(241.74 0 0)
(242.757 0 0)
(243.764 0 0)
(244.76 0 0)
(245.746 0 0)
(246.721 0 0)
(247.687 0 0)
(248.642 0 0)
(249.587 0 0)
(250.522 0 0)
(251.447 0 0)
(252.362 0 0)
(253.268 0 0)
(254.164 0 0)
(255.05 0 0)
(255.927 0 0)
(256.794 0 0)
(257.652 0 0)
(258.5 0 0)
(259.339 0 0)
(260.168 0 0)
(260.989 0 0)
(261.8 0 0)
(262.602 0 0)
(263.394 0 0)
(264.178 0 0)
(264.953 0 0)
(265.719 0 0)
(266.475 0 0)
(267.223 0 0)
(267.962 0 0)
(268.692 0 0)
(269.413 0 0)
(270.125 0 0)
(270.829 0 0)
(271.524 0 0)
(272.21 0 0)
(272.887 0 0)
(273.556 0 0)
(274.216 0 0)
(274.868 0 0)
(275.51 0 0)
(276.145 0 0)
(276.77 0 0)
(277.387 0 0)
(277.996 0 0)
(278.596 0 0)
(279.188 0 0)
(279.771 0 0)
(280.345 0 0)
(280.911 0 0)
(281.469 0 0)
(282.018 0 0)
(282.559 0 0)
(283.091 0 0)
(283.615 0 0)
(284.131 0 0)
(284.638 0 0)
(285.137 0 0)
(285.627 0 0)
(286.109 0 0)
(286.583 0 0)
(287.049 0 0)
(287.506 0 0)
(287.954 0 0)
(288.394 0 0)
(288.826 0 0)
(289.25 0 0)
(289.665 0 0)
(290.072 0 0)
(290.471 0 0)
(290.861 0 0)
(291.244 0 0)
(291.614 0 0)
(291.989 0 0)
(292.314 0 0)
(292.763 0 0)
(240.878 0 0)
(241.872 0 0)
(242.856 0 0)
(243.829 0 0)
(244.793 0 0)
(245.748 0 0)
(246.692 0 0)
(247.628 0 0)
(248.554 0 0)
(249.47 0 0)
(250.378 0 0)
(251.276 0 0)
(252.165 0 0)
(253.045 0 0)
(253.916 0 0)
(254.778 0 0)
(255.631 0 0)
(256.475 0 0)
(257.31 0 0)
(258.137 0 0)
(258.954 0 0)
(259.763 0 0)
(260.564 0 0)
(261.355 0 0)
(262.138 0 0)
(262.913 0 0)
(263.679 0 0)
(264.436 0 0)
(265.185 0 0)
(265.926 0 0)
(266.658 0 0)
(267.382 0 0)
(268.097 0 0)
(268.804 0 0)
(269.503 0 0)
(270.194 0 0)
(270.876 0 0)
(271.55 0 0)
(272.216 0 0)
(272.873 0 0)
(273.523 0 0)
(274.164 0 0)
(274.797 0 0)
(275.422 0 0)
(276.039 0 0)
(276.648 0 0)
(277.249 0 0)
(277.841 0 0)
(278.426 0 0)
(279.002 0 0)
(279.571 0 0)
(280.131 0 0)
(280.684 0 0)
(281.229 0 0)
(281.765 0 0)
(282.294 0 0)
(282.814 0 0)
(283.327 0 0)
(283.832 0 0)
(284.329 0 0)
(284.817 0 0)
(285.298 0 0)
(285.771 0 0)
(286.237 0 0)
(286.694 0 0)
(287.143 0 0)
(287.585 0 0)
(288.018 0 0)
(288.444 0 0)
(288.862 0 0)
(289.271 0 0)
(289.673 0 0)
(290.068 0 0)
(290.454 0 0)
(290.833 0 0)
(291.2 0 0)
(291.573 0 0)
(291.896 0 0)
(292.343 0 0)
(242.033 0 0)
(242.983 0 0)
(243.925 0 0)
(244.857 0 0)
(245.78 0 0)
(246.695 0 0)
(247.601 0 0)
(248.498 0 0)
(249.386 0 0)
(250.266 0 0)
(251.138 0 0)
(252.001 0 0)
(252.855 0 0)
(253.701 0 0)
(254.539 0 0)
(255.369 0 0)
(256.19 0 0)
(257.003 0 0)
(257.807 0 0)
(258.604 0 0)
(259.392 0 0)
(260.173 0 0)
(260.945 0 0)
(261.709 0 0)
(262.465 0 0)
(263.213 0 0)
(263.953 0 0)
(264.686 0 0)
(265.41 0 0)
(266.126 0 0)
(266.835 0 0)
(267.535 0 0)
(268.228 0 0)
(268.913 0 0)
(269.59 0 0)
(270.26 0 0)
(270.921 0 0)
(271.575 0 0)
(272.221 0 0)
(272.86 0 0)
(273.49 0 0)
(274.113 0 0)
(274.729 0 0)
(275.336 0 0)
(275.936 0 0)
(276.529 0 0)
(277.113 0 0)
(277.69 0 0)
(278.26 0 0)
(278.822 0 0)
(279.376 0 0)
(279.923 0 0)
(280.462 0 0)
(280.994 0 0)
(281.518 0 0)
(282.034 0 0)
(282.543 0 0)
(283.045 0 0)
(283.539 0 0)
(284.025 0 0)
(284.504 0 0)
(284.976 0 0)
(285.44 0 0)
(285.896 0 0)
(286.345 0 0)
(286.787 0 0)
(287.221 0 0)
(287.647 0 0)
(288.066 0 0)
(288.478 0 0)
(288.882 0 0)
(289.279 0 0)
(289.669 0 0)
(290.05 0 0)
(290.426 0 0)
(290.789 0 0)
(291.159 0 0)
(291.48 0 0)
(291.923 0 0)
(243.138 0 0)
(244.048 0 0)
(244.949 0 0)
(245.842 0 0)
(246.727 0 0)
(247.604 0 0)
(248.472 0 0)
(249.333 0 0)
(250.186 0 0)
(251.031 0 0)
(251.868 0 0)
(252.698 0 0)
(253.519 0 0)
(254.333 0 0)
(255.139 0 0)
(255.937 0 0)
(256.728 0 0)
(257.511 0 0)
(258.287 0 0)
(259.055 0 0)
(259.815 0 0)
(260.568 0 0)
(261.313 0 0)
(262.051 0 0)
(262.781 0 0)
(263.503 0 0)
(264.219 0 0)
(264.927 0 0)
(265.627 0 0)
(266.32 0 0)
(267.006 0 0)
(267.684 0 0)
(268.355 0 0)
(269.019 0 0)
(269.675 0 0)
(270.324 0 0)
(270.965 0 0)
(271.6 0 0)
(272.227 0 0)
(272.846 0 0)
(273.459 0 0)
(274.064 0 0)
(274.662 0 0)
(275.253 0 0)
(275.836 0 0)
(276.413 0 0)
(276.982 0 0)
(277.544 0 0)
(278.098 0 0)
(278.646 0 0)
(279.186 0 0)
(279.72 0 0)
(280.246 0 0)
(280.765 0 0)
(281.276 0 0)
(281.781 0 0)
(282.278 0 0)
(282.769 0 0)
(283.252 0 0)
(283.728 0 0)
(284.197 0 0)
(284.659 0 0)
(285.114 0 0)
(285.562 0 0)
(286.002 0 0)
(286.436 0 0)
(286.863 0 0)
(287.282 0 0)
(287.694 0 0)
(288.1 0 0)
(288.498 0 0)
(288.889 0 0)
(289.274 0 0)
(289.651 0 0)
(290.022 0 0)
(290.382 0 0)
(290.748 0 0)
(291.066 0 0)
(291.506 0 0)
(244.198 0 0)
(245.068 0 0)
(245.931 0 0)
(246.787 0 0)
(247.635 0 0)
(248.476 0 0)
(249.309 0 0)
(250.136 0 0)
(250.955 0 0)
(251.766 0 0)
(252.571 0 0)
(253.368 0 0)
(254.158 0 0)
(254.941 0 0)
(255.717 0 0)
(256.485 0 0)
(257.247 0 0)
(258.001 0 0)
(258.749 0 0)
(259.489 0 0)
(260.222 0 0)
(260.949 0 0)
(261.668 0 0)
(262.38 0 0)
(263.086 0 0)
(263.784 0 0)
(264.475 0 0)
(265.16 0 0)
(265.837 0 0)
(266.508 0 0)
(267.171 0 0)
(267.828 0 0)
(268.478 0 0)
(269.121 0 0)
(269.757 0 0)
(270.386 0 0)
(271.008 0 0)
(271.623 0 0)
(272.232 0 0)
(272.834 0 0)
(273.428 0 0)
(274.016 0 0)
(274.597 0 0)
(275.172 0 0)
(275.739 0 0)
(276.3 0 0)
(276.854 0 0)
(277.401 0 0)
(277.941 0 0)
(278.475 0 0)
(279.001 0 0)
(279.521 0 0)
(280.034 0 0)
(280.541 0 0)
(281.04 0 0)
(281.533 0 0)
(282.019 0 0)
(282.499 0 0)
(282.971 0 0)
(283.437 0 0)
(283.896 0 0)
(284.349 0 0)
(284.795 0 0)
(285.234 0 0)
(285.666 0 0)
(286.092 0 0)
(286.51 0 0)
(286.923 0 0)
(287.328 0 0)
(287.727 0 0)
(288.119 0 0)
(288.505 0 0)
(288.884 0 0)
(289.256 0 0)
(289.622 0 0)
(289.978 0 0)
(290.34 0 0)
(290.655 0 0)
(291.091 0 0)
(245.213 0 0)
(246.047 0 0)
(246.874 0 0)
(247.694 0 0)
(248.507 0 0)
(249.313 0 0)
(250.113 0 0)
(250.906 0 0)
(251.693 0 0)
(252.473 0 0)
(253.246 0 0)
(254.013 0 0)
(254.773 0 0)
(255.526 0 0)
(256.273 0 0)
(257.013 0 0)
(257.747 0 0)
(258.474 0 0)
(259.194 0 0)
(259.908 0 0)
(260.615 0 0)
(261.316 0 0)
(262.011 0 0)
(262.699 0 0)
(263.38 0 0)
(264.055 0 0)
(264.723 0 0)
(265.385 0 0)
(266.04 0 0)
(266.689 0 0)
(267.331 0 0)
(267.967 0 0)
(268.597 0 0)
(269.219 0 0)
(269.836 0 0)
(270.446 0 0)
(271.049 0 0)
(271.646 0 0)
(272.237 0 0)
(272.821 0 0)
(273.399 0 0)
(273.97 0 0)
(274.535 0 0)
(275.093 0 0)
(275.645 0 0)
(276.19 0 0)
(276.729 0 0)
(277.262 0 0)
(277.788 0 0)
(278.308 0 0)
(278.821 0 0)
(279.328 0 0)
(279.828 0 0)
(280.323 0 0)
(280.81 0 0)
(281.291 0 0)
(281.766 0 0)
(282.235 0 0)
(282.697 0 0)
(283.153 0 0)
(283.602 0 0)
(284.045 0 0)
(284.482 0 0)
(284.912 0 0)
(285.336 0 0)
(285.753 0 0)
(286.164 0 0)
(286.569 0 0)
(286.968 0 0)
(287.36 0 0)
(287.746 0 0)
(288.125 0 0)
(288.499 0 0)
(288.865 0 0)
(289.227 0 0)
(289.578 0 0)
(289.936 0 0)
(290.248 0 0)
(290.679 0 0)
(246.186 0 0)
(246.985 0 0)
(247.778 0 0)
(248.564 0 0)
(249.344 0 0)
(250.118 0 0)
(250.886 0 0)
(251.647 0 0)
(252.403 0 0)
(253.152 0 0)
(253.896 0 0)
(254.633 0 0)
(255.364 0 0)
(256.089 0 0)
(256.808 0 0)
(257.521 0 0)
(258.228 0 0)
(258.929 0 0)
(259.624 0 0)
(260.312 0 0)
(260.995 0 0)
(261.671 0 0)
(262.342 0 0)
(263.006 0 0)
(263.664 0 0)
(264.316 0 0)
(264.963 0 0)
(265.603 0 0)
(266.237 0 0)
(266.864 0 0)
(267.486 0 0)
(268.102 0 0)
(268.712 0 0)
(269.315 0 0)
(269.913 0 0)
(270.504 0 0)
(271.089 0 0)
(271.669 0 0)
(272.242 0 0)
(272.809 0 0)
(273.37 0 0)
(273.925 0 0)
(274.474 0 0)
(275.016 0 0)
(275.553 0 0)
(276.084 0 0)
(276.608 0 0)
(277.127 0 0)
(277.639 0 0)
(278.145 0 0)
(278.645 0 0)
(279.14 0 0)
(279.628 0 0)
(280.11 0 0)
(280.585 0 0)
(281.055 0 0)
(281.519 0 0)
(281.977 0 0)
(282.429 0 0)
(282.874 0 0)
(283.314 0 0)
(283.747 0 0)
(284.175 0 0)
(284.596 0 0)
(285.012 0 0)
(285.421 0 0)
(285.825 0 0)
(286.222 0 0)
(286.613 0 0)
(286.999 0 0)
(287.378 0 0)
(287.752 0 0)
(288.119 0 0)
(288.48 0 0)
(288.837 0 0)
(289.183 0 0)
(289.536 0 0)
(289.844 0 0)
(290.27 0 0)
(247.12 0 0)
(247.886 0 0)
(248.646 0 0)
(249.399 0 0)
(250.148 0 0)
(250.891 0 0)
(251.628 0 0)
(252.36 0 0)
(253.086 0 0)
(253.806 0 0)
(254.521 0 0)
(255.23 0 0)
(255.934 0 0)
(256.632 0 0)
(257.324 0 0)
(258.011 0 0)
(258.692 0 0)
(259.368 0 0)
(260.038 0 0)
(260.702 0 0)
(261.361 0 0)
(262.014 0 0)
(262.661 0 0)
(263.303 0 0)
(263.939 0 0)
(264.569 0 0)
(265.194 0 0)
(265.813 0 0)
(266.427 0 0)
(267.034 0 0)
(267.636 0 0)
(268.233 0 0)
(268.823 0 0)
(269.408 0 0)
(269.987 0 0)
(270.561 0 0)
(271.128 0 0)
(271.69 0 0)
(272.247 0 0)
(272.797 0 0)
(273.342 0 0)
(273.881 0 0)