/*--------------------------------*- C++ -*----------------------------------*\
| =========                 |                                                 |
| \\      /  F ield         | OpenFOAM: The Open Source CFD Toolbox           |
|  \\    /   O peration     | Version:  2312                                  |
|   \\  /    A nd           | Website:  www.openfoam.com                      |
|    \\/     M anipulation  |                                                 |
\*---------------------------------------------------------------------------*/
FoamFile
{
    version     2.0;
    format      ascii;
    arch        "LSB;label=32;scalar=64";
    class       surfaceScalarField;
    location    "0.396";
    object      phi;
}
// * * * * * * * * * * * * * * * * * * * * * * * * * * * * * * * * * * * * * //

dimensions      [0 3 -1 0 0 0 0];

oriented        oriented;

internalField   nonuniform List<scalar> 
62015
(
38.9452
0.205046
-40.055
37.8271
0.196165
36.702
0.1873
35.5712
0.178473
34.4377
0.169709
33.3061
0.161041
32.1834
0.152512
31.0803
0.144175
30.0111
0.136098
28.9939
0.128357
28.049
0.121032
27.1963
0.114194
26.452
0.107891
25.8263
0.102139
25.3219
0.0969211
24.9352
0.0921896
24.6571
0.0878781
24.476
0.0839108
24.3792
0.0802116
24.354
0.0767099
24.3892
0.0733434
24.4745
0.0700593
24.6017
0.0668138
24.7636
0.0635712
24.9544
0.0603032
25.1695
0.0569866
25.4049
0.0536034
25.6575
0.0501394
25.925
0.0465835
26.2052
0.042927
26.4965
0.0391633
26.7976
0.0352872
27.1074
0.0312958
27.4252
0.0271858
27.7502
0.0229561
28.0819
0.0186055
28.4198
0.0141342
28.7636
0.00954216
29.1132
0.00483036
29.4682
0
29.8285
-0.00494756
30.1941
-0.01001
30.5648
-0.0151861
30.9407
-0.0204726
31.3218
-0.0258677
31.708
-0.0313682
32.0993
-0.0369716
32.4959
-0.0426744
32.8978
-0.0484741
33.305
-0.0543667
33.7176
-0.0603491
34.1357
-0.0664178
34.5594
-0.0725692
34.9887
-0.0787995
35.4238
-0.0851049
35.8646
-0.0914813
36.3114
-0.0979254
36.7641
-0.104433
37.2229
-0.110999
37.6878
-0.11762
38.1589
-0.124292
38.6364
-0.131011
39.1202
-0.137772
39.6104
-0.144571
40.1071
-0.151403
40.6103
-0.158264
41.1201
-0.16515
41.6366
-0.172056
42.1598
-0.178978
42.6898
-0.185911
43.2264
-0.19285
43.77
-0.19979
44.3202
-0.206729
44.8778
-0.213658
45.4405
-0.220583
46.0156
-0.227466
46.5806
-0.234408
47.2047
-0.241071
-0.248496
47.6758
36.9796
0.395199
-38.0464
35.9053
0.377946
34.826
0.360747
33.7439
0.343648
32.6628
0.326709
31.5885
0.310007
30.5298
0.293637
29.4986
0.277719
28.5103
0.262392
27.5829
0.247807
26.7349
0.234103
25.9826
0.221389
25.3375
0.209721
24.8051
0.19909
24.3843
0.18943
24.0688
0.180631
23.8491
0.172555
23.7138
0.165061
23.6511
0.158009
23.6501
0.151275
23.701
0.144751
23.7952
0.138344
23.9256
0.13198
24.0862
0.125597
24.2721
0.119146
24.4794
0.112587
24.7047
0.10589
24.9454
0.0990291
25.1995
0.0919852
25.4651
0.0847434
25.7409
0.0772919
26.0257
0.0696223
26.3187
0.0617281
26.619
0.0536054
26.9261
0.0452511
27.2396
0.0366641
27.559
0.0278443
27.8841
0.0187923
28.2146
0.00951019
28.5505
0
28.8914
-0.0097351
29.2375
-0.0196914
29.5886
-0.0298651
29.9447
-0.0402515
30.3058
-0.0508454
30.6719
-0.061642
31.043
-0.0726355
31.4192
-0.0838198
31.8006
-0.0951893
32.1871
-0.106737
32.579
-0.118457
32.9761
-0.130341
33.3787
-0.142384
33.7867
-0.154577
34.2003
-0.166914
34.6196
-0.179387
35.0445
-0.191988
35.4753
-0.204709
35.9119
-0.217543
36.3544
-0.230481
36.803
-0.243516
37.2576
-0.256638
37.7184
-0.269841
38.1854
-0.283114
38.6586
-0.296451
39.1382
-0.309841
39.6241
-0.323277
40.1164
-0.33675
40.6152
-0.35025
41.1205
-0.36377
41.6323
-0.377301
42.1507
-0.390832
42.6755
-0.404357
43.2074
-0.417861
43.7443
-0.431355
44.2929
-0.444765
44.8323
-0.458285
45.4267
-0.471275
-0.485695
45.8808
35.0628
0.570669
-36.0875
34.0325
0.545564
32.9997
0.520579
31.9677
0.495795
30.9414
0.471316
29.9281
0.447271
28.9379
0.423823
27.9839
0.401161
27.0819
0.379494
26.2486
0.359027
25.4997
0.339927
24.8471
0.322301
24.2979
0.306167
23.8532
0.291463
23.509
0.278054
23.2578
0.265764
23.0897
0.254393
22.9942
0.243742
22.9608
0.233629
22.9802
0.223888
23.044
0.21438
23.145
0.204986
23.2772
0.195611
23.4357
0.186176
23.6162
0.176617
23.8156
0.166884
24.0309
0.156935
24.2601
0.146739
24.5012
0.136271
24.7529
0.12551
25.0138
0.114443
25.2832
0.103057
25.56
0.0913447
25.8438
0.0793007
26.134
0.0669216
26.4302
0.0542059
26.732
0.041154
27.0393
0.0277669
27.3519
0.0140479
27.6695
0
27.9921
-0.014372
28.3197
-0.0290625
28.6521
-0.0440658
28.9894
-0.0593752
29.3316
-0.0749837
29.6786
-0.0908831
30.0305
-0.107066
30.3874
-0.123523
30.7493
-0.140246
31.1163
-0.157225
31.4884
-0.17445
31.8657
-0.191912
32.2482
-0.209601
32.636
-0.227506
33.0293
-0.245616
33.428
-0.26392
33.8322
-0.282408
34.2421
-0.301067
34.6576
-0.319887
35.0789
-0.338856
35.506
-0.357961
35.939
-0.377191
36.3779
-0.396533
36.8228
-0.415976
37.2738
-0.435507
37.7308
-0.455113
38.194
-0.474783
38.6634
-0.494502
39.139
-0.514259
39.6209
-0.53404
40.109
-0.553833
40.6035
-0.573624
41.1041
-0.593403
41.6116
-0.613148
42.1239
-0.632874
42.6473
-0.652478
43.1624
-0.672232
43.7288
-0.69123
-0.712249
44.1651
33.2178
0.732052
-34.2007
32.2317
0.699629
31.2464
0.667431
30.2661
0.635582
29.297
0.604242
28.3479
0.573606
27.43
0.543906
26.5571
0.515397
25.7441
0.488341
25.0057
0.462963
24.3537
0.43942
23.796
0.417771
23.3355
0.397972
22.9699
0.379885
22.6935
0.363307
22.4981
0.347998
22.3743
0.333709
22.3124
0.320201
22.3036
0.307259
22.3396
0.294693
22.4136
0.282344
22.5195
0.270077
22.6524
0.257783
22.808
0.245373
22.9829
0.232773
23.1744
0.219926
23.38
0.206785
23.5981
0.193313
23.8269
0.179482
24.0653
0.165267
24.3122
0.150654
24.5669
0.135627
24.8285
0.120178
25.0967
0.104302
25.3709
0.0879939
25.6507
0.0712533
25.936
0.0540806
26.2265
0.0364782
26.5221
0.0184497
26.8225
0
27.1278
-0.0188649
27.4379
-0.0381378
27.7527
-0.0578112
28.0722
-0.077876
28.3965
-0.0983232
28.7255
-0.119143
29.0593
-0.140324
29.3979
-0.161856
29.7414
-0.183727
30.0897
-0.205925
30.4431
-0.228437
30.8015
-0.251252
31.165
-0.274354
31.5337
-0.297732
31.9077
-0.321371
32.2869
-0.345257
32.6715
-0.369376
33.0615
-0.393712
33.4571
-0.418251
33.8582
-0.442979
34.2649
-0.467878
34.6773
-0.492935
35.0954
-0.518133
35.5194
-0.543456
35.9491
-0.568889
36.3848
-0.594415
36.8264
-0.620018
37.2739
-0.645681
37.7274
-0.671388
38.187
-0.697122
38.6526
-0.722868
39.1243
-0.748606
39.6019
-0.774324
40.0861
-0.799994
40.575
-0.825635
41.0744
-0.851115
41.5664
-0.876778
42.1062
-0.901477
-0.928731
42.5248
31.4549
0.880098
-32.3956
30.5138
0.840917
29.5774
0.802114
28.651
0.763869
27.7421
0.726406
26.8606
0.68999
26.0183
0.654918
25.2288
0.621496
24.5053
0.590002
23.8594
0.560645
23.2994
0.533529
22.829
0.508638
22.4479
0.485846
22.1516
0.464939
21.9335
0.44565
21.7853
0.42769
21.6984
0.410775
21.6642
0.39464
21.6751
0.37905
21.7243
0.363802
21.8059
0.348726
21.9149
0.333679
22.0472
0.318544
22.1992
0.303225
22.3682
0.287645
22.5518
0.271742
22.7481
0.255466
22.9554
0.238776
23.1725
0.221641
23.3983
0.204038
23.6319
0.185946
23.8727
0.167353
24.12
0.148249
24.3734
0.128627
24.6325
0.108485
24.897
0.0878207
25.1666
0.0666362
25.4413
0.0449345
25.7208
0.0227203
26.0051
0
26.294
-0.0232189
26.5875
-0.0469281
26.8857
-0.0711175
27.1884
-0.0957767
27.4958
-0.120894
27.8077
-0.146458
28.1243
-0.172456
28.4456
-0.198873
28.7716
-0.225696
29.1024
-0.252911
29.4381
-0.280501
29.7786
-0.308452
30.1241
-0.336748
30.4746
-0.365372
30.8302
-0.394307
31.191
-0.423536
31.5569
-0.453042
31.9281
-0.482807
32.3046
-0.512813
32.6866
-0.543041
33.0739
-0.573472
33.4668
-0.604089
33.8651
-0.634871
34.2691
-0.6658
34.6787
-0.696857
35.094
-0.72802
35.515
-0.759272
35.9418
-0.790591
36.3743
-0.821958
36.8126
-0.853353
37.2568
-0.884755
37.7068
-0.916144
38.1625
-0.947502
38.6246
-0.978796
39.0911
-1.01005
39.5677
-1.0411
40.0374
-1.07237
40.5523
-1.10248
-1.13562
40.9533
29.7781
1.01562
-30.6759
28.8834
0.970276
27.9979
0.925525
27.128
0.881609
26.2824
0.838822
25.4715
0.797492
24.7071
0.757965
24.0016
0.720564
23.3658
0.685545
22.808
0.653058
22.3327
0.623126
21.9407
0.595642
21.6291
0.570397
21.3923
0.547109
21.2233
0.525461
21.1143
0.505129
21.0575
0.485808
21.0456
0.46722
21.0721
0.449121
21.1313
0.431303
21.2182
0.413592
21.3287
0.39584
21.4593
0.37793
21.6073
0.359763
21.7701
0.341259
21.9458
0.322354
22.1328
0.302996
22.3298
0.283145
22.5357
0.262767
22.7495
0.241838
22.9705
0.220338
23.1981
0.198252
23.4318
0.175573
23.6713
0.152292
23.9162
0.128408
24.1662
0.10392
24.4211
0.0788301
24.6808
0.0531427
24.9452
0.0268634
25.2142
0
25.4877
-0.0274386
25.7656
-0.0554422
26.048
-0.0839993
26.3349
-0.113098
26.6263
-0.142724
26.9221
-0.172863
27.2224
-0.203502
27.5273
-0.234623
27.8368
-0.26621
28.151
-0.298247
28.4698
-0.330716
28.7934
-0.363598
29.1218
-0.396875
29.4551
-0.430528
29.7933
-0.464537
30.1365
-0.498883
30.4847
-0.533544
30.8381
-0.5685
31.1965
-0.60373
31.5602
-0.639213
31.9292
-0.674926
32.3034
-0.710849
32.683
-0.746958
33.068
-0.783231
33.4585
-0.819646
33.8544
-0.85618
34.2558
-0.892809
34.6628
-0.929511
35.0753
-0.966262
35.4934
-1.00304
35.9171
-1.03982
36.3465
-1.07657
36.7813
-1.11329
37.2222
-1.14992
37.6675
-1.1865
38.1224
-1.22284
38.5709
-1.25941
39.0619
-1.29465
-1.33337
39.446
28.1884
1.13946
-29.042
27.342
1.0886
26.5098
1.03862
25.6994
0.989822
24.9198
0.942564
24.1818
0.897223
23.4964
0.85416
22.8736
0.813675
22.3216
0.775962
21.8455
0.741084
21.4467
0.708965
21.1235
0.679407
20.8717
0.652127
20.6852
0.62679
20.557
0.603044
20.4801
0.580547
20.4477
0.558983
20.4535
0.538073
20.492
0.51757
20.5584
0.497269
20.6487
0.476995
20.7593
0.456603
20.8875
0.435975
21.0308
0.415013
21.1872
0.393636
21.3552
0.371781
21.5332
0.349396
21.7202
0.326439
21.9153
0.302877
22.1177
0.278686
22.3267
0.253845
22.5419
0.228341
22.7628
0.202166
22.9892
0.175311
23.2206
0.147777
23.4569
0.119563
23.6979
0.090672
23.9436
0.0611094
24.1937
0.0308826
24.4482
0
24.7071
-0.0315278
24.9703
-0.0636887
25.2379
-0.0964701
25.5098
-0.129858
25.786
-0.163836
26.0665
-0.198389
26.3515
-0.2335
26.6409
-0.269151
26.9348
-0.305322
27.2331
-0.341996
27.5361
-0.379151
27.8436
-0.416767
28.1558
-0.454824
28.4727
-0.493298
28.7945
-0.532169
29.121
-0.571414
29.4524
-0.611008
29.7888
-0.65093
30.1301
-0.691154
30.4765
-0.731658
30.8279
-0.772415
31.1845
-0.813401
31.5463
-0.854591
31.9132
-0.89596
32.2854
-0.937482
32.6629
-0.979131
33.0457
-1.02088
33.4338
-1.0627
33.8273
-1.10458
34.2261
-1.14647
34.6304
-1.18836
35.0401
-1.23021
35.4551
-1.27201
35.8759
-1.31371
36.3009
-1.35534
36.735
-1.3967
37.1632
-1.4383
37.6316
-1.47841
-1.52238
37.9994
26.6858
1.25252
-27.4935
25.89
1.19686
25.1138
1.14242
24.3655
1.08958
23.6544
1.03874
22.9904
0.990296
22.3829
0.944579
21.8397
0.901827
21.366
0.862143
20.964
0.825484
20.6329
0.791675
20.3694
0.76044
20.1684
0.731435
20.0238
0.70429
19.9293
0.678635
19.8784
0.654123
19.8655
0.630436
19.8851
0.6073
19.9326
0.584475
20.004
0.561758
20.096
0.538982
20.2058
0.516004
20.3308
0.492708
20.4691
0.469
20.619
0.4448
20.7792
0.420045
20.9485
0.394684
21.1259
0.368676
21.3107
0.34199
21.5022
0.314599
21.6999
0.286486
21.9033
0.257637
22.1121
0.228043
22.326
0.1977
22.5448
0.166605
22.7682
0.134761
22.9961
0.102171
23.2284
0.0688418
23.465
0.0347813
23.7059
0
23.9511
-0.0354903
24.2004
-0.0716764
24.4539
-0.108543
24.7116
-0.146076
24.9735
-0.184256
25.2397
-0.223066
25.5101
-0.262488
25.7848
-0.3025
26.0638
-0.343084
26.3473
-0.384215
26.6351
-0.425874
26.9274
-0.468036
27.2243
-0.510679
27.5257
-0.553777
27.8318
-0.597307
28.1425
-0.641244
28.458
-0.685561
28.7782
-0.730232
29.1033
-0.775232
29.4332
-0.820532
29.7681
-0.866106
30.1078
-0.911926
30.4526
-0.957964
30.8024
-1.00419
31.1573
-1.05058
31.5172
-1.0971
31.8823
-1.14373
32.2525
-1.19043
32.6278
-1.23717
33.0083
-1.28393
33.3941
-1.33067
33.785
-1.37737
34.1811
-1.424
34.5827
-1.47051
34.9884
-1.51693
35.4028
-1.56305
35.8117
-1.60942
36.2586
-1.65415
-1.70307
36.6108
25.2702
1.35575
-26.0299
24.5274
1.29605
23.8098
1.238
23.1258
1.182
22.4843
1.12847
21.8938
1.07779
21.3618
1.03022
20.8935
0.985912
20.4914
0.94485
20.1554
0.906889
19.8832
0.871766
19.6705
0.839141
19.5122
0.808632
19.4023
0.77985
19.3352
0.75242
19.3054
0.725997
19.3077
0.700274
19.3379
0.674984
19.392
0.649898
19.4667
0.624821
19.5592
0.599592
19.6671
0.574075
19.7884
0.548158
19.9215
0.521748
20.0649
0.494771
20.2175
0.467165
20.3783
0.43888
20.5465
0.409877
20.7215
0.380123
20.9027
0.349597
21.0896
0.318279
21.2818
0.286157
21.4792
0.253223
21.6813
0.219473
21.8881
0.184907
22.0993
0.149526
22.3148
0.113337
22.5346
0.0763461
22.7585
0.0385633
22.9865
0
23.2186
-0.0393305
23.4548
-0.0794133
23.6951
-0.120232
23.9394
-0.16177
24.1878
-0.204008
24.4403
-0.246925
24.6969
-0.290502
24.9577
-0.334716
25.2228
-0.379545
25.492
-0.424965
25.7656
-0.470951
26.0435
-0.517479
26.3258
-0.564523
26.6126
-0.612056
26.9038
-0.660052
27.1995
-0.708483
27.4998
-0.757321
27.8048
-0.806537
28.1144
-0.856102
28.4287
-0.905987
28.7477
-0.956161
29.0715
-1.0066
29.4002
-1.05726
29.7336
-1.10812
30.072
-1.15915
30.4153
-1.21031
30.7635
-1.26158
31.1166
-1.31292
31.4747
-1.3643
31.8378
-1.41568
32.2059
-1.46704
32.579
-1.51834
32.957
-1.56956
33.3404
-1.62063
33.7277
-1.6716
34.1232
-1.72223
34.5138
-1.77312
34.9401
-1.82222
-1.87583
35.2775
23.9413
1.45018
-24.6507
23.2539
1.38728
22.597
1.32647
21.9786
1.26819
21.4065
1.21284
20.8876
1.16071
20.4269
1.11199
20.0273
1.0667
19.6894
1.02472
19.4113
0.985809
19.1896
0.949639
19.0199
0.915824
18.897
0.88396
18.8157
0.853655
18.7708
0.824539
18.7576
0.796279
18.772
0.768581
18.8101
0.741191
18.8688
0.713892
18.9453
0.686499
19.0373
0.65886
19.1427
0.630846
19.2599
0.602349
19.3876
0.573282
19.5245
0.543573
19.6697
0.513163
19.8223
0.482005
19.9817
0.450059
20.1473
0.417298
20.3186
0.383697
20.4953
0.349241
20.677
0.313918
20.8635
0.277721
21.0545
0.240646
21.25
0.202695
21.4497
0.16387
21.6535
0.124179
21.8614
0.0836291
22.0733
0.0422319
22.2892
0
22.509
-0.0430519
22.7328
-0.0869078
22.9605
-0.13155
23.1922
-0.176959
23.4278
-0.223114
23.6674
-0.269994
23.911
-0.317577
24.1586
-0.365839
24.4104
-0.414755
24.6663
-0.464299
24.9263
-0.514445
25.1905
-0.565167
25.459
-0.616436
25.7318
-0.668223
26.009
-0.720501
26.2905
-0.773237
26.5764
-0.826404
26.8668
-0.879968
27.1618
-0.9339
27.4612
-0.988167
27.7653
-1.04274
28.0739
-1.09758
28.3872
-1.15265
28.7052
-1.20793
29.0279
-1.26339
29.3553
-1.31897
29.6874
-1.37466
30.0243
-1.43042
30.366
-1.4862
30.7125
-1.54199
31.0638
-1.59774
31.4199
-1.65341
31.7808
-1.70898
32.1467
-1.76439
32.5165
-1.81967
32.8942
-1.87457
33.2672
-1.92974
33.674
-1.98301
-2.04103
33.9971
22.6989
1.53691
-23.3558
22.0689
1.47166
21.4739
1.40897
20.9211
1.34926
20.4167
1.29286
19.9657
1.23997
19.571
1.19065
19.2335
1.14482
18.952
1.10226
18.7238
1.06265
18.5451
1.02561
18.4113
0.990726
18.3177
0.957602
18.2596
0.925845
18.2325
0.895101
18.2325
0.865053
18.2561
0.835423
18.3
0.805973
18.3617
0.776498
18.4389
0.746828
18.5295
0.716816
18.6319
0.686342
18.7448
0.655305
18.867
0.623623
18.9975
0.591226
19.1354
0.558059
19.2801
0.524077
19.4311
0.489244
19.5877
0.453532
19.7497
0.41692
19.9167
0.379392
20.0884
0.340939
20.2647
0.301553
20.4452
0.261234
20.63
0.219983
20.8188
0.177804
21.0116
0.134706
21.2083
0.0906973
21.4089
0.0457905
21.6133
0
21.8215
-0.0466585
22.0336
-0.0941676
22.2494
-0.142508
22.4691
-0.191658
22.6926
-0.241598
22.92
-0.292302
23.1513
-0.343748
23.3865
-0.395909
23.6257
-0.44876
23.8688
-0.502272
24.1161
-0.556418
24.3674
-0.611168
24.6228
-0.666494
24.8823
-0.722363
25.1461
-0.778745
25.4141
-0.835608
25.6864
-0.89292
25.9631
-0.950647
26.244
-1.00876
26.5294
-1.06721
26.8192
-1.12598
27.1134
-1.18503
27.4121
-1.24432
27.7153
-1.30381
28.0231
-1.36348
28.3354
-1.42328
28.6523
-1.48318
28.9738
-1.54314
29.2999
-1.60313
29.6306
-1.66309
29.9659
-1.72301
30.3058
-1.78284
30.6503
-1.84254
30.9997
-1.90207
31.3528
-1.96144
31.7134
-2.0204
32.0698
-2.07962
32.4579
-2.13683
-2.19902
32.7675
21.5423
1.61707
-22.1448
20.9708
1.55034
20.4379
1.48661
19.9492
1.42623
19.5095
1.36945
19.1216
1.31634
18.7867
1.26686
18.5041
1.2208
18.2716
1.17788
18.086
1.13771
17.9433
1.0999
17.8393
1.06403
17.7696
1.0297
17.7303
0.996528
17.7174
0.964189
17.7277
0.932384
17.7582
0.900852
17.8062
0.869372
17.8696
0.837753
17.9465
0.805836
18.0351
0.773486
18.1342
0.740588
18.2426
0.707049
18.3593
0.672792
18.4834
0.637751
18.6144
0.601874
18.7515
0.565118
18.8944
0.527451
19.0425
0.488846
19.1957
0.449284
19.3535
0.40875
19.5158
0.367236
19.6823
0.324736
19.853
0.281252
20.0276
0.236784
20.2062
0.19134
20.3885
0.144927
20.5747
0.0975569
20.7645
0.0492428
20.9581
0
21.1554
-0.0501541
21.3563
-0.101201
21.561
-0.153119
21.7693
-0.205887
21.9814
-0.25948
22.1973
-0.313876
22.4169
-0.369047
22.6403
-0.424966
22.8676
-0.481605
23.0987
-0.538936
23.3338
-0.596927
23.5728
-0.655549
23.8158
-0.71477
24.0629
-0.774556
24.314
-0.834875
24.5692
-0.895693
24.8285
-0.956975
25.092
-1.01869
25.3598
-1.08079
25.6317
-1.14325
25.908
-1.20604
26.1885
-1.2691
26.4733
-1.33241
26.7625
-1.39593
27.0561
-1.45962
27.3541
-1.52344
27.6565
-1.58735
27.9632
-1.65131
28.2745
-1.71529
28.5901
-1.77923
28.9102
-1.84312
29.2348
-1.90689
29.5637
-1.97052
29.8973
-2.03395
30.2345
-2.0972
30.5789
-2.16001
30.9193
-2.22308
31.2897
-2.28403
-2.35014
31.5864
20.4701
1.69183
-21.0172
19.9574
1.62443
19.4853
1.56041
19.0581
1.50002
18.6785
1.44338
18.3481
1.39047
18.0663
1.34111
17.8316
1.29503
17.6411
1.25187
17.4914
1.21123
17.3787
1.1727
17.2992
1.13586
17.249
1.10034
17.2247
1.06578
17.2231
1.03187
17.2412
0.998323
17.2768
0.96491
17.3275
0.931423
17.3916
0.897687
17.4674
0.863552
17.5537
0.828893
17.6492
0.793606
17.7529
0.757602
17.8642
0.720809
17.9822
0.683167
18.1063
0.644626
18.2362
0.605147
18.3713
0.564699
18.5114
0.523258
18.6561
0.480807
18.8053
0.437332
18.9586
0.392826
19.116
0.347287
19.2773
0.300714
19.4424
0.253112
19.6112
0.204488
19.7838
0.154851
19.9599
0.104214
20.1397
0.0525915
20.323
0
20.5099
-0.0535419
20.7004
-0.108014
20.8945
-0.163394
21.0921
-0.219659
21.2934
-0.276783
21.4983
-0.334741
21.7069
-0.393505
21.9192
-0.453046
22.1352
-0.513334
22.3549
-0.574339
22.5785
-0.63603
22.8058
-0.698372
23.0371
-0.761334
23.2722
-0.82488
23.5113
-0.888975
23.7543
-0.953584
24.0014
-1.01867
24.2525
-1.0842
24.5076
-1.15013
24.7669
-1.21642
25.0302
-1.28304
25.2977
-1.34994
25.5694
-1.41709
25.8453
-1.48445
26.1254
-1.55197
26.4097
-1.61962
26.6982
-1.68735
26.991
-1.75512
27.2881
-1.8229
27.5895
-1.89063
27.8951
-1.95828
28.205
-2.0258
28.5191
-2.09317
28.8377
-2.1603
29.1598
-2.22724
29.4886
-2.2937
29.8139
-2.3604
30.1675
-2.4249
-2.49471
30.4517
19.4802
1.76231
-19.9716
19.0252
1.69497
18.6114
1.63129
18.2416
1.5714
17.9171
1.5153
17.6379
1.46285
17.4026
1.41379
17.209
1.36779
17.0541
1.32446
16.9345
1.28337
16.8466
1.24413
16.7871
1.20633
16.7526
1.16962
16.7403
1.13367
16.7474
1.09818
16.7715
1.06291
16.8106
1.02763
16.8629
0.992157
16.9268
0.956324
17.0011
0.919998
17.0846
0.883061
17.1763
0.845417
17.2754
0.806984
17.3813
0.767695
17.4933
0.727494
17.611
0.686335
17.7339
0.644183
17.8617
0.601007
17.994
0.556787
18.1308
0.511507
18.2717
0.465155
18.4166
0.417727
18.5653
0.369219
18.7177
0.319635
18.8738
0.268979
19.0335
0.217259
19.1968
0.164486
19.3635
0.110675
19.5337
0.0558401
19.7074
0
19.8845
-0.0568256
20.0651
-0.114615
20.2492
-0.173345
20.4367
-0.232991
20.6277
-0.293526
20.8223
-0.354923
21.0204
-0.417152
21.2221
-0.480185
21.4274
-0.543988
21.6364
-0.60853
21.849
-0.673778
22.0654
-0.739698
22.2855
-0.806253
22.5093
-0.873408
22.737
-0.941126
22.9685
-1.00937
23.2039
-1.0781
23.4431
-1.14728
23.6863
-1.21687
23.9335
-1.28683
24.1846
-1.35711
24.4397
-1.42768
24.6989
-1.4985
24.9621
-1.56952
25.2294
-1.6407
25.5007
-1.712
25.7761
-1.78337
26.0556
-1.85477
26.3392
-1.92616
26.6269
-1.9975
26.9188
-2.06873
27.2147
-2.13982
27.5147
-2.21072
27.819
-2.28137
28.1267
-2.3518
28.4407
-2.42173
28.7516
-2.49187
29.0891
-2.55974
-2.63304
29.3615
18.5691
1.82954
-19.0059
18.1695
1.76288
17.8104
1.70004
17.4932
1.64102
17.218
1.58571
16.9839
1.53388
16.7888
1.4852
16.6302
1.43931
16.5051
1.3958
16.4104
1.35425
16.3429
1.31427
16.2996
1.27549
16.2777
1.23758
16.2748
1.20023
16.2886
1.16317
16.3171
1.12618
16.3585
1.08904
16.4115
1.0516
16.4747
1.01369
16.547
0.975195
16.6274
0.936009
16.7152
0.896041
16.8097
0.855215
16.9103
0.813469
17.0166
0.770751
17.128
0.727021
17.2442
0.682244
17.365
0.636394
17.4901
0.589452
17.6193
0.541403
17.7524
0.492239
17.8893
0.441954
18.0298
0.39055
18.1739
0.338028
18.3215
0.284396
18.4726
0.229663
18.6271
0.173841
18.7849
0.116945
18.9461
0.0589913
19.1106
0
19.2785
-0.0600083
19.4497
-0.121011
19.6243
-0.182982
19.8023
-0.245897
19.9836
-0.309728
20.1684
-0.374445
20.3567
-0.440019
20.5484
-0.506417
20.7435
-0.573606
20.9423
-0.641554
21.1446
-0.710225
21.3504
-0.779583
21.5599
-0.849591
21.7731
-0.920212
21.9899
-0.991407
22.2105
-1.06314
22.4348
-1.13536
22.6628
-1.20804
22.8947
-1.28113
23.1303
-1.35459
23.3698
-1.42838
23.6132
-1.50246
23.8605
-1.57678
24.1116
-1.65129
24.3667
-1.72596
24.6256
-1.80074
24.8885
-1.87558
25.1554
-1.95044
25.4262
-2.02528
25.7009
-2.10004
25.9796
-2.17468
26.2623
-2.24915
26.5488
-2.32342
26.8395
-2.39741
27.1334
-2.47116
27.4335
-2.54436
27.7306
-2.61777
28.0527
-2.68883
-2.76542
28.3139
17.7326
1.89443
-18.1168
17.3851
1.82894
17.0762
1.76728
16.8063
1.70936
16.5746
1.65498
16.3794
1.60382
16.2186
1.55554
16.0895
1.50973
15.9892
1.466
15.915
1.42394
15.8641
1.38319
15.8339
1.3434
15.8221
1.30427
15.8265
1.2655
15.8453
1.22687
15.8768
1.18815
15.9197
1.14917
15.9726
1.10976
16.0345
1.0698
16.1045
1.02917
16.1818
0.987757
16.2656
0.945496
16.3556
0.902313
16.4511
0.858149
16.5517
0.812959
16.6571
0.766703
16.767
0.71935
16.8812
0.670879
16.9993
0.62127
17.1213
0.570512
17.2471
0.518598
17.3764
0.465525
17.5092
0.411293
17.6454
0.355908
17.785
0.299377
17.9279
0.24171
18.0741
0.182923
18.2235
0.123029
18.3762
0.0620483
18.5321
-1.25705e-07
18.6912
-0.0630931
18.8536
-0.127207
19.0193
-0.192316
19.1882
-0.258393
19.3604
-0.325408
19.5359
-0.393331
19.7148
-0.462131
19.897
-0.531775
20.0826
-0.602227
20.2716
-0.673454
20.4641
-0.745418
20.6601
-0.818083
20.8595
-0.891409
21.0625
-0.965358
21.2691
-1.03989
21.4792
-1.11496
21.693
-1.19054
21.9104
-1.26657
22.1315
-1.34301
22.3562
-1.41983
22.5847
-1.49697
22.8169
-1.5744
23.0528
-1.65206
23.2925
-1.72991
23.5359
-1.80791
23.7831
-1.88601
24.0341
-1.96416
24.289
-2.04231
24.5476
-2.12042
24.81
-2.19844
25.0762
-2.27632
25.3462
-2.35401
25.6199
-2.43148
25.8976
-2.50864
26.1785
-2.58553
26.4651
-2.66184
26.7491
-2.73835
27.0567
-2.81244
-2.89213
27.307
16.9656
1.95777
-17.3004
16.6659
1.89376
16.4023
1.8335
16.1742
1.77679
15.9802
1.72336
15.8184
1.67286
15.6865
1.62492
15.5819
1.57914
15.5022
1.53512
15.4448
1.4925
15.4074
1.45093
15.3876
1.41009
15.3837
1.3697
15.3937
1.32951
15.4162
1.28929
15.4498
1.24885
15.4932
1.20803
15.5455
1.16668
15.6058
1.12468
15.6733
1.08193
15.7472
1.03832
15.8272
0.993803
15.9127
0.948298
16.0032
0.901756
16.0984
0.854134
16.1981
0.805399
16.302
0.755521
16.4098
0.70448
16.5214
0.65226
16.6366
0.598853
16.7554
0.544251
16.8776
0.488453
17.0031
0.431464
17.1319
0.373287
17.2639
0.313932
17.3991
0.253412
17.5374
0.19174
17.6789
0.128934
17.8235
0.0650137
17.9713
0
18.1222
-0.0660836
18.2762
-0.133212
18.4334
-0.201357
18.5937
-0.270491
18.7573
-0.340584
18.924
-0.411604
19.094
-0.483517
19.2672
-0.55629
19.4438
-0.629887
19.6236
-0.704272
19.8068
-0.779406
19.9934
-0.85525
20.1833
-0.931766
20.3767
-1.00891
20.5735
-1.08665
20.7737
-1.16493
20.9775
-1.24371
21.1848
-1.32295
21.3956
-1.40261
21.61
-1.48264
21.8279
-1.56299
22.0495
-1.64362
22.2746
-1.72447
22.5034
-1.80551
22.7358
-1.88669
22.9719
-1.96795
23.2116
-2.04925
23.4549
-2.13054
23.7019
-2.21177
23.9525
-2.29289
24.2068
-2.37385
24.4648
-2.4546
24.7263
-2.5351
24.9917
-2.61527
25.2601
-2.69515
25.534
-2.77442
25.8055
-2.85385
26.0992
-2.93081
-3.01342
26.3392
16.2621
2.02015
-16.5514
16.0057
1.95782
15.7821
1.89904
15.5904
1.84355
15.4288
1.79103
15.2952
1.74112
15.1876
1.69344
15.1034
1.64759
15.0406
1.60321
14.9969
1.55996
14.9702
1.51752
14.9588
1.47558
14.961
1.43391
14.9753
1.39227
15.0004
1.35045
15.0351
1.3083
15.0785
1.26564
15.1298
1.22236
15.1881
1.17835
15.2529
1.13349
15.3236
1.08773
15.3996
1.04098
15.4807
0.993188
15.5664
0.944307
15.6565
0.894297
15.7507
0.843128
15.8488
0.790773
15.9506
0.737215
16.056
0.68244
16.1648
0.626441
16.277
0.569213
16.3924
0.510757
16.5111
0.451076
16.6328
0.390178
16.7577
0.328074
16.8856
0.264776
17.0165
0.2003
17.1505
0.134665
17.2876
0.0678904
17.4276
0
17.5707
-0.0689821
17.7168
-0.13903
17.866
-0.210114
18.0182
-0.282205
18.1736
-0.355273
18.332
-0.429283
18.4936
-0.504201
18.6583
-0.579993
18.8263
-0.656621
18.9974
-0.734047
19.1718
-0.812232
19.3494
-0.891136
19.5303
-0.970718
19.7145
-1.05094
19.9021
-1.13175
20.093
-1.2131
20.2872
-1.29497
20.4849
-1.37729
20.686
-1.46002
20.8905
-1.54312
21.0985
-1.62654
21.3099
-1.71023
21.5248
-1.79414
21.7432
-1.87822
21.9651
-1.96243
22.1905
-2.04671
22.4195
-2.13102
22.6519
-2.21529
22.8878
-2.29949
23.1273
-2.38357
23.3703
-2.46746
23.6167
-2.55112
23.8667
-2.6345
24.1203
-2.71753
24.3768
-2.80023
24.6385
-2.8823
24.8981
-2.96451
25.1786
-3.0442
-3.12955
25.4088
15.6163
2.08202
-15.8644
15.3981
2.02142
15.2096
1.96411
15.0491
1.90978
14.915
1.85809
14.8052
1.80866
14.7177
1.76112
14.6504
1.71511
14.6013
1.67029
14.5687
1.62634
14.5507
1.58296
14.5458
1.53989
14.5526
1.49691
14.57
1.4538
14.5968
1.41038
14.6321
1.3665
14.675
1.32202
14.7249
1.27683
14.7811
1.23081
14.8431
1.18389
14.9104
1.13599
14.9826
1.08704
15.0594
1.037
15.1405
0.985821
15.2257
0.933466
15.3147
0.879909
15.4073
0.825127
15.5034
0.769103
15.6029
0.711828
15.7057
0.653295
15.8116
0.593501
15.9207
0.53245
16.0328
0.470144
16.1479
0.406595
16.266
0.341813
16.387
0.275812
16.511
0.20861
16.6379
0.140226
16.7678
0.0706811
16.9005
0
17.0362
-0.0717919
17.1749
-0.144667
17.3165
-0.218596
17.4611
-0.293548
17.6086
-0.369491
17.7592
-0.44639
17.9129
-0.524209
18.0695
-0.602913
18.2293
-0.682462
18.3922
-0.762818
18.5582
-0.843941
18.7274
-0.925788
18.8997
-1.00832
19.0752
-1.09149
19.254
-1.17525
19.436
-1.25956
19.6212
-1.34438
19.8098
-1.42965
20.0016
-1.51533
20.1968
-1.60137
20.3952
-1.68773
20.5971
-1.77434
20.8022
-1.86117
21.0108
-1.94816
21.2227
-2.03526
21.438
-2.12243
21.6566
-2.20959
21.8787
-2.29672
22.1041
-2.38375
22.3329
-2.47063
22.5651
-2.55731
22.8006
-2.64373
23.0395
-2.72986
23.2819
-2.8156
23.5271
-2.90099
23.7772
-2.98571
24.0255
-3.07055
24.2934
-3.15282
-3.24077
24.5141
15.0219
2.14369
-15.2336
14.8373
2.0848
14.6788
2.02887
14.545
1.97558
14.434
1.92458
14.344
1.8755
14.2732
1.82799
14.2197
1.78172
14.1819
1.73636
14.1581
1.69163
14.1469
1.64726
14.1471
1.60302
14.1575
1.5587
14.177
1.5141
14.2048
1.46908
14.2401
1.42348
14.2822
1.37719
14.3304
1.33009
14.3843
1.2821
14.4435
1.23313
14.5075
1.18312
14.5759
1.13201
14.6486
1.07976
14.7253
1.02632
14.8057
0.97166
14.8897
0.915761
14.9772
0.858599
15.0679
0.800162
15.1618
0.740441
15.2588
0.679431
15.3589
0.617132
15.4619
0.553547
15.5679
0.488683
15.6767
0.42255
15.7884
0.35516
15.903
0.28653
16.0204
0.216677
16.1406
0.145622
16.2636
0.0733882
16.3895
0
16.5183
-0.0745157
16.6498
-0.15013
16.7843
-0.226813
16.9216
-0.304533
17.0618
-0.383254
17.205
-0.462944
17.3511
-0.543564
17.5001
-0.625076
17.6522
-0.707443
17.8072
-0.790622
17.9653
-0.874573
18.1264
-0.959253
18.2906
-1.04462
18.4579
-1.13062
18.6283
-1.21722
18.8019
-1.30437
18.9786
-1.39202
19.1584
-1.48012
19.3415
-1.56863
19.5277
-1.65748
19.7172
-1.74665
19.9099
-1.83606
20.1058
-1.92568
20.3049
-2.01545
20.5073
-2.10531
20.713
-2.19522
20.9219
-2.28512
21.134
-2.37496
21.3494
-2.46469
21.5681
-2.55424
21.79
-2.64358
22.0151
-2.73263
22.2435
-2.82135
22.4752
-2.90967
22.7096
-2.99761
22.9487
-3.08486
23.1862
-3.17217
23.4421
-3.2569
-3.34729
23.6538
14.4732
2.20535
-14.653
14.3175
2.14805
14.1848
2.09337
14.0734
2.04097
13.9818
1.99051
13.9082
1.94165
13.8511
1.89405
13.8088
1.8474
13.78
1.80142
13.7634
1.75585
13.7576
1.71044
13.7616
1.66498
13.7746
1.61929
13.7955
1.5732
13.8238
1.52657
13.8586
1.47925
13.8995
1.43115
13.946
1.38217
13.9975
1.33222
14.0538
1.28123
14.1145
1.22914
14.1794
1.1759
14.2481
1.12147
14.3205
1.06581
14.3964
1.0089
14.4757
0.950701
14.5582
0.891209
14.6438
0.83041
14.7324
0.768297
14.824
0.704866
14.9185
0.640121
15.0159
0.574064
15.116
0.506704
15.2189
0.438054
15.3246
0.368126
15.433
0.296938
15.5442
0.224508
15.6581
0.150859
15.7747
0.0760145
15.8941
-1.25606e-07
16.0163
-0.0771563
16.1411
-0.155425
16.2688
-0.234774
16.3993
-0.31517
16.5326
-0.396579
16.6687
-0.478964
16.8076
-0.562288
16.9494
-0.646511
17.0942
-0.731594
17.2418
-0.817494
17.3923
-0.904169
17.5458
-0.991575
17.7023
-1.07967
17.8618
-1.1684
18.0243
-1.25772
18.1898
-1.34759
18.3584
-1.43796
18.53
-1.52877
18.7047
-1.61998
18.8824
-1.71154
19.0633
-1.80339
19.2473
-1.89549
19.4344
-1.98777
19.6246
-2.08019
19.818
-2.1727
20.0144
-2.26523
20.2141
-2.35774
20.4168
-2.45016
20.6227
-2.54246
20.8317
-2.63456
21.0438
-2.72641
21.259
-2.81796
21.4773
-2.90916
21.6988
-2.99993
21.923
-3.09028
22.1516
-3.17992
22.3787
-3.26959
22.6232
-3.35665
-3.44933
22.8264
13.9648
2.26708
-14.1169
13.8338
2.21122
13.7227
2.15761
13.6302
2.10594
13.5546
2.05587
13.4946
2.00708
13.4487
1.95926
13.4156
1.91215
13.3941
1.86546
13.383
1.81898
13.3814
1.77248
13.3884
1.72578
13.4031
1.6787
13.4249
1.6311
13.4531
1.58285
13.4872
1.53382
13.5267
1.48393
13.5712
1.43308
13.6204
1.38119
13.6738
1.32821
13.7313
1.27407
13.7926
1.21874
13.8575
1.16217
13.9259
1.10433
13.9975
1.0452
14.0723
0.984749
14.1501
0.922975
14.2309
0.859864
14.3145
0.795412
14.401
0.729617
14.4902
0.662482
14.5822
0.594015
14.6768
0.524223
14.7742
0.45312
14.8742
0.380721
14.9768
0.307045
15.0821
0.23211
15.19
0.155941
15.3006
0.0785621
15.4138
0
15.5297
-0.0797161
15.6483
-0.160555
15.7695
-0.242485
15.8935
-0.325472
16.0202
-0.409479
16.1496
-0.494469
16.2818
-0.580404
16.4168