/*--------------------------------*- C++ -*----------------------------------*\
| =========                 |                                                 |
| \\      /  F ield         | OpenFOAM: The Open Source CFD Toolbox           |
|  \\    /   O peration     | Version:  2206                                  |
|   \\  /    A nd           | Website:  www.openfoam.com                      |
|    \\/     M anipulation  |                                                 |
\*---------------------------------------------------------------------------*/
FoamFile
{
    version     2.0;
    format      ascii;
    arch        "LSB;label=32;scalar=64";
    class       volScalarField;
    location    "0.45";
    object      wave;
}
// * * * * * * * * * * * * * * * * * * * * * * * * * * * * * * * * * * * * * //

dimensions      [0 0 0 0 0 0 0];

internalField   nonuniform List<scalar> 
100
(
0.504958
0.634993
0.749076
0.84434
0.918392
0.969373
0.996001
0.997607
0.97415
0.926221
0.855024
0.762346
0.650516
0.522344
0.38105
0.230182
0.0735324
-0.0849649
-0.241328
-0.391628
-0.532089
-0.659184
-0.769718
-0.860915
-0.930484
-0.976677
-0.998334
-0.99491
-0.966493
-0.913794
-0.83814
-0.741429
-0.626092
-0.495026
-0.351524
-0.199191
-0.0418534
0.116535
0.271996
0.420624
0.558685
0.682711
0.789585
0.876623
0.941638
0.982998
0.999662
0.991213
0.957862
0.900447
0.820411
0.719765
0.601037
0.467209
0.321644
0.167998
0.0101322
-0.147988
-0.302391
-0.449197
-0.584718
-0.70555
-0.808657
-0.891448
-0.951845
-0.988329
-0.999984
-0.986517
-0.948266
-0.886193
-0.801857
-0.697377
-0.575376
-0.438922
-0.29144
-0.136637
0.0215991
0.179292
0.332481
0.477318
0.610163
0.727679
0.826915
0.905376
0.961093
0.992664
0.999298
0.980827
0.937716
0.871047
0.782496
0.674286
0.549137
0.410192
0.260943
0.105138
-0.0533087
-0.210416
-0.362237
-0.504958
)
;

boundaryField
{
    movingWall
    {
        type            calculated;
        value           uniform 0;
    }
    fixedWalls
    {
        type            calculated;
        value           uniform 0;
    }
    frontAndBack
    {
        type            empty;
    }
}


// ************************************************************************* //
