/*--------------------------------*- C++ -*----------------------------------*\
| =========                 |                                                 |
| \\      /  F ield         | OpenFOAM: The Open Source CFD Toolbox           |
|  \\    /   O peration     | Version:  2312                                  |
|   \\  /    A nd           | Website:  www.openfoam.com                      |
|    \\/     M anipulation  |                                                 |
\*---------------------------------------------------------------------------*/
FoamFile
{
    version     2.0;
    format      ascii;
    arch        "LSB;label=32;scalar=64";
    class       volVectorField;
    location    "0.073";
    object      U;
}
// * * * * * * * * * * * * * * * * * * * * * * * * * * * * * * * * * * * * * //

dimensions      [0 1 -1 0 0 0 0];

internalField   nonuniform List<vector> 
31205
(
(180.505 0 0)
(183.511 0 0)
(186.44 0 0)
(189.294 0 0)
(192.078 0 0)
(194.796 0 0)
(197.449 0 0)
(200.042 0 0)
(202.576 0 0)
(205.054 0 0)
(207.478 0 0)
(209.851 0 0)
(212.173 0 0)
(214.448 0 0)
(216.676 0 0)
(218.859 0 0)
(220.999 0 0)
(223.097 0 0)
(225.154 0 0)
(227.172 0 0)
(229.151 0 0)
(231.093 0 0)
(232.998 0 0)
(234.868 0 0)
(236.703 0 0)
(238.504 0 0)
(240.272 0 0)
(242.008 0 0)
(243.712 0 0)
(245.385 0 0)
(247.027 0 0)
(248.64 0 0)
(250.223 0 0)
(251.778 0 0)
(253.304 0 0)
(254.803 0 0)
(256.274 0 0)
(257.718 0 0)
(259.135 0 0)
(260.526 0 0)
(261.89 0 0)
(263.23 0 0)
(264.543 0 0)
(265.832 0 0)
(267.095 0 0)
(268.334 0 0)
(269.549 0 0)
(270.739 0 0)
(271.905 0 0)
(273.048 0 0)
(274.166 0 0)
(275.261 0 0)
(276.332 0 0)
(277.38 0 0)
(278.404 0 0)
(279.405 0 0)
(280.383 0 0)
(281.338 0 0)
(282.27 0 0)
(283.178 0 0)
(284.063 0 0)
(284.926 0 0)
(285.764 0 0)
(286.579 0 0)
(287.372 0 0)
(288.144 0 0)
(288.885 0 0)
(289.588 0 0)
(290.327 0 0)
(291.074 0 0)
(291.423 0 0)
(291.896 0 0)
(294.367 0 0)
(294.115 0 0)
(284.643 0 0)
(298.951 0 0)
(344.772 0 0)
(218.379 0 0)
(27.8903 0 0)
(183.695 0 0)
(186.532 0 0)
(189.3 0 0)
(192.001 0 0)
(194.64 0 0)
(197.218 0 0)
(199.739 0 0)
(202.205 0 0)
(204.617 0 0)
(206.979 0 0)
(209.292 0 0)
(211.557 0 0)
(213.777 0 0)
(215.953 0 0)
(218.086 0 0)
(220.178 0 0)
(222.23 0 0)
(224.243 0 0)
(226.219 0 0)
(228.157 0 0)
(230.06 0 0)
(231.928 0 0)
(233.763 0 0)
(235.564 0 0)
(237.333 0 0)
(239.07 0 0)
(240.776 0 0)
(242.453 0 0)
(244.099 0 0)
(245.716 0 0)
(247.305 0 0)
(248.866 0 0)
(250.399 0 0)
(251.906 0 0)
(253.385 0 0)
(254.839 0 0)
(256.266 0 0)
(257.668 0 0)
(259.045 0 0)
(260.397 0 0)
(261.724 0 0)
(263.028 0 0)
(264.307 0 0)
(265.562 0 0)
(266.794 0 0)
(268.003 0 0)
(269.188 0 0)
(270.351 0 0)
(271.491 0 0)
(272.608 0 0)
(273.703 0 0)
(274.776 0 0)
(275.826 0 0)
(276.854 0 0)
(277.86 0 0)
(278.844 0 0)
(279.807 0 0)
(280.747 0 0)
(281.665 0 0)
(282.562 0 0)
(283.437 0 0)
(284.29 0 0)
(285.121 0 0)
(285.931 0 0)
(286.718 0 0)
(287.483 0 0)
(288.229 0 0)
(288.95 0 0)
(289.631 0 0)
(290.323 0 0)
(291.066 0 0)
(291.535 0 0)
(291.77 0 0)
(293.615 0 0)
(295.223 0 0)
(287.604 0 0)
(288.511 0 0)
(342.089 0 0)
(250.407 0 0)
(186.847 0 0)
(189.524 0 0)
(192.138 0 0)
(194.694 0 0)
(197.194 0 0)
(199.639 0 0)
(202.033 0 0)
(204.376 0 0)
(206.672 0 0)
(208.922 0 0)
(211.127 0 0)
(213.289 0 0)
(215.409 0 0)
(217.489 0 0)
(219.53 0 0)
(221.533 0 0)
(223.499 0 0)
(225.429 0 0)
(227.325 0 0)
(229.186 0 0)
(231.015 0 0)
(232.811 0 0)
(234.575 0 0)
(236.309 0 0)
(238.013 0 0)
(239.687 0 0)
(241.333 0 0)
(242.95 0 0)
(244.54 0 0)
(246.102 0 0)
(247.638 0 0)
(249.147 0 0)
(250.631 0 0)
(252.089 0 0)
(253.522 0 0)
(254.93 0 0)
(256.314 0 0)
(257.674 0 0)
(259.011 0 0)
(260.324 0 0)
(261.614 0 0)
(262.881 0 0)
(264.126 0 0)
(265.348 0 0)
(266.548 0 0)
(267.725 0 0)
(268.882 0 0)
(270.016 0 0)
(271.129 0 0)
(272.221 0 0)
(273.291 0 0)
(274.341 0 0)
(275.369 0 0)
(276.377 0 0)
(277.363 0 0)
(278.329 0 0)
(279.275 0 0)
(280.199 0 0)
(281.103 0 0)
(281.987 0 0)
(282.85 0 0)
(283.692 0 0)
(284.514 0 0)
(285.315 0 0)
(286.096 0 0)
(286.856 0 0)
(287.595 0 0)
(288.315 0 0)
(289.016 0 0)
(289.679 0 0)
(290.33 0 0)
(291.044 0 0)
(291.614 0 0)
(291.807 0 0)
(292.789 0 0)
(296.277 0 0)
(287.15 0 0)
(296.751 0 0)
(297.765 0 0)
(189.878 0 0)
(192.406 0 0)
(194.879 0 0)
(197.298 0 0)
(199.668 0 0)
(201.989 0 0)
(204.263 0 0)
(206.492 0 0)
(208.677 0 0)
(210.821 0 0)
(212.924 0 0)
(214.987 0 0)
(217.013 0 0)
(219.001 0 0)
(220.954 0 0)
(222.872 0 0)
(224.756 0 0)
(226.607 0 0)
(228.425 0 0)
(230.213 0 0)
(231.969 0 0)
(233.696 0 0)
(235.394 0 0)
(237.063 0 0)
(238.704 0 0)
(240.317 0 0)
(241.904 0 0)
(243.464 0 0)
(244.998 0 0)
(246.507 0 0)
(247.991 0 0)
(249.45 0 0)
(250.885 0 0)
(252.296 0 0)
(253.684 0 0)
(255.048 0 0)
(256.39 0 0)
(257.709 0 0)
(259.006 0 0)
(260.281 0 0)
(261.533 0 0)
(262.765 0 0)
(263.975 0 0)
(265.164 0 0)
(266.332 0 0)
(267.48 0 0)
(268.606 0 0)
(269.713 0 0)
(270.799 0 0)
(271.865 0 0)
(272.911 0 0)
(273.937 0 0)
(274.943 0 0)
(275.929 0 0)
(276.896 0 0)
(277.844 0 0)
(278.771 0 0)
(279.68 0 0)
(280.569 0 0)
(281.438 0 0)
(282.289 0 0)
(283.119 0 0)
(283.931 0 0)
(284.723 0 0)
(285.496 0 0)
(286.249 0 0)
(286.983 0 0)
(287.697 0 0)
(288.392 0 0)
(289.071 0 0)
(289.718 0 0)
(290.343 0 0)
(290.985 0 0)
(291.744 0 0)
(291.545 0 0)
(293.348 0 0)
(293.568 0 0)
(293.029 0 0)
(293.422 0 0)
(192.762 0 0)
(195.152 0 0)
(197.493 0 0)
(199.787 0 0)
(202.035 0 0)
(204.239 0 0)
(206.402 0 0)
(208.523 0 0)
(210.605 0 0)
(212.648 0 0)
(214.655 0 0)
(216.626 0 0)
(218.562 0 0)
(220.464 0 0)
(222.333 0 0)
(224.17 0 0)
(225.976 0 0)
(227.751 0 0)
(229.497 0 0)
(231.213 0 0)
(232.902 0 0)
(234.562 0 0)
(236.195 0 0)
(237.802 0 0)
(239.382 0 0)
(240.937 0 0)
(242.467 0 0)
(243.972 0 0)
(245.453 0 0)
(246.91 0 0)
(248.344 0 0)
(249.755 0 0)
(251.143 0 0)
(252.509 0 0)
(253.852 0 0)
(255.174 0 0)
(256.474 0 0)
(257.753 0 0)
(259.011 0 0)
(260.249 0 0)
(261.466 0 0)
(262.662 0 0)
(263.839 0 0)
(264.995 0 0)
(266.132 0 0)
(267.25 0 0)
(268.347 0 0)
(269.426 0 0)
(270.486 0 0)
(271.526 0 0)
(272.548 0 0)
(273.55 0 0)
(274.534 0 0)
(275.5 0 0)
(276.447 0 0)
(277.375 0 0)
(278.285 0 0)
(279.177 0 0)
(280.05 0 0)
(280.906 0 0)
(281.742 0 0)
(282.561 0 0)
(283.361 0 0)
(284.144 0 0)
(284.907 0 0)
(285.653 0 0)
(286.38 0 0)
(287.09 0 0)
(287.779 0 0)
(288.452 0 0)
(289.106 0 0)
(289.752 0 0)
(290.312 0 0)
(291.026 0 0)
(291.529 0 0)
(291.957 0 0)
(292.715 0 0)
(293.263 0 0)
(293.904 0 0)
(195.497 0 0)
(197.76 0 0)
(199.978 0 0)
(202.154 0 0)
(204.29 0 0)
(206.385 0 0)
(208.443 0 0)
(210.463 0 0)
(212.448 0 0)
(214.398 0 0)
(216.314 0 0)
(218.197 0 0)
(220.048 0 0)
(221.869 0 0)
(223.659 0 0)
(225.419 0 0)
(227.151 0 0)
(228.854 0 0)
(230.53 0 0)
(232.179 0 0)
(233.802 0 0)
(235.399 0 0)
(236.971 0 0)
(238.518 0 0)
(240.04 0 0)
(241.539 0 0)
(243.014 0 0)
(244.467 0 0)
(245.897 0 0)
(247.304 0 0)
(248.69 0 0)
(250.054 0 0)
(251.396 0 0)
(252.718 0 0)
(254.019 0 0)
(255.299 0 0)
(256.56 0 0)
(257.8 0 0)
(259.02 0 0)
(260.222 0 0)
(261.403 0 0)
(262.566 0 0)
(263.71 0 0)
(264.835 0 0)
(265.941 0 0)
(267.029 0 0)
(268.098 0 0)
(269.15 0 0)
(270.183 0 0)
(271.198 0 0)
(272.196 0 0)
(273.175 0 0)
(274.138 0 0)
(275.082 0 0)
(276.009 0 0)
(276.919 0 0)
(277.811 0 0)
(278.686 0 0)
(279.543 0 0)
(280.384 0 0)
(281.207 0 0)
(282.013 0 0)
(282.802 0 0)
(283.573 0 0)
(284.328 0 0)
(285.065 0 0)
(285.785 0 0)
(286.488 0 0)
(287.173 0 0)
(287.842 0 0)
(288.489 0 0)
(289.131 0 0)
(289.738 0 0)
(290.327 0 0)
(290.938 0 0)
(291.489 0 0)
(292.006 0 0)
(292.508 0 0)
(293.165 0 0)
(198.088 0 0)
(200.233 0 0)
(202.338 0 0)
(204.405 0 0)
(206.435 0 0)
(208.429 0 0)
(210.389 0 0)
(212.315 0 0)
(214.208 0 0)
(216.07 0 0)
(217.9 0 0)
(219.701 0 0)
(221.472 0 0)
(223.215 0 0)
(224.93 0 0)
(226.617 0 0)
(228.279 0 0)
(229.914 0 0)
(231.523 0 0)
(233.108 0 0)
(234.668 0 0)
(236.205 0 0)
(237.718 0 0)
(239.208 0 0)
(240.675 0 0)
(242.12 0 0)
(243.543 0 0)
(244.945 0 0)
(246.325 0 0)
(247.685 0 0)
(249.024 0 0)
(250.343 0 0)
(251.642 0 0)
(252.921 0 0)
(254.181 0 0)
(255.421 0 0)
(256.643 0 0)
(257.846 0 0)
(259.03 0 0)
(260.196 0 0)
(261.343 0 0)
(262.473 0 0)
(263.585 0 0)
(264.679 0 0)
(265.755 0 0)
(266.814 0 0)
(267.856 0 0)
(268.881 0 0)
(269.888 0 0)
(270.879 0 0)
(271.853 0 0)
(272.81 0 0)
(273.75 0 0)
(274.674 0 0)
(275.581 0 0)
(276.472 0 0)
(277.346 0 0)
(278.204 0 0)
(279.046 0 0)
(279.871 0 0)
(280.68 0 0)
(281.473 0 0)
(282.25 0 0)
(283.011 0 0)
(283.755 0 0)
(284.483 0 0)
(285.195 0 0)
(285.891 0 0)
(286.57 0 0)
(287.234 0 0)
(287.88 0 0)
(288.51 0 0)
(289.127 0 0)
(289.722 0 0)
(290.3 0 0)
(290.867 0 0)
(291.433 0 0)
(291.906 0 0)
(292.578 0 0)
(200.547 0 0)
(202.582 0 0)
(204.581 0 0)
(206.546 0 0)
(208.478 0 0)
(210.377 0 0)
(212.244 0 0)
(214.082 0 0)
(215.889 0 0)
(217.667 0 0)
(219.417 0 0)
(221.14 0 0)
(222.835 0 0)
(224.505 0 0)
(226.148 0 0)
(227.767 0 0)
(229.361 0 0)
(230.931 0 0)
(232.478 0 0)
(234.001 0 0)
(235.502 0 0)
(236.981 0 0)
(238.437 0 0)
(239.873 0 0)
(241.287 0 0)
(242.68 0 0)
(244.053 0 0)
(245.406 0 0)
(246.74 0 0)
(248.053 0 0)
(249.348 0 0)
(250.623 0 0)
(251.88 0 0)
(253.118 0 0)
(254.338 0 0)
(255.54 0 0)
(256.724 0 0)
(257.89 0 0)
(259.039 0 0)
(260.171 0 0)
(261.285 0 0)
(262.383 0 0)
(263.463 0 0)
(264.527 0 0)
(265.575 0 0)
(266.606 0 0)
(267.62 0 0)
(268.619 0 0)
(269.601 0 0)
(270.567 0 0)
(271.518 0 0)
(272.452 0 0)
(273.371 0 0)
(274.274 0 0)
(275.162 0 0)
(276.034 0 0)
(276.89 0 0)
(277.731 0 0)
(278.557 0 0)
(279.367 0 0)
(280.162 0 0)
(280.942 0 0)
(281.706 0 0)
(282.456 0 0)
(283.189 0 0)
(283.908 0 0)
(284.611 0 0)
(285.299 0 0)
(285.972 0 0)
(286.629 0 0)
(287.272 0 0)
(287.898 0 0)
(288.509 0 0)
(289.105 0 0)
(289.687 0 0)
(290.246 0 0)
(290.811 0 0)
(291.297 0 0)
(291.967 0 0)
(202.881 0 0)
(204.814 0 0)
(206.715 0 0)
(208.584 0 0)
(210.424 0 0)
(212.234 0 0)
(214.015 0 0)
(215.768 0 0)
(217.495 0 0)
(219.195 0 0)
(220.868 0 0)
(222.517 0 0)
(224.141 0 0)
(225.741 0 0)
(227.317 0 0)
(228.87 0 0)
(230.401 0 0)
(231.909 0 0)
(233.395 0 0)
(234.86 0 0)
(236.304 0 0)
(237.727 0 0)
(239.13 0 0)
(240.513 0 0)
(241.877 0 0)
(243.221 0 0)
(244.545 0 0)
(245.852 0 0)
(247.139 0 0)
(248.409 0 0)
(249.66 0 0)
(250.894 0 0)
(252.11 0 0)
(253.308 0 0)
(254.49 0 0)
(255.654 0 0)
(256.802 0 0)
(257.933 0 0)
(259.048 0 0)
(260.146 0 0)
(261.228 0 0)
(262.295 0 0)
(263.345 0 0)
(264.38 0 0)
(265.399 0 0)
(266.402 0 0)
(267.39 0 0)
(268.363 0 0)
(269.321 0 0)
(270.263 0 0)
(271.191 0 0)
(272.103 0 0)
(273.001 0 0)
(273.884 0 0)
(274.752 0 0)
(275.605 0 0)
(276.444 0 0)
(277.268 0 0)
(278.077 0 0)
(278.873 0 0)
(279.653 0 0)
(280.419 0 0)
(281.171 0 0)
(281.908 0 0)
(282.631 0 0)
(283.34 0 0)
(284.034 0 0)
(284.714 0 0)
(285.379 0 0)
(286.03 0 0)
(286.667 0 0)
(287.289 0 0)
(287.896 0 0)
(288.489 0 0)
(289.069 0 0)
(289.628 0 0)
(290.193 0 0)
(290.678 0 0)
(291.354 0 0)
(205.1 0 0)
(206.938 0 0)
(208.746 0 0)
(210.526 0 0)
(212.279 0 0)
(214.006 0 0)
(215.706 0 0)
(217.38 0 0)
(219.03 0 0)
(220.656 0 0)
(222.258 0 0)
(223.837 0 0)
(225.393 0 0)
(226.926 0 0)
(228.438 0 0)
(229.929 0 0)
(231.399 0 0)
(232.848 0 0)
(234.277 0 0)
(235.686 0 0)
(237.076 0 0)
(238.446 0 0)
(239.798 0 0)
(241.13 0 0)
(242.445 0 0)
(243.742 0 0)
(245.02 0 0)
(246.282 0 0)
(247.525 0 0)
(248.752 0 0)
(249.962 0 0)
(251.155 0 0)
(252.332 0 0)
(253.492 0 0)
(254.637 0 0)
(255.765 0 0)
(256.878 0 0)
(257.975 0 0)
(259.056 0 0)
(260.122 0 0)
(261.173 0 0)
(262.209 0 0)
(263.23 0 0)
(264.236 0 0)
(265.227 0 0)
(266.204 0 0)
(267.166 0 0)
(268.114 0 0)
(269.047 0 0)
(269.966 0 0)
(270.871 0 0)
(271.762 0 0)
(272.639 0 0)
(273.501 0 0)
(274.35 0 0)
(275.185 0 0)
(276.006 0 0)
(276.813 0 0)
(277.607 0 0)
(278.387 0 0)
(279.153 0 0)
(279.905 0 0)
(280.644 0 0)
(281.37 0 0)
(282.081 0 0)
(282.779 0 0)
(283.464 0 0)
(284.135 0 0)
(284.792 0 0)
(285.436 0 0)
(286.066 0 0)
(286.683 0 0)
(287.286 0 0)
(287.875 0 0)
(288.452 0 0)
(289.009 0 0)
(289.574 0 0)
(290.058 0 0)
(290.735 0 0)
(207.211 0 0)
(208.96 0 0)
(210.682 0 0)
(212.379 0 0)
(214.05 0 0)
(215.698 0 0)
(217.321 0 0)
(218.922 0 0)
(220.499 0 0)
(222.055 0 0)
(223.589 0 0)
(225.101 0 0)
(226.593 0 0)
(228.064 0 0)
(229.515 0 0)
(230.946 0 0)
(232.358 0 0)
(233.751 0 0)
(235.125 0 0)
(236.481 0 0)
(237.818 0 0)
(239.138 0 0)
(240.441 0 0)
(241.725 0 0)
(242.993 0 0)
(244.244 0 0)
(245.479 0 0)
(246.697 0 0)
(247.898 0 0)
(249.084 0 0)
(250.254 0 0)
(251.408 0 0)
(252.547 0 0)
(253.671 0 0)
(254.779 0 0)
(255.873 0 0)
(256.951 0 0)
(258.015 0 0)
(259.064 0 0)
(260.099 0 0)
(261.12 0 0)
(262.126 0 0)
(263.118 0 0)
(264.097 0 0)
(265.061 0 0)
(266.011 0 0)
(266.948 0 0)
(267.871 0 0)
(268.781 0 0)
(269.677 0 0)
(270.56 0 0)
(271.429 0 0)
(272.285 0 0)
(273.128 0 0)
(273.958 0 0)
(274.774 0 0)
(275.578 0 0)
(276.368 0 0)
(277.146 0 0)
(277.91 0 0)
(278.662 0 0)
(279.4 0 0)
(280.126 0 0)
(280.839 0 0)
(281.539 0 0)
(282.227 0 0)
(282.901 0 0)
(283.563 0 0)
(284.212 0 0)
(284.848 0 0)
(285.471 0 0)
(286.082 0 0)
(286.68 0 0)
(287.264 0 0)
(287.838 0 0)
(288.392 0 0)
(288.954 0 0)
(289.438 0 0)
(290.114 0 0)
(209.222 0 0)
(210.887 0 0)
(212.528 0 0)
(214.146 0 0)
(215.741 0 0)
(217.314 0 0)
(218.866 0 0)
(220.396 0 0)
(221.906 0 0)
(223.395 0 0)
(224.864 0 0)
(226.313 0 0)
(227.744 0 0)
(229.155 0 0)
(230.548 0 0)
(231.923 0 0)
(233.28 0 0)
(234.619 0 0)
(235.941 0 0)
(237.246 0 0)
(238.534 0 0)
(239.805 0 0)
(241.06 0 0)
(242.299 0 0)
(243.522 0 0)
(244.729 0 0)
(245.921 0 0)
(247.097 0 0)
(248.259 0 0)
(249.405 0 0)
(250.536 0 0)
(251.653 0 0)
(252.755 0 0)
(253.843 0 0)
(254.917 0 0)
(255.977 0 0)
(257.022 0 0)
(258.054 0 0)
(259.072 0 0)
(260.077 0 0)
(261.068 0 0)
(262.045 0 0)
(263.01 0 0)
(263.961 0 0)
(264.899 0 0)
(265.824 0 0)
(266.736 0 0)
(267.635 0 0)
(268.521 0 0)
(269.395 0 0)
(270.256 0 0)
(271.104 0 0)
(271.94 0 0)
(272.763 0 0)
(273.574 0 0)
(274.372 0 0)
(275.158 0 0)
(275.932 0 0)
(276.693 0 0)
(277.443 0 0)
(278.179 0 0)
(278.904 0 0)
(279.617 0 0)
(280.317 0 0)
(281.006 0 0)
(281.682 0 0)
(282.346 0 0)
(282.998 0 0)
(283.639 0 0)
(284.267 0 0)
(284.882 0 0)
(285.486 0 0)
(286.078 0 0)
(286.657 0 0)
(287.227 0 0)
(287.777 0 0)
(288.336 0 0)
(288.818 0 0)
(289.492 0 0)
(211.139 0 0)
(212.725 0 0)
(214.29 0 0)
(215.834 0 0)
(217.357 0 0)
(218.86 0 0)
(220.344 0 0)
(221.808 0 0)
(223.252 0 0)
(224.679 0 0)
(226.087 0 0)
(227.476 0 0)
(228.849 0 0)
(230.203 0 0)
(231.541 0 0)
(232.862 0 0)
(234.166 0 0)
(235.454 0 0)
(236.726 0 0)
(237.982 0 0)
(239.223 0 0)
(240.448 0 0)
(241.658 0 0)
(242.852 0 0)
(244.032 0 0)
(245.198 0 0)
(246.348 0 0)
(247.485 0 0)
(248.607 0 0)
(249.715 0 0)
(250.809 0 0)
(251.89 0 0)
(252.957 0 0)
(254.011 0 0)
(255.051 0 0)
(256.078 0 0)
(257.091 0 0)
(258.092 0 0)
(259.08 0 0)
(260.055 0 0)
(261.017 0 0)
(261.967 0 0)
(262.904 0 0)
(263.829 0 0)
(264.741 0 0)
(265.641 0 0)
(266.529 0 0)
(267.405 0 0)
(268.268 0 0)
(269.12 0 0)
(269.959 0 0)
(270.787 0 0)
(271.603 0 0)
(272.406 0 0)
(273.199 0 0)
(273.979 0 0)
(274.748 0 0)
(275.505 0 0)
(276.25 0 0)
(276.984 0 0)
(277.707 0 0)
(278.417 0 0)
(279.117 0 0)
(279.805 0 0)
(280.481 0 0)
(281.146 0 0)
(281.8 0 0)
(282.442 0 0)
(283.073 0 0)
(283.692 0 0)
(284.3 0 0)
(284.897 0 0)
(285.482 0 0)
(286.055 0 0)
(286.619 0 0)
(287.165 0 0)
(287.721 0 0)
(288.2 0 0)
(288.871 0 0)
(212.967 0 0)
(214.48 0 0)
(215.973 0 0)
(217.447 0 0)
(218.902 0 0)
(220.339 0 0)
(221.758 0 0)
(223.159 0 0)
(224.543 0 0)
(225.909 0 0)
(227.259 0 0)
(228.592 0 0)
(229.909 0 0)
(231.21 0 0)
(232.495 0 0)
(233.765 0 0)
(235.019 0 0)
(236.258 0 0)
(237.482 0 0)
(238.692 0 0)
(239.887 0 0)
(241.067 0 0)
(242.234 0 0)
(243.386 0 0)
(244.525 0 0)
(245.65 0 0)
(246.761 0 0)
(247.859 0 0)
(248.943 0 0)
(250.015 0 0)
(251.074 0 0)
(252.119 0 0)
(253.152 0 0)
(254.172 0 0)
(255.18 0 0)
(256.175 0 0)
(257.158 0 0)
(258.129 0 0)
(259.087 0 0)
(260.034 0 0)
(260.968 0 0)
(261.891 0 0)
(262.802 0 0)
(263.701 0 0)
(264.588 0 0)
(265.464 0 0)
(266.328 0 0)
(267.18 0 0)
(268.022 0 0)
(268.852 0 0)
(269.67 0 0)
(270.477 0 0)
(271.273 0 0)
(272.058 0 0)
(272.832 0 0)
(273.595 0 0)
(274.346 0 0)
(275.087 0 0)
(275.816 0 0)
(276.535 0 0)
(277.243 0 0)
(277.94 0 0)
(278.626 0 0)
(279.301 0 0)
(279.965 0 0)
(280.619 0 0)
(281.261 0 0)
(281.893 0 0)
(282.514 0 0)
(283.125 0 0)
(283.724 0 0)
(284.313 0 0)
(284.892 0 0)
(285.459 0 0)
(286.017 0 0)
(286.558 0 0)
(287.109 0 0)
(287.584 0 0)
(288.252 0 0)
(214.712 0 0)
(216.155 0 0)
(217.581 0 0)
(218.989 0 0)
(220.38 0 0)
(221.755 0 0)
(223.113 0 0)
(224.454 0 0)
(225.78 0 0)
(227.09 0 0)
(228.384 0 0)
(229.664 0 0)
(230.928 0 0)
(232.177 0 0)
(233.412 0 0)
(234.633 0 0)
(235.839 0 0)
(237.032 0 0)
(238.21 0 0)
(239.375 0 0)
(240.526 0 0)
(241.664 0 0)
(242.789 0 0)
(243.901 0 0)
(245 0 0)
(246.086 0 0)
(247.159 0 0)
(248.22 0 0)
(249.269 0 0)
(250.305 0 0)
(251.329 0 0)
(252.341 0 0)
(253.341 0 0)
(254.329 0 0)
(255.305 0 0)
(256.27 0 0)
(257.223 0 0)
(258.165 0 0)
(259.095 0 0)
(260.013 0 0)
(260.921 0 0)
(261.817 0 0)
(262.702 0 0)
(263.576 0 0)
(264.439 0 0)
(265.291 0 0)
(266.132 0 0)
(266.962 0 0)
(267.782 0 0)
(268.59 0 0)
(269.388 0 0)
(270.176 0 0)
(270.952 0 0)
(271.718 0 0)
(272.474 0 0)
(273.219 0 0)
(273.954 0 0)
(274.678 0 0)
(275.392 0 0)
(276.095 0 0)
(276.788 0 0)
(277.471 0 0)
(278.144 0 0)
(278.806 0 0)
(279.458 0 0)
(280.1 0 0)
(280.732 0 0)
(281.353 0 0)
(281.964 0 0)
(282.565 0 0)
(283.156 0 0)
(283.737 0 0)
(284.308 0 0)
(284.868 0 0)
(285.42 0 0)
(285.955 0 0)
(286.501 0 0)
(286.972 0 0)
(287.635 0 0)
(216.378 0 0)
(217.757 0 0)
(219.119 0 0)
(220.465 0 0)
(221.795 0 0)
(223.11 0 0)
(224.41 0 0)
(225.696 0 0)
(226.966 0 0)
(228.222 0 0)
(229.464 0 0)
(230.692 0 0)
(231.907 0 0)
(233.107 0 0)
(234.294 0 0)
(235.468 0 0)
(236.629 0 0)
(237.776 0 0)
(238.911 0 0)
(240.033 0 0)
(241.143 0 0)
(242.24 0 0)
(243.325 0 0)
(244.398 0 0)
(245.458 0 0)
(246.507 0 0)
(247.544 0 0)
(248.57 0 0)
(249.583 0 0)
(250.585 0 0)
(251.576 0 0)
(252.556 0 0)
(253.524 0 0)
(254.481 0 0)
(255.427 0 0)
(256.362 0 0)
(257.286 0 0)
(258.199 0 0)
(259.102 0 0)
(259.994 0 0)
(260.875 0 0)
(261.745 0 0)
(262.605 0 0)
(263.455 0 0)
(264.294 0 0)
(265.123 0 0)
(265.941 0 0)
(266.75 0 0)
(267.548 0 0)
(268.336 0 0)
(269.113 0 0)
(269.881 0 0)
(270.639 0 0)
(271.387 0 0)
(272.124 0 0)
(272.852 0 0)
(273.57 0 0)
(274.278 0 0)
(274.976 0 0)
(275.665 0 0)
(276.343 0 0)
(277.012 0 0)
(277.671 0 0)
(278.321 0 0)
(278.96 0 0)
(279.59 0 0)
(280.211 0 0)
(280.822 0 0)
(281.423 0 0)
(282.014 0 0)
(282.596 0 0)
(283.168 0 0)
(283.731 0 0)
(284.284 0 0)
(284.829 0 0)
(285.358 0 0)
(285.898 0 0)
(286.365 0 0)
(287.021 0 0)
(217.971 0 0)
(219.288 0 0)
(220.59 0 0)
(221.877 0 0)
(223.15 0 0)
(224.409 0 0)
(225.654 0 0)
(226.886 0 0)
(228.104 0 0)
(229.309 0 0)
(230.501 0 0)
(231.681 0 0)
(232.847 0 0)
(234.001 0 0)
(235.142 0 0)
(236.271 0 0)
(237.388 0 0)
(238.493 0 0)
(239.586 0 0)
(240.667 0 0)
(241.737 0 0)
(242.795 0 0)
(243.842 0 0)
(244.877 0 0)
(245.901 0 0)
(246.914 0 0)
(247.916 0 0)
(248.907 0 0)
(249.887 0 0)
(250.857 0 0)
(251.815 0 0)
(252.763 0 0)
(253.701 0 0)
(254.628 0 0)
(255.545 0 0)
(256.451 0 0)
(257.347 0 0)
(258.233 0 0)
(259.109 0 0)
(259.974 0 0)
(260.83 0 0)
(261.676 0 0)
(262.511 0 0)
(263.337 0 0)
(264.153 0 0)
(264.959 0 0)
(265.756 0 0)
(266.543 0 0)
(267.32 0 0)
(268.088 0 0)
(268.846 0 0)
(269.594 0 0)
(270.333 0 0)
(271.063 0 0)
(271.783 0 0)
(272.494 0 0)
(273.195 0 0)
(273.887 0 0)
(274.57 0 0)
(275.243 0 0)
(275.907 0 0)
(276.562 0 0)
(277.208 0 0)
(277.844 0 0)
(278.472 0 0)
(279.09 0 0)
(279.699 0 0)
(280.299 0 0)
(280.89 0 0)
(281.471 0 0)
(282.044 0 0)
(282.607 0 0)
(283.162 0 0)
(283.707 0 0)
(284.245 0 0)
(284.768 0 0)
(285.301 0 0)
(285.763 0 0)
(286.412 0 0)
(219.494 0 0)
(220.753 0 0)
(221.998 0 0)
(223.229 0 0)
(224.448 0 0)
(225.654 0 0)
(226.847 0 0)
(228.028 0 0)
(229.197 0 0)
(230.353 0 0)
(231.498 0 0)
(232.63 0 0)
(233.751 0 0)
(234.86 0 0)
(235.958 0 0)
(237.045 0 0)
(238.12 0 0)
(239.184 0 0)
(240.237 0 0)
(241.279 0 0)
(242.31 0 0)
(243.331 0 0)
(244.341 0 0)
(245.34 0 0)
(246.329 0 0)
(247.307 0 0)
(248.275 0 0)
(249.233 0 0)
(250.181 0 0)
(251.119 0 0)
(252.047 0 0)
(252.964 0 0)
(253.872 0 0)
(254.77 0 0)
(255.659 0 0)
(256.537 0 0)
(257.406 0 0)
(258.266 0 0)
(259.115 0 0)
(259.956 0 0)
(260.786 0 0)
(261.608 0 0)
(262.42 0 0)
(263.223 0 0)
(264.016 0 0)
(264.801 0 0)
(265.576 0 0)
(266.342 0 0)
(267.098 0 0)
(267.846 0 0)
(268.585 0 0)
(269.314 0 0)
(270.035 0 0)
(270.747 0 0)
(271.45 0 0)
(272.144 0 0)
(272.829 0 0)
(273.505 0 0)
(274.172 0 0)
(274.831 0 0)
(275.48 0 0)
(276.122 0 0)
(276.754 0 0)
(277.377 0 0)
(277.992 0 0)
(278.599 0 0)
(279.196 0 0)
(279.785 0 0)
(280.365 0 0)
(280.937 0 0)
(281.5 0 0)
(282.055 0 0)
(282.601 0 0)
(283.138 0 0)
(283.668 0 0)
(284.184 0 0)
(284.71 0 0)
(285.167 0 0)
(285.808 0 0)
(220.952 0 0)
(222.155 0 0)
(223.346 0 0)
(224.525 0 0)
(225.692 0 0)
(226.848 0 0)
(227.992 0 0)
(229.124 0 0)
(230.246 0 0)
(231.356 0 0)
(232.455 0 0)
(233.543 0 0)
(234.62 0 0)
(235.687 0 0)
(236.743 0 0)
(237.789 0 0)
(238.824 0 0)
(239.849 0 0)
(240.864 0 0)
(241.868 0 0)
(242.863 0 0)
(243.847 0 0)
(244.822 0 0)
(245.787 0 0)
(246.742 0 0)
(247.687 0 0)
(248.623 0 0)
(249.549 0 0)
(250.466 0 0)
(251.373 0 0)
(252.271 0 0)
(253.159 0 0)
(254.038 0 0)
(254.908 0 0)
(255.769 0 0)
(256.621 0 0)
(257.464 0 0)
(258.297 0 0)
(259.122 0 0)
(259.938 0 0)
(260.744 0 0)
(261.542 0 0)
(262.331 0 0)
(263.112 0 0)
(263.883 0 0)
(264.646 0 0)
(265.4 0 0)
(266.146 0 0)
(266.883 0 0)
(267.611 0 0)
(268.331 0 0)
(269.042 0 0)
(269.744 0 0)
(270.439 0 0)
(271.124 0 0)
(271.802 0 0)
(272.471 0 0)
(273.131 0 0)
(273.783 0 0)
(274.427 0 0)
(275.063 0 0)
(275.69 0 0)
(276.309 0 0)
(276.92 0 0)
(277.522 0 0)
(278.116 0 0)
(278.703 0 0)
(279.28 0 0)
(279.85 0 0)
(280.412 0 0)
(280.965 0 0)
(281.51 0 0)
(282.048 0 0)
(282.576 0 0)
(283.099 0 0)
(283.607 0 0)
(284.126 0 0)
(284.577 0 0)
(285.21 0 0)
(222.347 0 0)
(223.498 0 0)
(224.638 0 0)
(225.767 0 0)
(226.885 0 0)
(227.993 0 0)
(229.09 0 0)
(230.176 0 0)
(231.253 0 0)
(232.319 0 0)
(233.375 0 0)
(234.421 0 0)
(235.457 0 0)
(236.483 0 0)
(237.499 0 0)
(238.506 0 0)
(239.503 0 0)
(240.49 0 0)
(241.468 0 0)
(242.436 0 0)
(243.396 0 0)
(244.346 0 0)
(245.286 0 0)
(246.218 0 0)
(247.14 0 0)
(248.054 0 0)
(248.958 0 0)
(249.854 0 0)
(250.74 0 0)
(251.618 0 0)
(252.487 0 0)
(253.347 0 0)
(254.199 0 0)
(255.042 0 0)
(255.876 0 0)
(256.702 0 0)
(257.519 0 0)
(258.328 0 0)
(259.128 0 0)
(259.92 0 0)
(260.703 0 0)
(261.478 0 0)
(262.245 0 0)
(263.004 0 0)
(263.754 0 0)
(264.496 0 0)
(265.229 0 0)
(265.955 0 0)
(266.672 0 0)
(267.382 0 0)
(268.083 0 0)
(268.776 0 0)
(269.461 0 0)
(270.138 0 0)
(270.807 0 0)
(271.468 0 0)
(272.121 0 0)
(272.766 0 0)
(273.404 0 0)
(274.033 0 0)
(274.654 0 0)
(275.268 0 0)
(275.874 0 0)
(276.471 0 0)
(277.061 0 0)
(277.644 0 0)
(278.218 0 0)
(278.785 0 0)
(279.344 0 0)
(279.895 0 0)
(280.439 0 0)
(280.974 0 0)
(281.503 0 0)
(282.023 0 0)
(282.537 0 0)
(283.037 0 0)
(283.55 0 0)
(283.994 0 0)
(284.618 0 0)
(223.683 0 0)
(224.785 0 0)
(225.876 0 0)
(226.958 0 0)
(228.03 0 0)
(229.092 0 0)
(230.144 0 0)
(231.187 0 0)
(232.221 0 0)
(233.245 0 0)
(234.259 0 0)
(235.265 0 0)
(236.261 0 0)
(237.248 0 0)
(238.227 0 0)
(239.196 0 0)
(240.156 0 0)
(241.108 0 0)
(242.051 0 0)
(242.985 0 0)
(243.91 0 0)
(244.827 0 0)
(245.735 0 0)
(246.634 0 0)
(247.526 0 0)
(248.408 0 0)
(249.283 0 0)
(250.149 0 0)
(251.006 0 0)
(251.856 0 0)
(252.697 0 0)
(253.53 0 0)
(254.355 0 0)
(255.171 0 0)
(255.98 0 0)
(256.781 0 0)
(257.573 0 0)
(258.358 0 0)
(259.134 0 0)
(259.903 0 0)
(260.664 0 0)
(261.417 0 0)
(262.162 0 0)
(262.899 0 0)
(263.628 0 0)
(264.35 0 0)
(265.063 0 0)
(265.77 0 0)
(266.468 0 0)
(267.159 0 0)
(267.842 0 0)
(268.517 0 0)
(269.185 0 0)
(269.845 0 0)
(270.498 0 0)
(271.143 0 0)
(271.78 0 0)
(272.41 0 0)
(273.032 0 0)
(273.647 0 0)
(274.255 0 0)
(274.855 0 0)
(275.447 0 0)
(276.032 0 0)
(276.61 0 0)
(277.18 0 0)
(277.743 0 0)
(278.299 0 0)
(278.847 0 0)
(279.388 0 0)
(279.921 0 0)
(280.448 0 0)
(280.967 0 0)
(281.478 0 0)
(281.984 0 0)
(282.476 0 0)
(282.98 0 0)
(283.418 0 0)
(284.033 0 0)
(224.963 0 0)
(226.018 0 0)
(227.064 0 0)
(228.1 0 0)
(229.128 0 0)
(230.147 0 0)
(231.157 0 0)
(232.158 0 0)
(233.151 0 0)
(234.135 0 0)
(235.11 0 0)
(236.077 0 0)
(237.035 0 0)
(237.986 0 0)
(238.927 0 0)
(239.861 0 0)
(240.786 0 0)
(241.703 0 0)
(242.612 0 0)
(243.513 0 0)
(244.406 0 0)
(245.291 0 0)
(246.168 0 0)
(247.037 0 0)
(247.898 0 0)
(248.751 0 0)
(249.596 0 0)
(250.434 0 0)
(251.263 0 0)
(252.085 0 0)
(252.9 0 0)
(253.706 0 0)
(254.505 0 0)
(255.297 0 0)
(256.081 0 0)
(256.857 0 0)
(257.626 0 0)
(258.387 0 0)
(259.14 0 0)
(259.886 0 0)
(260.625 0 0)
(261.356 0 0)
(262.08 0 0)
(262.797 0 0)
(263.506 0 0)
(264.208 0 0)
(264.902 0 0)
(265.589 0 0)
(266.269 0 0)
(266.942 0 0)
(267.607 0 0)
(268.265 0 0)
(268.916 0 0)
(269.559 0 0)
(270.196 0 0)
(270.825 0 0)
(271.447 0 0)
(272.062 0 0)
(272.67 0 0)
(273.27 0 0)
(273.864 0 0)
(274.451 0 0)
(275.03 0 0)
(275.602 0 0)
(276.168 0 0)
(276.726 0 0)
(277.278 0 0)
(277.822 0 0)
(278.359 0 0)
(278.89 0 0)
(279.413 0 0)
(279.93 0 0)
(280.439 0 0)
(280.942 0 0)
(281.439 0 0)
(281.923 0 0)
(282.419 0 0)
(282.85 0 0)
(283.456 0 0)
(226.19 0 0)
(227.201 0 0)
(228.203 0 0)
(229.197 0 0)
(230.183 0 0)
(231.16 0 0)
(232.13 0 0)
(233.091 0 0)
(234.045 0 0)
(234.99 0 0)
(235.928 0 0)
(236.858 0 0)
(237.781 0 0)
(238.695 0 0)
(239.602 0 0)
(240.502 0 0)
(241.393 0 0)
(242.277 0 0)
(243.154 0 0)
(244.023 0 0)
(244.885 0 0)
(245.739 0 0)
(246.586 0 0)
(247.425 0 0)
(248.257 0 0)
(249.082 0 0)
(249.899 0 0)
(250.709 0 0)
(251.512 0 0)
(252.308 0 0)
(253.096 0 0)
(253.877 0 0)
(254.651 0 0)
(255.418 0 0)
(256.178 0 0)
(256.931 0 0)
(257.676 0 0)
(258.415 0 0)
(259.146 0 0)
(259.87 0 0)
(260.588 0 0)
(261.298 0 0)
(262.001 0 0)
(262.698 0 0)
(263.387 0 0)
(264.07 0 0)
(264.745 0 0)
(265.414 0 0)
(266.075 0 0)
(266.73 0 0)
(267.378 0 0)
(268.019 0 0)
(268.653 0 0)
(269.281 0 0)
(269.901 0 0)
(270.515 0 0)
(271.122 0 0)
(271.722 0 0)
(272.316 0 0)
(272.902 0 0)
(273.482 0 0)
(274.055 0 0)
(274.622 0 0)
(275.182 0 0)
(275.735 0 0)
(276.281 0 0)
(276.821 0 0)
(277.354 0 0)
(277.881 0 0)
(278.401 0 0)
(278.914 0 0)
(279.421 0 0)
(279.921 0 0)
(280.414 0 0)
(280.903 0 0)
(281.379 0 0)
(281.866 0 0)
(282.291 0 0)
(282.886 0 0)
(227.368 0 0)
(228.336 0 0)
(229.296 0 0)
(230.25 0 0)
(231.195 0 0)
(232.134 0 0)
(233.065 0 0)
(233.988 0 0)
(234.905 0 0)
(235.814 0 0)
(236.716 0 0)
(237.611 0 0)
(238.498 0 0)
(239.379 0 0)
(240.253 0 0)
(241.119 0 0)
(241.979 0 0)
(242.831 0 0)
(243.677 0 0)
(244.515 0 0)
(245.347 0 0)
(246.172 0 0)
(246.989 0 0)
(247.8 0 0)
(248.605 0 0)
(249.402 0 0)
(250.192 0 0)
(250.976 0 0)
(251.753 0 0)
(252.523 0 0)
(253.286 0 0)
(254.043 0 0)
(254.793 0 0)
(255.536 0 0)
(256.273 0 0)
(257.002 0 0)
(257.725 0 0)
(258.442 0 0)
(259.152 0 0)
(259.855 0 0)
(260.552 0 0)
(261.241 0 0)
(261.925 0 0)
(262.602 0 0)
(263.272 0 0)
(263.935 0 0)
(264.592 0 0)
(265.243 0 0)
(265.887 0 0)
(266.524 0 0)
(267.155 0 0)
(267.78 0 0)
(268.398 0 0)
(269.009 0 0)
(269.614 0 0)
(270.213 0 0)
(270.805 0 0)
(271.391 0 0)
(271.97 0 0)
(272.543 0 0)
(273.109 0 0)
(273.669 0 0)
(274.223 0 0)
(274.77 0 0)
(275.311 0 0)
(275.846 0 0)
(276.374 0 0)
(276.896 0 0)
(277.412 0 0)
(277.921 0 0)
(278.424 0 0)
(278.921 0 0)
(279.412 0 0)
(279.896 0 0)
(280.375 0 0)
(280.843 0 0)
(281.322 0 0)
(281.739 0 0)
(282.324 0 0)
(228.497 0 0)
(229.425 0 0)
(230.346 0 0)
(231.261 0 0)
(232.168 0 0)
(233.069 0 0)
(233.963 0 0)
(234.851 0 0)
(235.732 0 0)
(236.606 0 0)
(237.474 0 0)
(238.335 0 0)
(239.19 0 0)
(240.038 0 0)
(240.879 0 0)
(241.714 0 0)
(242.543 0 0)
(243.365 0 0)
(244.181 0 0)
(244.99 0 0)
(245.793 0 0)
(246.589 0 0)
(247.379 0 0)
(248.163 0 0)
(248.94 0 0)
(249.711 0 0)
(250.476 0 0)
(251.234 0 0)
(251.986 0 0)
(252.731 0 0)
(253.47 0 0)
(254.203 0 0)
(254.93 0 0)
(255.65 0 0)
(256.364 0 0)
(257.072 0 0)
(257.773 0 0)
(258.468 0 0)
(259.157 0 0)
(259.84 0 0)
(260.516 0 0)
(261.186 0 0)
(261.85 0 0)
(262.508 0 0)
(263.16 0 0)
(263.805 0 0)
(264.444 0 0)
(265.077 0 0)
(265.704 0 0)
(266.324 0 0)
(266.939 0 0)
(267.547 0 0)
(268.149 0 0)
(268.745 0 0)
(269.335 0 0)
(269.918 0 0)
(270.496 0 0)
(271.067 0 0)
(271.632 0 0)
(272.192 0 0)
(272.745 0 0)
(273.292 0 0)
(273.833 0 0)
(274.368 0 0)
(274.897 0 0)
(275.42 0 0)
(275.937 0 0)
(276.447 0 0)
(276.952 0 0)
(277.451 0 0)
(277.944 0 0)
(278.431 0 0)
(278.912 0 0)
(279.387 0 0)
(279.857 0 0)
(280.316 0 0)
(280.786 0 0)
(281.197 0 0)
(281.771 0 0)
(229.581 0 0)
(230.471 0 0)
(231.354 0 0)
(232.232 0 0)
(233.103 0 0)
(233.968 0 0)
(234.827 0 0)
(235.681 0 0)
(236.528 0 0)
(237.369 0 0)
(238.204 0 0)
(239.032 0 0)
(239.855 0 0)
(240.672 0 0)
(241.483 0 0)
(242.288 0 0)
(243.087 0 0)
(243.88 0 0)
(244.667 0 0)
(245.448 0 0)
(246.224 0 0)
(246.993 0 0)
(247.756 0 0)
(248.513 0 0)
(249.265 0 0)
(250.01 0 0)
(250.75 0 0)
(251.483 0 0)
(252.211 0 0)
(252.933 0 0)
(253.649 0 0)
(254.358 0 0)
(255.062 0 0)
(255.761 0 0)
(256.453 0 0)
(257.139 0 0)
(257.819 0 0)
(258.494 0 0)
(259.163 0 0)
(259.825 0 0)
(260.482 0 0)
(261.133 0 0)
(261.778 0 0)
(262.417 0 0)
(263.051 0 0)
(263.678 0 0)
(264.3 0 0)
(264.915 0 0)
(265.525 0 0)
(266.129 0 0)
(266.728 0 0)
(267.32 0 0)
(267.906 0 0)
(268.487 0 0)
(269.062 0 0)
(269.631 0 0)
(270.194 0 0)
(270.751 0 0)
(271.303 0 0)
(271.849 0 0)
(272.389 0 0)
(272.923 0 0)
(273.452 0 0)
(273.974 0 0)
(274.491 0 0)
(275.003 0 0)
(275.508 0 0)
(276.008 0 0)
(276.502 0 0)
(276.99 0 0)
(277.473 0 0)
(277.95 0 0)
(278.421 0 0)
(278.887 0 0)
(279.348 0 0)
(279.798 0 0)
(280.26 0 0)
(280.663 0 0)
(281.226 0 0)
(230.621 0 0)
(231.475 0 0)
(232.323 0 0)
(233.165 0 0)
(234.002 0 0)
(234.833 0 0)
(235.659 0 0)
(236.479 0 0)
(237.293 0 0)
(238.103 0 0)
(238.906 0 0)
(239.704 0 0)
(240.497 0 0)
(241.284 0 0)
(242.066 0 0)
(242.842 0 0)
(243.612 0 0)
(244.377 0 0)
(245.137 0 0)
(245.891 0 0)
(246.639 0 0)
(247.382 0 0)
(248.12 0 0)
(248.852 0 0)
(249.578 0 0)
(250.299 0 0)
(251.015 0 0)
(251.725 0 0)
(252.429 0 0)
(253.128 0 0)
(253.821 0 0)
(254.509 0 0)
(255.191 0 0)
(255.868 0 0)
(256.539 0 0)
(257.204 0 0)
(257.864 0 0)
(258.519 0 0)
(259.168 0 0)
(259.811 0 0)
(260.449 0 0)