/*--------------------------------*- C++ -*----------------------------------*\
| =========                 |                                                 |
| \\      /  F ield         | OpenFOAM: The Open Source CFD Toolbox           |
|  \\    /   O peration     | Version:  2312                                  |
|   \\  /    A nd           | Website:  www.openfoam.com                      |
|    \\/     M anipulation  |                                                 |
\*---------------------------------------------------------------------------*/
FoamFile
{
    version     2.0;
    format      ascii;
    arch        "LSB;label=32;scalar=64";
    class       surfaceScalarField;
    location    "0.972";
    object      phi;
}
// * * * * * * * * * * * * * * * * * * * * * * * * * * * * * * * * * * * * * //

dimensions      [0 3 -1 0 0 0 0];

oriented        oriented;

internalField   nonuniform List<scalar> 
62015
(
87.4211
0.170505
-87.8241
87.0101
0.166553
86.5911
0.162532
86.1639
0.158444
85.7282
0.154294
85.284
0.150083
84.831
0.145815
84.3689
0.141494
83.8975
0.137123
83.4164
0.132706
82.9253
0.128245
82.4237
0.123744
81.9113
0.119208
81.3874
0.114639
80.8515
0.110042
80.3031
0.10542
79.7413
0.100778
79.1653
0.0961199
78.5744
0.0914486
77.9674
0.0867695
77.3434
0.0820869
76.7009
0.0774048
76.0387
0.0727282
75.355
0.068062
74.648
0.0634108
73.9156
0.0587802
73.1554
0.054175
72.3644
0.0496017
71.5393
0.0450656
70.6762
0.0405732
69.7701
0.0361309
68.8151
0.0317466
67.804
0.0274283
66.7274
0.023184
65.5729
0.0190247
64.3231
0.0149607
62.9567
0.0110063
61.4497
0.00717898
59.7471
0.00350064
57.665
0
54.7953
-0.00326814
50.711
-0.00616111
45.5579
-0.00844175
40.304
-0.00998835
36.0461
-0.0110187
33.2099
-0.0119325
31.5693
-0.0129925
30.7092
-0.0142572
30.3036
-0.015691
30.1558
-0.0172453
30.1582
-0.0188841
30.2527
-0.020585
30.4073
-0.0223346
30.6034
-0.0241249
30.8299
-0.0259504
31.0794
-0.0278078
31.3472
-0.0296942
31.6299
-0.0316077
31.9248
-0.0335464
32.2303
-0.0355087
32.5448
-0.0374932
32.8673
-0.0394984
33.1969
-0.0415227
33.5329
-0.0435649
33.8746
-0.0456238
34.2216
-0.0476977
34.5735
-0.0497854
34.93
-0.0518854
35.2908
-0.0539964
35.6555
-0.056117
36.0241
-0.0582457
36.3964
-0.060381
36.772
-0.0625221
37.1514
-0.0646659
37.5324
-0.0668151
37.9216
-0.0689564
38.2981
-0.0711248
38.726
-0.0732048
-0.0755527
39.0083
84.5498
0.334883
-84.9456
84.1467
0.327098
83.7362
0.31918
83.3183
0.311134
82.8928
0.302967
82.4594
0.294684
82.0179
0.286292
81.5682
0.277797
81.1099
0.269206
80.6427
0.260525
80.1663
0.251762
79.6803
0.242922
79.1842
0.234014
78.6776
0.225043
78.16
0.216019
77.6306
0.206947
77.0889
0.197837
76.5341
0.188695
75.9654
0.17953
75.3819
0.170349
74.7824
0.161163
74.1658
0.151978
73.5308
0.142805
72.8759
0.133652
72.1994
0.124529
71.4992
0.115447
70.7731
0.106414
70.0185
0.0974436
69.2321
0.0885452
68.4105
0.0797323
67.549
0.071017
66.6422
0.0624139
65.6836
0.0539377
64.6647
0.0456062
63.5742
0.0374377
62.3967
0.0294541
61.1124
0.0216808
59.6994
0.0141508
58.1159
0.00690649
56.2213
0
53.669
-0.00647424
50.017
-0.0122708
45.2407
-0.0169396
40.1194
-0.0201564
35.7529
-0.0222302
32.7184
-0.0239444
30.9062
-0.0258993
29.9292
-0.0282728
29.4486
-0.0310085
29.2504
-0.0340045
29.2157
-0.0371811
29.28
-0.0404878
29.4082
-0.0438941
29.58
-0.0473816
29.7833
-0.0509387
30.0104
-0.0545577
30.2561
-0.0582332
30.5169
-0.0619605
30.7902
-0.0657361
31.0742
-0.0695569
31.3672
-0.0734196
31.6683
-0.0773215
31.9764
-0.0812601
32.291
-0.0852323
32.6112
-0.0892354
32.9368
-0.0932671
33.2672
-0.0973246
33.6022
-0.101405
33.9414
-0.105506
34.2846
-0.109624
34.6315
-0.113758
34.9821
-0.117903
35.3359
-0.122058
35.6935
-0.126218
36.0528
-0.130388
36.4198
-0.134542
36.7752
-0.138745
37.1784
-0.142782
-0.147322
37.4479
81.7541
0.493246
-82.1426
81.3589
0.481747
80.9571
0.470056
80.5484
0.458181
80.1328
0.44613
79.71
0.433912
79.2798
0.421536
78.8421
0.409012
78.3965
0.396349
77.9427
0.383557
77.4805
0.370646
77.0094
0.357624
76.529
0.344504
76.0388
0.331295
75.5384
0.318008
75.0272
0.304654
74.5045
0.291244
73.9697
0.27779
73.4219
0.264303
72.8603
0.250795
72.2839
0.237278
71.6916
0.223766
71.0821
0.210271
70.4541
0.196806
69.8058
0.183387
69.1356
0.170025
68.4411
0.156739
67.72
0.143542
66.9694
0.130451
66.1859
0.117485
65.3653
0.104661
64.5026
0.092001
63.5918
0.0795256
62.625
0.06726
61.5922
0.0552308
60.4794
0.0434699
59.2682
0.0320135
57.9383
0.0209072
56.4559
0.0102114
54.711
0
52.4113
-0.00960289
49.1268
-0.0182792
44.7178
-0.0253982
39.7879
-0.0303965
35.3921
-0.0335624
32.2148
-0.0360088
30.259
-0.0387237
29.1781
-0.0420648
28.6287
-0.0459789
28.384
-0.0503107
28.3148
-0.0549303
28.3512
-0.0597536
28.4547
-0.0647294
28.6038
-0.0698273
28.7854
-0.0750283
28.9914
-0.0803199
29.2164
-0.0856933
29.4568
-0.0911414
29.7097
-0.0966591
29.9734
-0.102241
30.2462
-0.107883
30.527
-0.11358
30.815
-0.119329
31.1093
-0.125126
31.4093
-0.130967
31.7146
-0.136848
32.0247
-0.142765
32.3393
-0.148713
32.6582
-0.154691
32.9809
-0.160692
33.3074
-0.166714
33.6375
-0.172751
33.9707
-0.178802
34.3077
-0.184859
34.6464
-0.190928
34.9924
-0.196974
35.3278
-0.203088
35.7076
-0.208966
-0.215552
35.964
79.0399
0.645748
-79.4208
78.6529
0.630655
78.2599
0.615315
77.8606
0.599738
77.455
0.583934
77.0429
0.567917
76.624
0.551697
76.1981
0.535286
75.765
0.518697
75.3245
0.501942
74.876
0.485034
74.4194
0.467986
73.9543
0.450811
73.4801
0.433522
72.9964
0.416134
72.5026
0.39866
71.9983
0.381115
71.4826
0.363514
70.9549
0.345872
70.4143
0.328204
69.8599
0.310526
69.2906
0.292855
68.7054
0.275207
68.1028
0.2576
67.4813
0.240051
66.8392
0.22258
66.1746
0.205205
65.4851
0.187948
64.768
0.170829
64.0202
0.153871
63.2378
0.137098
62.4162
0.120537
61.5497
0.104215
60.6313
0.088164
59.6517
0.0724182
58.5981
0.057018
57.4538
0.0420093
56.1995
0.0274505
54.8068
0.0134162
53.1885
0
51.0984
-0.0126506
48.132
-0.024168
44.0716
-0.0337764
39.3641
-0.0406615
34.9912
-0.0449918
31.7109
-0.0481322
29.6316
-0.0514889
28.4553
-0.0556617
27.8415
-0.0606324
27.5529
-0.0661954
27.4513
-0.0721657
27.4615
-0.0784195
27.5421
-0.0848821
27.67
-0.0915083
27.8314
-0.0982704
28.0177
-0.105151
28.2233
-0.112136
28.4444
-0.119218
28.6783
-0.126388
28.9229
-0.133639
29.1767
-0.140967
29.4385
-0.148365
29.7074
-0.155828
29.9826
-0.163351
30.2636
-0.170929
30.5497
-0.178556
30.8407
-0.186228
31.1361
-0.193941
31.4357
-0.201687
31.7392
-0.209463
32.0463
-0.217264
32.357
-0.225084
32.6708
-0.232919
32.9883
-0.24076
33.3075
-0.248614
33.6337
-0.256438
33.9502
-0.264347
34.308
-0.271955
-0.280455
34.5511
76.4087
0.792557
-76.7815
76.0302
0.77399
75.6462
0.755124
75.2566
0.735971
74.8612
0.716547
74.4598
0.696863
74.0523
0.676936
73.6383
0.656778
73.2177
0.636407
72.7902
0.615834
72.3554
0.595078
71.9132
0.574153
71.4629
0.553076
71.0044
0.531862
70.537
0.510529
70.0603
0.489094
69.5737
0.467574
69.0766
0.445987
68.5683
0.424351
68.048
0.402686
67.5148
0.38101
66.9678
0.359344
66.4058
0.337706
65.8276
0.316119
65.2318
0.294605
64.6167
0.273185
63.9806
0.251884
63.3212
0.230725
62.636
0.209736
61.9221
0.188942
61.1759
0.168373
60.3932
0.148062
59.5686
0.12804
58.6958
0.108346
57.7661
0.0890218
56.7681
0.070115
55.6862
0.0516811
54.5025
0.0337879
53.1924
0.016524
51.6861
0
49.7783
-0.0156184
47.0968
-0.0299335
43.3707
-0.0420619
38.9051
-0.0509412
34.5895
-0.0565313
31.2298
-0.0603541
29.036
-0.0642429
27.7661
-0.0691079
27.088
-0.0750073
26.7558
-0.0816934
26.6226
-0.0889208
26.6074
-0.0965204
26.6662
-0.104389
26.774
-0.112464
26.9163
-0.120708
27.084
-0.129096
27.2714
-0.137612
27.4744
-0.146244
27.6903
-0.154982
27.9169
-0.163817
28.1528
-0.172742
28.3967
-0.18175
28.6476
-0.190835
28.9049
-0.199991
29.1678
-0.20921
29.436
-0.218488
29.7088
-0.227818
29.9861
-0.237194
30.2675
-0.246609
30.5528
-0.256058
30.8417
-0.265535
31.134
-0.275032
31.4295
-0.284546
31.7285
-0.294065
32.0292
-0.303598
32.3367
-0.313092
32.6352
-0.322685
32.9725
-0.33192
-0.342209
33.2026
73.8597
0.933841
-74.2242
73.4901
0.911919
73.1155
0.889649
72.7357
0.867047
72.3507
0.84413
71.9602
0.820913
71.564
0.797413
71.1619
0.773647
70.7538
0.749632
70.3393
0.725386
69.9181
0.700926
69.4899
0.676272
69.0544
0.651441
68.6112
0.626453
68.1598
0.601328
67.6998
0.576085
67.2306
0.550744
66.7516
0.525328
66.2621
0.499856
65.7615
0.47435
65.2489
0.448834
64.7233
0.423329
64.1838
0.39786
63.6292
0.372452
63.058
0.347128
62.4689
0.321916
61.8601
0.296843
61.2296
0.271938
60.575
0.247229
59.8935
0.222749
59.1819
0.198532
58.4362
0.174614
57.6516
0.151033
56.822
0.127834
55.9397
0.105065
54.9942
0.0827788
53.9713
0.0610405
52.854
0.0399273
51.6209
0.0195386
50.2162
0
48.4703
-0.0185083
46.0474
-0.0355745
42.6433
-0.0502445
38.4346
-0.0612272
34.2045
-0.0681974
30.7839
-0.0727201
28.4798
-0.0770431
27.1145
-0.0824568
26.3697
-0.0891488
25.9925
-0.0968435
25.8273
-0.105232
25.7872
-0.114091
25.8247
-0.123286
25.9133
-0.132733
26.0374
-0.142382
26.1875
-0.152202
26.3576
-0.162171
26.5435
-0.172273
26.7424
-0.182498
26.9521
-0.192834
27.1711
-0.203272
27.398
-0.213805
27.632
-0.224425
27.8723
-0.235125
28.1182
-0.245896
28.3693
-0.256733
28.6251
-0.267627
28.8853
-0.278573
29.1495
-0.289562
29.4176
-0.300587
29.6891
-0.311642
29.9642
-0.322719
30.2423
-0.333812
30.5238
-0.344908
30.8071
-0.356018
31.0968
-0.367082
31.3783
-0.378255
31.6961
-0.389017
-0.400978
31.9138
71.3915
1.06977
-71.7473
71.031
1.04461
70.6659
1.01905
70.2962
0.993128
69.9216
0.966845
69.5421
0.940224
69.1573
0.913284
68.7672
0.886044
68.3714
0.858523
67.9698
0.830742
67.562
0.802721
67.1478
0.774481
66.7269
0.746042
66.2987
0.717426
65.863
0.688657
65.4193
0.659755
64.967
0.630745
64.5057
0.601649
64.0346
0.572492
63.5531
0.543299
63.0604
0.514095
62.5556
0.484905
62.0378
0.455757
61.5059
0.426679
60.9586
0.397697
60.3945
0.368844
59.8119
0.340148
59.2091
0.311643
58.5838
0.283362
57.9334
0.25534
57.2549
0.227616
56.5447
0.200231
55.7981
0.173227
55.0097
0.146655
54.1725
0.120567
53.2768
0.095025
52.3096
0.0700994
51.2553
0.0458754
50.0945
0.0224631
48.7826
0
47.1813
-0.0213221
44.9936
-0.0410889
41.8982
-0.0583122
37.9586
-0.0715028
33.8405
-0.0799966
30.3772
-0.0852717
27.9666
-0.0899493
26.5025
-0.0957665
25.6873
-0.103106
25.2629
-0.111687
25.0648
-0.121135
24.9997
-0.131169
25.0163
-0.14161
25.0862
-0.152353
25.1929
-0.163333
25.3262
-0.174511
25.48
-0.185858
25.6497
-0.197356
25.8325
-0.20899
26.0262
-0.220749
26.2291
-0.232621
26.4401
-0.244598
26.6581
-0.256671
26.8823
-0.26883
27.1122
-0.281069
27.3472
-0.293377
27.5869
-0.305749
27.8309
-0.318174
28.0788
-0.330647
28.3306
-0.343157
28.5858
-0.355698
28.8445
-0.368261
29.1061
-0.380839
29.3712
-0.393419
29.638
-0.40601
29.9109
-0.418547
30.1762
-0.431202
30.4757
-0.443399
-0.45692
30.6816
69.0021
1.2005
-69.349
68.6509
1.17221
68.2956
1.1435
67.936
1.11437
67.572
1.08485
67.2034
1.05495
66.83
1.0247
66.4517
0.994119
66.0683
0.963227
65.6795
0.932047
65.285
0.900602
64.8845
0.868915
64.4778
0.837009
64.0645
0.804909
63.6441
0.772639
63.2163
0.740223
62.7806
0.707689
62.3364
0.67506
61.8831
0.642366
61.4202
0.609632
60.9468
0.576887
60.4622
0.54416
59.9654
0.51148
59.4554
0.478877
58.9311
0.446385
58.391
0.414034
57.8338
0.381861
57.2576
0.349898
56.6604
0.318185
56.0398
0.28676
55.393
0.255666
54.7166
0.224947
54.0064
0.194651
53.2573
0.164832
52.4629
0.135549
51.6144
0.106869
50.7001
0.0788676
49.7054
0.0516388
48.6125
0.0253
47.3859
0
45.914
-0.0240607
43.939
-0.0464749
41.1371
-0.0662507
37.4751
-0.0817452
33.4951
-0.0919222
30.0095
-0.0980416
27.4975
-0.103021
25.9313
-0.109098
25.0412
-0.116932
24.5668
-0.126269
24.3344
-0.136671
24.2439
-0.147789
24.2398
-0.159398
24.2916
-0.171363
24.3814
-0.183602
24.4988
-0.196066
24.6369
-0.208719
24.7913
-0.221541
24.9588
-0.234512
25.1374
-0.247619
25.3252
-0.26085
25.521
-0.274194
25.7239
-0.287641
25.933
-0.301181
26.1477
-0.314805
26.3674
-0.328504
26.5919
-0.34227
26.8205
-0.356092
27.0532
-0.369962
27.2895
-0.383872
27.5293
-0.397812
27.7724
-0.411773
28.0186
-0.425747
28.268
-0.43972
28.5192
-0.453702
28.7762
-0.467623
29.0263
-0.481667
29.3084
-0.495211
-0.510188
29.5031
66.6895
1.32619
-67.0273
66.3477
1.2949
66.0022
1.26314
65.6528
1.23093
65.2994
1.19829
64.9418
1.16524
64.5798
1.13181
64.2133
1.09802
63.8421
1.06388
63.4659
1.02944
63.0844
0.994703
62.6975
0.959705
62.3048
0.924469
61.906
0.889023
61.5006
0.853391
61.0884
0.817603
60.6687
0.781684
60.2412
0.745666
59.8053
0.709575
59.3604
0.673443
58.9057
0.6373
58.4406
0.601177
57.9641
0.565107
57.4753
0.529123
56.9731
0.49326
56.4562
0.457552
55.9233
0.422038
55.3727
0.386756
54.8024
0.351747
54.2104
0.317052
53.5939
0.282719
52.9498
0.248795
52.2743
0.215332
51.5627
0.182389
50.809
0.150028
50.0054
0.118323
49.1412
0.087355
48.2027
0.0572235
47.174
0.0280525
46.0259
0
44.6698
-0.0267261
42.8859
-0.0517311
40.3599
-0.0740463
36.9802
-0.0919259
33.1632
-0.103957
29.6782
-0.111052
27.0724
-0.116315
25.4014
-0.122518
24.4318
-0.130684
23.9039
-0.140637
23.6355
-0.151879
23.5188
-0.163989
23.4941
-0.176686
23.5281
-0.189799
23.6017
-0.203228
23.7037
-0.216908
23.8269
-0.230801
23.9667
-0.244876
24.1198
-0.259115
24.284
-0.273499
24.4575
-0.288017
24.6391
-0.302655
24.8276
-0.317402
25.0224
-0.332248
25.2227
-0.347181
25.4281
-0.362194
25.6381
-0.377274
25.8523
-0.392413
26.0704
-0.407602
26.2922
-0.422829
26.5174
-0.438085
26.7459
-0.453361
26.9773
-0.468649
27.2119
-0.483931
27.4484
-0.499219
27.6904
-0.514437
27.9261
-0.529783
28.1917
-0.544592
-0.560924
28.3757
64.4517
1.44701
-64.7804
64.1195
1.41283
63.7838
1.37814
63.4446
1.34297
63.1018
1.30733
62.7551
1.27125
62.4044
1.23476
62.0496
1.19788
61.6904
1.16063
61.3266
1.12305
60.958
1.08516
60.5844
1.04698
60.2054
1.00855
59.8207
0.969887
59.43
0.93103
59.0329
0.892004
58.629
0.852839
58.2177
0.813566
57.7987
0.774217
57.3712
0.734824
56.9346
0.69542
56.4883
0.656039
56.0314
0.616716
55.563
0.577487
55.0821
0.538388
54.5876
0.499459
54.078
0.460738
53.5519
0.422269
53.0076
0.384093
52.4429
0.346258
51.8554
0.308811
51.2422
0.271806
50.5998
0.235297
49.9238
0.199347
49.2089
0.164023
48.4479
0.129402
47.631
0.0955709
46.7459
0.0626347
45.7776
0.0307225
44.7021
0
43.4497
-0.0293194
41.8364
-0.0568566
39.5667
-0.0816873
36.4695
-0.102015
32.8387
-0.116073
29.3795
-0.124315
26.6904
-0.129885
24.9133
-0.136095
23.8592
-0.144425
23.274
-0.154841
22.9674
-0.166803
22.8237
-0.179807
22.7782
-0.193509
22.7946
-0.207698
22.8524
-0.222247
22.9397
-0.237079
23.0487
-0.252143
23.1746
-0.267407
23.314
-0.282846
23.4646
-0.298441
23.6246
-0.314178
23.7926
-0.33004
23.9676
-0.346017
24.1488
-0.362097
24.3356
-0.378269
24.5274
-0.394521
24.7237
-0.410842
24.9243
-0.427224
25.1287
-0.443654
25.3367
-0.460122
25.5481
-0.476617
25.7627
-0.49313
25.9802
-0.509651
26.2009
-0.526163
26.4234
-0.542676
26.6512
-0.559112
26.8732
-0.575677
27.1233
-0.591674
-0.609268
27.2972
62.2867
1.56311
-62.6061
61.964
1.52615
61.6383
1.48865
61.3093
1.45062
60.9769
1.4121
60.641
1.37312
60.3015
1.33369
59.9582
1.29384
59.6109
1.25361
59.2594
1.21301
58.9034
1.17209
58.5428
1.13086
58.1772
1.08936
57.8064
1.04762
57.43
1.00567
57.0476
0.963533
56.6589
0.921254
56.2635
0.87886
55.8607
0.836385
55.4501
0.793864
55.0311
0.751332
54.6029
0.708826
54.165
0.666381
53.7163
0.624038
53.2559
0.581835
52.7828
0.539813
52.2957
0.498015
51.7932
0.456485
51.2736
0.415269
50.7351
0.374416
50.1753
0.333978
49.5917
0.29401
48.9808
0.254572
48.3389
0.215728
47.6608
0.177549
46.9401
0.140118
46.1681
0.103524
45.3333
0.0678781
44.422
0.0333131
43.414
0
42.2546
-0.0318427
40.7927
-0.0618521
38.7585
-0.0891631
35.9396
-0.111982
32.5153
-0.128234
29.1088
-0.137829
26.3504
-0.143779
24.4672
-0.1499
23.3238
-0.158224
22.6769
-0.16894
22.3296
-0.181489
22.1578
-0.195283
22.091
-0.209906
22.09
-0.225097
22.1325
-0.240698
22.2055
-0.256615
22.3009
-0.272789
22.4136
-0.289177
22.54
-0.305754
22.6777
-0.322496
22.8248
-0.339385
22.98
-0.356407
23.1422
-0.373548
23.3106
-0.390795
23.4846
-0.408135
23.6635
-0.425558
23.847
-0.443051
24.0346
-0.460603
24.226
-0.478203
24.421
-0.495839
24.6194
-0.513501
24.8209
-0.531176
25.0253
-0.548856
25.2327
-0.566522
25.442
-0.584185
25.6564
-0.601764
25.8654
-0.61947
26.1008
-0.63658
-0.655349
26.2652
60.1925
1.67465
-60.5027
59.8794
1.63501
59.5634
1.59481
59.2446
1.55405
58.9226
1.51276
58.5975
1.47098
58.269
1.42873
57.937
1.38604
57.6014
1.34294
57.2619
1.29946
56.9183
1.25562
56.5704
1.21147
56.2179
1.16703
55.8606
1.12233
55.4981
1.07741
55.1301
1.0323
54.7563
0.987029
54.3761
0.941642
53.9891
0.89617
53.5949
0.850649
53.1928
0.805117
52.7822
0.759612
52.3625
0.714175
51.9327
0.668844
51.4921
0.623662
51.0396
0.578673
50.5741
0.53392
50.0942
0.489452
49.5984
0.445317
49.0849
0.401566
48.5517
0.358253
47.9962
0.315437
47.4155
0.273181
46.8059
0.231551
46.1628
0.190624
45.4804
0.150483
44.7508
0.111224
43.9636
0.0729588
43.106
0.035826
42.1608
0
41.0852
-0.0342971
39.7572
-0.0667184
37.9369
-0.096467
35.3879
-0.121799
32.1865
-0.140397
28.8608
-0.151577
26.0504
-0.158038
24.0635
-0.164008
22.8262
-0.172157
22.113
-0.182995
21.7218
-0.195986
21.5203
-0.21046
21.4318
-0.225914
21.4133
-0.242031
21.4407
-0.258617
21.4999
-0.275556
21.5823
-0.292776
21.6823
-0.310229
21.7963
-0.327882
21.9218
-0.345709
22.0567
-0.363691
22.1998
-0.38181
22.3499
-0.400051
22.5063
-0.4184
22.6681
-0.436845
22.8348
-0.455373
23.0061
-0.473971
23.1815
-0.492627
23.3607
-0.511329
23.5434
-0.530065
23.7294
-0.548824
23.9185
-0.567592
24.1105
-0.586361
24.3054
-0.60511
24.5023
-0.623852
24.7039
-0.642501
24.9007
-0.661276
25.1222
-0.67943
-0.699291
25.2776
58.1671
1.78177
-58.4681
57.8635
1.73957
57.5573
1.69677
57.2485
1.65338
56.9368
1.60945
56.6223
1.56498
56.3047
1.52003
55.9839
1.47461
55.6597
1.42876
55.332
1.3825
55.0005
1.33588
54.665
1.28892
54.3253
1.24166
53.9812
1.19412
53.6322
1.14636
53.2782
1.09839
52.9187
1.05026
52.5533
1.002
52.1817
0.953658
51.8032
0.905261
51.4175
0.856853
51.0239
0.808473
50.6217
0.760165
50.2102
0.711969
49.7886
0.66393
49.3559
0.616093
48.9111
0.568506
48.4529
0.521217
47.9798
0.474279
47.4903
0.427743
46.9825
0.381669
46.4539
0.336115
45.9019
0.291148
45.3231
0.246838
44.7133
0.203263
44.0672
0.160509
43.3778
0.118678
42.6355
0.0778821
41.8285
0.0382637
40.9419
0
39.9421
-0.0366845
38.7322
-0.0714577
37.1041
-0.103594
34.8127
-0.131439
31.8466
-0.152514
28.6295
-0.165531
25.788
-0.172689
23.7021
-0.178493
22.3671
-0.186307
21.5824
-0.197078
21.1439
-0.210352
20.9108
-0.225381
20.7997
-0.241572
20.7636
-0.258537
20.7761
-0.276039
20.8218
-0.293938
20.8916
-0.312145
20.9796
-0.330603
21.0818
-0.349274
21.1956
-0.368128
21.3191
-0.387143
21.4507
-0.406299
21.5893
-0.425581
21.7342
-0.444973
21.8845
-0.464461
22.0398
-0.484032
22.1996
-0.503671
22.3634
-0.523368
22.531
-0.543108
22.7021
-0.56288
22.8764
-0.58267
23.0538
-0.602465
23.234
-0.622256
23.4172
-0.642023
23.6022
-0.661776
23.7918
-0.681428
23.9771
-0.701203
24.1854
-0.720336
-0.741212
24.3322
56.2086
1.88463
-56.5003
55.9144
1.83997
55.6179
1.79468
55.319
1.74878
55.0175
1.70229
54.7134
1.65526
54.4064
1.60771
54.0966
1.55968
53.7836
1.51119
53.4674
1.46228
53.1478
1.41298
52.8244
1.36333
52.4972
1.31336
52.1659
1.26312
51.8301
1.21262
51.4896
1.16192
51.144
1.11104
50.793
1.06004
50.4361
1.00893
50.073
0.957781
49.7031
0.906616
49.3258
0.85548
48.9406
0.804419
48.5467
0.753475
48.1434
0.702695
47.7297
0.652127
47.3047
0.60182
46.8673
0.551824
46.416
0.502194
45.9495
0.452985
45.4658
0.404256
44.9629
0.356071
44.4383
0.308496
43.8888
0.261606
43.3106
0.21548
42.699
0.170209
42.0476
0.125894
41.3476
0.0826528
40.5884
0.0406285
39.7565
0
38.8256
-0.0390067
37.7197
-0.0760722
36.2627
-0.110541
34.2136
-0.14088
31.4901
-0.164535
28.4085
-0.179645
25.5596
-0.187745
23.3828
-0.193426
21.9472
-0.200763
21.0856
-0.211268
20.5957
-0.224648
20.3287
-0.240099
20.194
-0.256922
20.1399
-0.274653
20.1376
-0.293002
20.1702
-0.311797
20.2278
-0.330932
20.3042
-0.350339
20.3952
-0.369971
20.498
-0.389796
20.6105
-0.409788
20.7312
-0.429926
20.859
-0.450191
20.993
-0.470568
21.1325
-0.491041
21.2769
-0.511596
21.4258
-0.532219
21.5787
-0.552895
21.7354
-0.573613
21.8955
-0.594359
22.0588
-0.615119
22.2251
-0.63588
22.3942
-0.656631
22.5661
-0.677351
22.74
-0.698052
22.9182
-0.718644
23.0926
-0.739354
23.2885
-0.759405
-0.781222
23.4271
54.315
1.98337
-54.5976
54.0301
1.93636
53.7432
1.88868
53.454
1.84036
53.1625
1.79144
52.8686
1.74194
52.5722
1.69191
52.2731
1.64136
51.9711
1.59035
51.6662
1.53889
51.3581
1.48704
51.0466
1.43481
50.7315
1.38225
50.4126
1.3294
50.0896
1.27629
49.7622
1.22297
49.4301
1.16947
49.093
1.11582
48.7505
1.06208
48.4021
1.00829
48.0474
0.954479
47.6859
0.900702
47.317
0.847001
46.94
0.793423
46.5542
0.740015
46.1588
0.686827
45.7529
0.63391
45.3354
0.581316
44.905
0.529102
44.4604
0.477324
43.9999
0.426045
43.5215
0.37533
43.0229
0.325248
42.5014
0.275874
41.9533
0.227292
41.3743
0.179593
40.7587
0.132881
40.0988
0.0872758
39.3846
0.0429225
38.604
0
37.736
-0.0412651
36.7218
-0.0805647
35.4158
-0.117309
33.5908
-0.150104
31.1121
-0.176408
28.1908
-0.193859
25.3612
-0.203199
23.105
-0.20887
21.5674
-0.215619
20.6235
-0.225653
20.0776
-0.238946
19.7739
-0.254665
19.6141
-0.272009
19.5416
-0.290418
19.5243
-0.309542
19.544
-0.32917
19.5899
-0.349175
19.6551
-0.369474
19.7353
-0.390014
19.8276
-0.410756
19.9297
-0.431671
20.0401
-0.452736
20.1576
-0.473931
20.2813
-0.495238
20.4106
-0.516641
20.5447
-0.538125
20.6833
-0.559674
20.8259
-0.581275
20.9722
-0.602913
21.1219
-0.624575
21.2748
-0.646247
21.4306
-0.667915
21.5892
-0.689567
21.7506
-0.711182
21.9139
-0.73277
22.0814
-0.754242
22.2454
-0.775826
22.4295
-0.796736
-0.819426
22.5605
52.4843
2.07814
-52.7579
52.2087
2.02886
51.9312
1.9789
51.6516
1.92827
51.37
1.87701
51.0862
1.82515
50.8
1.77274
50.5114
1.71979
50.2201
1.66636
49.9262
1.61247
49.6293
1.55816
49.3293
1.50347
49.026
1.44843
48.7192
1.39308
48.4086
1.33747
48.0939
1.28164
47.7749
1.22561
47.4513
1.16945
47.1226
1.11318
46.7885
1.05685
46.4485
1.00051
46.1022
0.944204
45.749
0.887974
45.3882
0.831871
45.0193
0.775943
44.6415
0.720242
44.2538
0.664821
43.8554
0.609734
43.445
0.555039
43.0213
0.500795
42.5829
0.447066
42.1279
0.393918
41.6542
0.341424
41.1592
0.28966
40.6397
0.238711
40.0917
0.188671
39.51
0.139645
38.8878
0.0917559
38.216
0.0451478
37.4836
0
36.6733
-0.0434614
35.7402
-0.0849376
34.5665
-0.123898
32.9459
-0.159099
30.7089
-0.188086
27.9693
-0.208102
25.1873
-0.219021
22.8671
-0.224874
21.2283
-0.230973
20.1969
-0.240333
19.59
-0.253326
19.2463
-0.269144
19.0597
-0.286882
18.9678
-0.305874
18.9355
-0.325696
18.9424
-0.346093
18.9767
-0.366909
19.0312
-0.388046
19.1011
-0.40944
19.1833
-0.431047
19.2755
-0.452835
19.3761
-0.474776
19.4839
-0.496849
19.5979
-0.519034
19.7174
-0.541315
19.8419
-0.563674
19.9707
-0.586097
20.1035
-0.608568
20.24
-0.631073
20.3799
-0.653597
20.5229
-0.676126
20.6689
-0.698645
20.8175
-0.721142
20.9689
-0.743596
21.1223
-0.766016
21.2796
-0.788312
21.4338
-0.810712
21.6068
-0.832427
-0.855926
21.7305
50.7148
2.16907
-50.9795
50.4483
2.11763
50.18
2.06547
49.9099
2.01263
49.6379
1.95913
49.3639
1.90502
49.0878
1.85033
48.8094
1.79509
48.5287
1.73934
48.2454
1.68311
47.9595
1.62645
47.6707
1.5694
47.3789
1.51199
47.0838
1.45426
46.7852
1.39625
46.4829
1.33801
46.1765
1.27958
45.8659
1.22099
45.5505
1.1623
45.2302
1.10355
44.9044
1.04479
44.5727
0.986052
44.2345
0.927399
43.8895
0.868874
43.5368
0.810531
43.1758
0.75242
42.8056
0.694597
42.4254
0.637118
42.0342
0.580042
41.6306
0.523429
41.2133
0.467346
40.7806
0.411861
40.3305
0.357045
39.8607
0.302981
39.3683
0.249752
38.8497
0.197454
38.3002
0.146195
37.7135
0.0960974
37.0816
0.0473063
36.3944
0
35.6374
-0.0455971
34.7762
-0.0891943
33.7178
-0.130312
32.281
-0.167857
30.2779
-0.199525
27.7367
-0.222297
25.0317
-0.235157
22.6671
-0.241469
20.9304
-0.246921
19.8069
-0.255417
19.1333
-0.267879
18.7458
-0.283605
18.5303
-0.301594
18.4181
-0.321064
18.3703
-0.341504
18.3644
-0.362602
18.3874
-0.38417
18.4315
-0.406091
18.4915
-0.428288
18.5641
-0.450711
18.6469
-0.473321
18.7382
-0.496088
18.8367
-0.51899
18.9415
-0.542004
19.0518
-0.565113
19.1671
-0.588299
19.2867
-0.611545
19.4103
-0.634836
19.5375
-0.658156
19.6681
-0.68149
19.8018
-0.704825
19.9384
-0.728143
20.0777
-0.751433
20.2196
-0.774672
20.3635
-0.79787
20.5112
-0.820937
20.6561
-0.8441
20.8187
-0.866569
-0.890815
20.9354
49.0046
2.2563
-49.2605
48.7469
2.20279
48.4877
2.14854
48.2269
2.09357
47.9644
2.03794
47.7
1.98167
47.4337
1.92479
47.1653
1.86735
46.8948
1.80939
46.622
1.75093
46.3467
1.69203
46.0688
1.63271
45.788
1.57303
45.5043
1.51302
45.2174
1.45272
44.927
1.39218
44.6329
1.33143
44.3348
1.27054
44.0323
1.20953
43.7252
1.14845
43.4131
1.08737
43.0955
1.02631
42.7719
0.965332
42.4418
0.904488
42.1047
0.843828
41.7598
0.783407
41.4065
0.723281
41.0438
0.663506
40.6708
0.604144
40.2864
0.545257
39.8892
0.486912
39.4778
0.429179
39.0503
0.372132
38.6046
0.315852
38.1379
0.260427
37.6471
0.205952
37.1279
0.152537
36.5748
0.100305
35.9805
0.0494
35.3356
0
34.6279
-0.0476736
33.8312
-0.0933374
32.8729
-0.136555
31.599
-0.176374
29.8175
-0.210692
27.4865
-0.236359
24.8874
-0.25153
22.5016
-0.258661
20.6739
-0.263554
19.4546
-0.271023
18.7086
-0.282711
18.2728
-0.298128
18.0257
-0.316207
17.892
-0.336037
17.8281
-0.357006
17.8093
-0.378736
17.8212
-0.400996
17.8551
-0.423646
17.9055
-0.446596
17.9689
-0.469784
18.0427
-0.493169
18.1251
-0.516716
18.2149
-0.540399
18.311
-0.564195
18.4126
-0.588085
18.5191
-0.612049
18.63
-0.636071
18.7448
-0.660133
18.8633
-0.684221
18.9851
-0.708317
19.11
-0.732407
19.2378
-0.756476
19.3682
-0.780509
19.5012
-0.804485
19.6361
-0.828411
19.7747
-0.852199
19.9109
-0.876073
20.0635
-0.899247
-0.924184
20.1737
47.3517
2.33996
-47.5991
47.1029
2.28447
46.8526
2.22821
46.6008
2.17123
46.3475
2.11355
46.0925
2.05521
45.8358
1.99625
45.5772
1.93671
45.3166
1.87662
45.0539
1.81603
44.789
1.75498
44.5216
1.6935
44.2517
1.63165
43.979
1.56945
43.7033
1.50696
43.4245
1.44421
43.1422
1.38126
42.8562
1.31815
42.5662
1.25492
42.2719
1.19163
41.9729
1.12831
41.6688
1.06503
41.3592
1.00183
41.0436
0.938764
40.7214
0.875885
40.392
0.813248
40.0548
0.750912
39.7088
0.688935
39.3533
0.627379
38.9872
0.566309
38.6093
0.505791
38.2181
0.445897
37.8121
0.386703
37.3892
0.328291
36.947
0.270749
36.4825
0.214175
35.9921
0.158678
35.4706
0.104382
34.9115
0.0514308
34.3065
0
33.6447
-0.0496923
32.9058
-0.0973699
32.0344
-0.142631
30.9034
-0.184652
29.3278
-0.22156
27.2127
-0.25021
24.7464
-0.268039
22.3661
-0.276423
20.4584
-0.280948
19.1412
-0.287275
18.3169
-0.29794
17.8279
-0.312808
17.5461
-0.330791
17.389
-0.350847
17.3083
-0.372247
17.2763
-0.394532
17.277
-0.417422
17.301
-0.440746
17.3422
-0.464398
17.3967
-0.488305
17.4619
-0.512418
17.5359
-0.536699
17.6173
-0.561118
17.7051
-0.585652
17.7985
-0.610277
17.8967
-0.634975
17.9994
-0.659726
18.106
-0.684515
18.2162
-0.709324
18.3297
-0.734136
18.4463
-0.758937
18.5656
-0.783708
18.6876
-0.808438
18.8122
-0.833103
18.9387
-0.857712
19.0687
-0.882173
19.1966
-0.906711
19.3398
-0.930544
-0.956118
19.4438
45.7546
2.42019
-45.9935
45.5143
2.3628
45.2727
2.30463
45.0298
2.24571
44.7855
2.18607
44.5397
2.12575
44.2923
2.0648
44.0432
2.00325
43.7923
1.94114
43.5394
1.87851
43.2845
1.81541
43.0274
1.75186
42.7679
1.68793
42.5059
1.62364
42.2411
1.55905
41.9734
1.4942
41.7026
1.42914
41.4283
1.36391
41.1503
1.29856
40.8683
1.23314
40.582
1.16769
40.2909
1.10228
39.9947
1.03695
39.693
0.971752
39.3851
0.906745
39.0706
0.841986
38.7487
0.777531
38.4188
0.713441
38.0801
0.64978
37.7314
0.586612
37.3719
0.524006
37
0.462035
36.6144
0.400776
36.2132
0.340311
35.7943
0.280731
35.3548
0.222132
34.8915
0.164625
34.3998
0.108333
33.8739
0.0534008
33.3063
0
32.6872
-0.0516548
32.0007
-0.101294
31.205
-0.148544
30.1979
-0.192695
28.81
-0.232111
26.9105
-0.263775
24.6005
-0.28457
22.2548
-0.294692
20.2824
-0.299155
18.8678
-0.304301
17.9595
-0.3137
17.4116
-0.327752
17.0914
-0.345425
16.9089
-0.365555
16.8104
-0.387276
16.7648
-0.410033
16.7544
-0.433486
16.7685
-0.457429
16.8007
-0.481732
16.8466
-0.50631
16.9036
-0.531106
16.9696
-0.556077
17.0431
-0.581189
17.123
-0.606416
17.2085
-0.631734
17.299
-0.657122
17.3938
-0.682562
17.4926
-0.708033
17.5949
-0.73352
17.7006
-0.759005
17.8092
-0.784471
17.9207
-0.809903
18.0348
-0.835285
18.1514
-0.860596
18.2699
-0.885841
18.3918
-0.910932
18.5118
-0.936088
18.6462
-0.960537
-0.9867
18.7443
44.2113
2.49709
-44.442
43.9794
2.4379
43.7464
2.3779
43.5121
2.31713
43.2766
2.25562
43.0397
2.19342
42.8014
2.13057
42.5615
2.0671
42.32
2.00305
42.0767
1.93847
41.8316
1.8734
41.5844
1.80789
41.335
1.74196
41.0833
1.67568
40.8291
1.60909
40.5722
1.54222
40.3123
1.47514
40.0493
1.40788
39.7829
1.3405
39.5128
1.27304
39.2386
1.20556
38.9601
1.13811
38.6768
1.07074
38.3883
1.0035
38.0942
0.936456
37.7939
0.869661
37.4869
0.803175
37.1723
0.737059
36.8495
0.671376
36.5176
0.606195
36.1755
0.541583
35.8221
0.477615
35.456
0.41437
35.0754
0.351929
34.6785
0.290383
34.2627
0.229832
33.825
0.170384
33.3614
0.112163
32.8668
0.0553116
32.3341
0
31.755
-0.0535623
31.1162
-0.105113
30.3867
-0.1543
29.4863
-0.200509
28.2662
-0.242339
26.5767
-0.276992
24.4417
-0.300996
22.1609
-0.313368
20.1435
-0.318194
18.6351
-0.322222
17.6378
-0.330138
17.0251
-0.343085
16.6622
-0.360205
16.4518
-0.380229
16.334
-0.402145
16.2743
-0.425282
16.2525
-0.449228
16.2568
-0.47373
16.2801
-0.498632
16.3179
-0.523835
16.3669
-0.549269
16.4252
-0.574887
16.4911
-0.60065
16.5635
-0.62653
16.6416
-0.6525
16.7247
-0.678538
16.8121
-0.704623
16.9035
-0.730737
16.9984
-0.75686
17.0966
-0.782976
17.1978
-0.809068
17.3018
-0.835118
17.4083
-0.861111
17.5174
-0.887025
17.6284
-0.912866
17.7426
-0.938544
17.8552
-0.964276
17.9812
-0.989302
-1.016
18.0738
42.7203
2.5708
-42.9428
42.4965
2.50988
42.2718
2.44814
42.046
2.3856
41.8191
2.32232
41.5909
2.25832
41.3614
2.19364
41.1305
2.12834
40.8981
2.06245
40.6641
1.99601
40.4284
1.92906
40.1908
1.86166
39.9512
1.79384
39.7095
1.72565
39.4655
1.65714
39.219
1.58835
38.9697
1.51933
38.7176
1.45014
38.4623
1.38081
38.2036
1.31141
37.9412
1.24198
37.6747