/*--------------------------------*- C++ -*----------------------------------*\
| =========                 |                                                 |
| \\      /  F ield         | OpenFOAM: The Open Source CFD Toolbox           |
|  \\    /   O peration     | Version:  2312                                  |
|   \\  /    A nd           | Website:  www.openfoam.com                      |
|    \\/     M anipulation  |                                                 |
\*---------------------------------------------------------------------------*/
FoamFile
{
    version     2.0;
    format      ascii;
    arch        "LSB;label=32;scalar=64";
    class       surfaceScalarField;
    location    "0.907";
    object      phi;
}
// * * * * * * * * * * * * * * * * * * * * * * * * * * * * * * * * * * * * * //

dimensions      [0 3 -1 0 0 0 0];

oriented        oriented;

internalField   nonuniform List<scalar> 
62015
(
27.5776
0.144954
-27.2569
27.9413
0.144561
28.3381
0.144178
28.7598
0.143756
29.1998
0.14325
29.6523
0.142626
30.1132
0.141856
30.579
0.140918
31.047
0.139795
31.5152
0.138473
31.9821
0.136943
32.4467
0.135198
32.9081
0.133232
33.3659
0.131042
33.8196
0.128625
34.2692
0.125981
34.7147
0.12311
35.156
0.120011
35.5934
0.116686
36.0269
0.113137
36.457
0.109365
36.8838
0.105374
37.3076
0.101166
37.7288
0.0967434
38.1478
0.0921104
38.5648
0.0872698
38.9802
0.0822254
39.3944
0.076981
39.8077
0.0715407
40.2205
0.0659084
40.6331
0.0600884
41.0459
0.0540845
41.4592
0.0479021
41.8734
0.0415447
42.2888
0.0350176
42.7057
0.0283251
43.1244
0.0214724
43.5452
0.0144638
43.9684
0.00730469
44.3944
0
44.8233
-0.0074454
45.2555
-0.0150256
45.6912
-0.0227367
46.1307
-0.0305719
46.5741
-0.0385271
47.0219
-0.046596
47.474
-0.0547737
47.9309
-0.0630541
48.3926
-0.0714325
48.8594
-0.0799024
49.3315
-0.0884585
49.809
-0.097095
50.2921
-0.105806
50.7809
-0.114587
51.2757
-0.12343
51.7765
-0.13233
52.2835
-0.141282
52.7968
-0.15028
53.3165
-0.159317
53.8427
-0.168387
54.3756
-0.177485
54.9151
-0.186604
55.4613
-0.195739
56.0144
-0.204884
56.5744
-0.214032
57.1413
-0.223178
57.7152
-0.232315
58.2961
-0.241438
58.884
-0.250541
59.479
-0.259617
60.0809
-0.26866
60.69
-0.277665
61.3059
-0.286626
61.9293
-0.295535
62.558
-0.304395
63.1987
-0.313169
63.8306
-0.32195
64.5175
-0.330424
-0.339548
65.0635
27.1877
0.290361
-26.8526
27.5551
0.289669
27.9465
0.288906
28.3555
0.287991
28.7771
0.286858
29.207
0.285451
29.642
0.283729
30.0797
0.281656
30.5179
0.279208
30.9554
0.276363
31.391
0.273107
31.8238
0.269429
32.2535
0.265321
32.6796
0.260777
33.1019
0.255795
33.5205
0.250374
33.9353
0.244514
34.3464
0.238216
34.754
0.231483
35.1583
0.224319
35.5596
0.216727
35.9581
0.208713
36.3542
0.200281
36.7481
0.191438
37.1401
0.18219
37.5307
0.172544
37.9201
0.162505
38.3086
0.152083
38.6967
0.141283
39.0845
0.130114
39.4726
0.118585
39.861
0.106702
40.2503
0.0944756
40.6407
0.0819135
41.0325
0.0690244
41.426
0.0558176
41.8216
0.0423023
42.2194
0.0284878
42.6197
0.014384
43.0229
0
43.4292
-0.014654
43.8389
-0.0295681
44.2521
-0.0447324
44.6692
-0.0601366
45.0902
-0.0757697
45.5156
-0.0916223
45.9454
-0.107683
46.3799
-0.123942
46.8192
-0.140387
47.2636
-0.157009
47.7132
-0.173795
48.1682
-0.190736
48.6287
-0.207819
49.0949
-0.225035
49.5669
-0.24237
50.0449
-0.259815
50.5289
-0.277357
51.0192
-0.294985
51.5157
-0.312688
52.0186
-0.330454
52.5279
-0.348271
53.0439
-0.366129
53.5664
-0.384015
54.0956
-0.401917
54.6315
-0.419825
55.1743
-0.437726
55.7238
-0.455608
56.2801
-0.473461
56.8434
-0.491272
57.4134
-0.509029
57.9904
-0.526722
58.5742
-0.544338
59.1648
-0.561868
59.7626
-0.579293
60.3657
-0.596622
60.9803
-0.613784
61.5871
-0.630953
62.2451
-0.647536
-0.665342
62.7737
26.8357
0.436667
-26.4957
27.1991
0.435642
27.5792
0.434403
27.9714
0.432855
28.3718
0.430922
28.7773
0.428542
29.1857
0.425664
29.595
0.42225
30.0039
0.418271
30.4112
0.413702
30.8163
0.408528
31.2186
0.402734
31.6178
0.396314
32.0135
0.389261
32.4059
0.381572
32.7948
0.373248
33.1804
0.364289
33.5627
0.354698
33.942
0.34448
34.3186
0.333639
34.6925
0.322182
35.0642
0.310116
35.4338
0.297448
35.8018
0.284187
36.1683
0.270342
36.5338
0.255923
36.8985
0.240939
37.2627
0.225401
37.6267
0.209319
37.9908
0.192706
38.3555
0.175572
38.7208
0.157929
39.0873
0.13979
39.455
0.121167
39.8244
0.102073
40.1957
0.082521
40.5692
0.062524
40.9451
0.0420953
41.3237
0.0212497
41.7052
0
42.0899
-0.021639
42.4781
-0.0436526
42.8699
-0.0660265
43.2656
-0.0887459
43.6653
-0.111796
44.0693
-0.135161
44.4778
-0.158826
44.891
-0.182776
45.3089
-0.206994
45.7319
-0.231465
46.1601
-0.256174
46.5936
-0.281103
47.0325
-0.306237
47.477
-0.331559
47.9273
-0.357054
48.3834
-0.382704
48.8455
-0.408493
49.3137
-0.434405
49.788
-0.460422
50.2686
-0.486528
50.7555
-0.512706
51.2488
-0.538939
51.7486
-0.56521
52.2549
-0.591503
52.7678
-0.6178
53.2873
-0.644084
53.8135
-0.670338
54.3464
-0.696546
54.8859
-0.72269
55.4321
-0.748754
55.985
-0.774721
56.5447
-0.800573
57.1109
-0.826295
57.6842
-0.851864
58.2627
-0.877289
58.8522
-0.902469
59.4347
-0.927652
60.0653
-0.951993
-0.97807
60.5753
26.499
0.583933
-26.1621
26.8525
0.582451
27.2174
0.580579
27.5901
0.57822
27.968
0.575293
28.3487
0.571737
28.7305
0.567501
29.1122
0.562545
29.4927
0.556839
29.8712
0.550359
30.2474
0.543087
30.6207
0.535013
30.991
0.526127
31.3583
0.516424
31.7224
0.505904
32.0835
0.494566
32.4416
0.482412
32.797
0.469447
33.1497
0.455677
33.5001
0.441109
33.8484
0.425751
34.1949
0.409612
34.5397
0.392702
34.8833
0.375032
35.2258
0.356613
35.5676
0.337458
35.909
0.317579
36.2503
0.29699
36.5917
0.275705
36.9335
0.253737
37.276
0.231103
37.6196
0.207816
37.9644
0.183893
38.3108
0.159349
38.659
0.134202
39.0092
0.108467
39.3618
0.0821614
39.717
0.0553034
40.075
0.0279103
40.436
0
40.8002
-0.0284092
41.168
-0.0572985
41.5395
-0.0866495
41.9148
-0.116442
42.2943
-0.146659
42.678
-0.177278
43.0662
-0.208281
43.4591
-0.239648
43.8567
-0.271358
44.2593
-0.303392
44.667
-0.335728
45.08
-0.368345
45.4984
-0.401223
45.9223
-0.434341
46.3518
-0.467677
46.787
-0.501211
47.2282
-0.53492
47.6752
-0.568783
48.1283
-0.602779
48.5876
-0.636886
49.053
-0.671082
49.5247
-0.705345
50.0028
-0.739653
50.4872
-0.773985
50.978
-0.808318
51.4753
-0.842631
51.9791
-0.876901
52.4894
-0.911107
53.0062
-0.945226
53.5295
-0.979238
54.0594
-1.01312
54.5958
-1.04685
55.1386
-1.08041
55.6884
-1.11376
56.2432
-1.14692
56.8086
-1.17977
57.3677
-1.21261
57.9722
-1.24437
-1.27833
58.4635
26.1647
0.732022
-25.8367
26.5042
0.729909
26.8511
0.727214
27.203
0.723844
27.5577
0.719724
27.9136
0.714792
28.2696
0.709002
28.6246
0.702314
28.978
0.6947
29.3293
0.686137
29.6781
0.67661
30.0242
0.666107
30.3675
0.65462
30.708
0.642147
31.0457
0.628686
31.3807
0.614239
31.7132
0.59881
32.0434
0.582406
32.3713
0.565032
32.6973
0.546698
33.0216
0.527414
33.3445
0.507192
33.6661
0.486042
33.9868
0.463979
34.3069
0.441016
34.6266
0.417168
34.9461
0.39245
35.2658
0.366878
35.586
0.340469
35.9068
0.31324
36.2286
0.285209
36.5516
0.256394
36.8761
0.226813
37.2023
0.196487
37.5305
0.165435
37.861
0.133676
38.1938
0.101233
38.5294
0.0681243
38.8679
0.0343727
39.2095
0
39.5544
-0.034972
39.9028
-0.0705211
40.255
-0.106624
40.6111
-0.143258
40.9714
-0.1804
41.3358
-0.218025
41.7048
-0.256111
42.0783
-0.294632
42.4566
-0.333565
42.8399
-0.372884
43.2281
-0.412565
43.6216
-0.452583
44.0203
-0.492911
44.4245
-0.533525
44.8343
-0.574399
45.2496
-0.615507
45.6708
-0.656824
46.0977
-0.698322
46.5306
-0.739976
46.9694
-0.781759
47.4143
-0.823645
47.8654
-0.865607
48.3226
-0.907619
48.786
-0.949654
49.2557
-0.991687
49.7318
-1.03369
50.2141
-1.07563
50.7028
-1.1175
51.1978
-1.15925
51.6992
-1.20086
52.2069
-1.24231
52.7211
-1.28358
53.2414
-1.32463
53.7685
-1.36542
54.3006
-1.40598
54.8429
-1.44615
55.3793
-1.48631
55.9589
-1.52515
-1.56664
56.4318
25.8257
0.880709
-25.5107
26.1486
0.877763
26.476
0.874042
26.8063
0.86946
27.1378
0.863948
27.4695
0.85745
27.8004
0.849922
28.13
0.841328
28.4577
0.831642
28.7832
0.820844
29.1064
0.808919
29.427
0.795857
29.745
0.781653
30.0605
0.766304
30.3736
0.749811
30.6844
0.732178
30.993
0.713409
31.2996
0.693511
31.6044
0.672495
31.9076
0.650369
32.2095
0.627146
32.5104
0.602839
32.8103
0.577462
33.1097
0.55103
33.4087
0.523559
33.7077
0.495066
34.0068
0.465568
34.3063
0.435085
34.6065
0.403636
34.9076
0.371239
35.2099
0.337916
35.5137
0.303689
35.819
0.268578
36.1263
0.232605
36.4357
0.195795
36.7474
0.158169
37.0617
0.119752
37.3788
0.0805686
37.6988
0.0406427
38.0221
0
38.3487
-0.041334
38.6789
-0.0833334
39.0128
-0.125971
39.3507
-0.169222
39.6927
-0.213057
40.0389
-0.257449
40.3896
-0.302371
40.7448
-0.347794
41.1048
-0.39369
41.4696
-0.44003
41.8394
-0.486785
42.2142
-0.533926
42.5943
-0.581423
42.9798
-0.629247
43.3707
-0.677367
43.7671
-0.725754
44.1691
-0.774377
44.5769
-0.823206
44.9904
-0.87221
45.4098
-0.921358
45.8351
-0.970621
46.2664
-1.01997
46.7037
-1.06936
47.1471
-1.11878
47.5966
-1.16819
48.0522
-1.21755
48.514
-1.26685
48.982
-1.31604
49.4562
-1.36509
49.9365
-1.41398
50.4231
-1.46268
50.9158
-1.51114
51.4147
-1.55935
51.92
-1.60727
52.4302
-1.65489
52.9503
-1.70206
53.465
-1.7492
54.0206
-1.79482
-1.84348
54.4755
25.4786
1.02973
-25.1792
25.7833
1.02574
26.0905
1.02079
26.399
1.0148
26.7078
1.00771
27.016
0.999471
27.323
0.990036
27.6284
0.979378
27.9319
0.967474
28.2332
0.954303
28.5323
0.939856
28.829
0.924123
29.1235
0.907101
29.4157
0.888789
29.7058
0.869188
29.9939
0.848303
30.2802
0.826142
30.5649
0.802712
30.8482
0.778024
31.1302
0.75209
31.4112
0.724924
31.6915
0.696541
31.9712
0.666955
32.2506
0.636185
32.53
0.604249
32.8095
0.571164
33.0895
0.536952
33.3701
0.501632
33.6517
0.465227
33.9343
0.427759
34.2183
0.389251
34.5039
0.349727
34.7913
0.30921
35.0808
0.267727
35.3724
0.225302
35.6666
0.181963
35.9633
0.137735
36.263
0.0926466
36.5657
0.0467257
36.8716
0
37.1809
-0.0475011
37.4938
-0.0957478
37.8105
-0.144711
38.1311
-0.19436
38.4558
-0.244664
38.7848
-0.295593
39.1181
-0.347113
39.456
-0.399195
39.7985
-0.451805
40.1458
-0.504911
40.498
-0.55848
40.8552
-0.612479
41.2175
-0.666874
41.5851
-0.721632
41.9581
-0.776719
42.3364
-0.832101
42.7203
-0.887744
43.1097
-0.943612
43.5048
-0.999671
43.9056
-1.05589
44.3122
-1.11223
44.7246
-1.16865
45.1429
-1.22513
45.5671
-1.28162
45.9973
-1.33809
46.4335
-1.39451
46.8756
-1.45084
47.3238
-1.50704
47.778
-1.56309
48.2382
-1.61894
48.7044
-1.67456
49.1767
-1.72991
49.6548
-1.78497
50.1393
-1.83969
50.6286
-1.89407
51.1273
-1.94792
51.6211
-2.00173
52.1538
-2.05383
-2.10931
52.5913
25.1219
1.17882
-24.8396
25.4075
1.17359
25.6944
1.16721
25.9816
1.15963
26.2683
1.15079
26.554
1.14064
26.8383
1.12914
27.1208
1.11628
27.4015
1.10202
27.6801
1.08636
27.9566
1.06929
28.231
1.05079
28.5035
1.03086
28.774
1.00951
29.0427
0.986737
29.3097
0.962551
29.5753
0.936957
29.8395
0.909966
30.1027
0.88159
30.3649
0.851842
30.6265
0.820738
30.8876
0.788293
31.1484
0.754526
31.4092
0.719454
31.6702
0.683099
31.9316
0.64548
32.1937
0.606621
32.4566
0.566542
32.7206
0.52527
32.9859
0.482827
33.2528
0.43924
33.5213
0.394534
33.7919
0.348737
34.0645
0.301876
34.3395
0.253979
34.6171
0.205076
34.8973
0.155195
35.1805
0.104369
35.4668
0.0526265
35.7564
0
36.0494
-0.0534788
36.346
-0.107777
36.6463
-0.162862
36.9506
-0.218701
37.2589
-0.275258
37.5715
-0.3325
37.8884
-0.390391
38.2097
-0.448897
38.5357
-0.507981
38.8663
-0.567607
39.2018
-0.62774
39.5423
-0.688342
39.8877
-0.749376
40.2384
-0.810805
40.5942
-0.87259
40.9553
-0.934695
41.3219
-0.997082
41.6938
-1.05971
42.0713
-1.12254
42.4544
-1.18554
42.8432
-1.24867
43.2376
-1.31188
43.6377
-1.37514
44.0436
-1.43841
44.4553
-1.50166
44.8728
-1.56483
45.2962
-1.6279
45.7254
-1.69082
46.1604
-1.75355
46.6013
-1.81606
47.0481
-1.87831
47.5007
-1.94025
47.9591
-2.00185
48.4236
-2.06306
48.8928
-2.1239
49.371
-2.18414
49.8448
-2.24432
50.3555
-2.30261
-2.36459
50.7763
24.7552
1.32771
-24.4907
25.0216
1.32103
25.2884
1.31305
25.5548
1.30371
25.8203
1.29295
26.0846
1.28075
26.3474
1.26706
26.6084
1.25186
26.8676
1.23515
27.125
1.21689
27.3804
1.19709
27.6341
1.17574
27.8859
1.15284
28.1362
1.12839
28.385
1.1024
28.6324
1.07487
28.8786
1.04581
29.1238
1.01524
29.3682
0.983171
29.612
0.949612
29.8554
0.914581
30.0986
0.878098
30.3418
0.84018
30.5852
0.80085
30.829
0.760127
31.0735
0.718036
31.3188
0.674599
31.5651
0.629842
31.8127
0.58379
32.0618
0.53647
32.3125
0.48791
32.5651
0.438138
32.8198
0.387183
33.0766
0.335075
33.336
0.281846
33.5979
0.227526
33.8626
0.172148
34.1303
0.115745
34.4011
0.0583513
34.6752
0
34.9528
-0.0592735
35.2339
-0.119433
35.5188
-0.180444
35.8076
-0.242269
36.1005
-0.304871
36.3975
-0.368212
36.6988
-0.432254
37.0045
-0.496958
37.3147
-0.562286
37.6296
-0.628198
37.9492
-0.694654
38.2737
-0.761614
38.6031
-0.829038
38.9376
-0.896884
39.2771
-0.965111
39.6219
-1.03368
39.9719
-1.10254
40.3272
-1.17167
40.688
-1.241
41.0541
-1.31051
41.4258
-1.38015
41.803
-1.44987
42.1858
-1.51964
42.5742
-1.58941
42.9683
-1.65914
43.368
-1.72878
43.7733
-1.7983
44.1844
-1.86765
44.6011
-1.93678
45.0236
-2.00566
45.4517
-2.07425
45.8855
-2.14249
46.3249
-2.21035
46.7702
-2.27777
47.2201
-2.34477
47.6787
-2.41111
48.1333
-2.47738
48.6229
-2.54158
-2.60975
49.0276
24.3786
1.47614
-24.1321
24.6261
1.46784
24.8733
1.45809
25.1198
1.44683
25.3651
1.43402
25.6091
1.41963
25.8516
1.40362
26.0924
1.38599
26.3316
1.36671
26.569
1.34577
26.8049
1.32317
27.0391
1.2989
27.2718
1.27296
27.5032
1.24537
27.7334
1.21612
27.9625
1.18522
28.1908
1.15268
28.4183
1.11852
28.6452
1.08275
28.8718
1.04539
29.0983
1.00645
29.3247
0.965961
29.5515
0.923931
29.7786
0.880388
30.0064
0.835353
30.2349
0.788853
30.4645
0.740913
30.6954
0.691558
30.9276
0.640816
31.1614
0.588717
31.397
0.53529
31.6346
0.480565
31.8743
0.424574
32.1164
0.367349
32.3609
0.308924
32.6081
0.249331
32.8582
0.188607
33.1113
0.126786
33.3675
0.0639046
33.627
0
33.8899
-0.0648904
34.1565
-0.130729
34.4268
-0.197475
34.701
-0.265091
34.9791
-0.333536
35.2614
-0.40277
35.5479
-0.472751
35.8388
-0.543437
36.1341
-0.614787
36.434
-0.686758
36.7385
-0.759307
37.0478
-0.832391
37.362
-0.905965
37.6811
-0.979985
38.0051
-1.05441
38.3343
-1.12919
38.6685
-1.20428
39.008
-1.27964
39.3528
-1.35522
39.7028
-1.43098
40.0582
-1.50686
40.419
-1.58283
40.7852
-1.65884
41.1569
-1.73484
41.5341
-1.81078
41.9168
-1.88662
42.3049
-1.96232
42.6987
-2.03782
43.0979
-2.11308
43.5026
-2.18805
43.9129
-2.2627
44.3287
-2.33696
44.7499
-2.4108
45.1769
-2.48416
45.6083
-2.55705
46.0481
-2.62922
46.4842
-2.70129
46.9536
-2.77114
-2.84521
47.3428
23.9927
1.62386
-23.7641
24.2218
1.61378
24.4503
1.60211
24.6777
1.5888
24.904
1.57381
25.1289
1.55712
25.3523
1.53869
25.5742
1.51852
25.7946
1.49659
26.0135
1.4729
26.231
1.44743
26.4471
1.42019
26.662
1.39117
26.8759
1.36039
27.0888
1.32785
27.3009
1.29356
27.5123
1.25754
27.7233
1.21979
27.934
1.18033
28.1445
1.13918
28.3552
1.09636
28.5661
1.05189
28.7774
1.00579
28.9893
0.958087
29.2021
0.9088
29.4158
0.857958
29.6307
0.805587
29.847
0.751718
30.0648
0.696377
30.2843
0.639597
30.5057
0.581408
30.7292
0.521844
30.9549
0.460937
31.183
0.398722
31.4137
0.335234
31.647
0.27051
31.8833
0.204586
32.1225
0.1375
32.3649
0.0692919
32.6107
0
32.8599
-0.0703354
33.1126
-0.141674
33.3691
-0.213973
33.6294
-0.287191
33.8936
-0.361286
34.162
-0.436213
34.4345
-0.511929
34.7112
-0.588389
34.9924
-0.665548
35.2781
-0.743361
35.5683
-0.821781
35.8632
-0.900762
36.1628
-0.980258
36.4672
-1.06022
36.7765
-1.1406
37.0908
-1.22136
37.4101
-1.30243
37.7345
-1.38378
38.064
-1.46536
38.3986
-1.54711
38.7385
-1.629
39.0836
-1.71096
39.434
-1.79295
39.7897
-1.87491
40.1508
-1.95681
40.5172
-2.03859
40.8889
-2.1202
41.266
-2.2016
41.6485
-2.28272
42.0364
-2.36353
42.4295
-2.44396
42.8281
-2.52398
43.2319
-2.60355
43.6413
-2.68258
44.055
-2.7611
44.4768
-2.83884
44.8952
-2.91644
45.3451
-2.99169
-3.07137
45.7195
23.5985
1.77065
-23.3871
23.8099
1.75865
24.0204
1.74493
24.2299
1.72944
24.4381
1.71216
24.645
1.69307
24.8506
1.67214
25.0548
1.64935
25.2577
1.62471
25.4593
1.59819
25.6597
1.5698
25.859
1.53954
26.0573
1.50741
26.2548
1.47342
26.4516
1.43757
26.6478
1.39988
26.8437
1.36036
27.0393
1.31903
27.2348
1.2759
27.4304
1.23099
27.6263
1.18432
27.8226
1.13591
28.0196
1.08578
28.2173
1.03397
28.416
0.98049
28.6159
0.925375
28.8171
0.868652
29.0197
0.81035
29.224
0.750502
29.4301
0.689138
29.6382
0.626293
29.8484
0.562
30.0609
0.496296
30.2759
0.429216
30.4934
0.360797
30.7137
0.291078
30.937
0.220099
31.1632
0.147898
31.3926
0.0745184
31.6253
0
31.8615
-0.0756141
32.1012
-0.152281
32.3446
-0.229955
32.5917
-0.308594
32.8428
-0.388151
33.0979
-0.468579
33.3571
-0.549834
33.6205
-0.631867
33.8883
-0.71463
34.1604
-0.798075
34.437
-0.882154
34.7182
-0.966817
35.004
-1.05201
35.2945
-1.1377
35.5898
-1.22381
35.8899
-1.31031
36.1949
-1.39713
36.5048
-1.48424
36.8198
-1.57158
37.1398
-1.65909
37.4649
-1.74673
37.795
-1.83444
38.1303
-1.92216
38.4708
-2.00986
38.8164
-2.09746
39.1673
-2.18493
39.5233
-2.27221
39.8845
-2.35924
40.251
-2.44597
40.6226
-2.53236
40.9995
-2.61834
41.3815
-2.70387
41.7686
-2.78889
42.1611
-2.87335
42.5579
-2.95724
42.9624
-3.0403
43.3639
-3.1232
43.7952
-3.2036
-3.28862
44.1553
23.1968
1.91631
-23.0021
23.3913
1.90225
23.5849
1.88636
23.7774
1.8686
23.9687
1.84894
24.1588
1.82736
24.3476
1.80384
24.5353
1.77838
24.7219
1.75095
24.9073
1.72156
25.0919
1.69021
25.2755
1.6569
25.4584
1.62163
25.6407
1.58441
25.8225
1.54525
26.004
1.50416
26.1853
1.46115
26.3665
1.41625
26.5479
1.36946
26.7296
1.32081
26.9117
1.27032
27.0945
1.21802
27.278
1.16392
27.4625
1.10805
27.6481
1.05045
27.8349
0.991131
28.0232
0.930133
28.2131
0.867485
28.4047
0.803219
28.5982
0.73737
28.7938
0.669972
28.9915
0.601062
29.1916
0.530677
29.3942
0.458854
29.5995
0.385633
29.8075
0.311054
30.0184
0.235159
30.2324
0.157989
30.4495
0.0795884
30.67
0
30.8938
-0.0807311
31.1212
-0.162559
31.3522
-0.245438
31.5869
-0.329321
31.8255
-0.41416
32.0681
-0.499906
32.3147
-0.58651
32.5654
-0.673922
32.8204
-0.762093
33.0797
-0.850971
33.3433
-0.940503
33.6114
-1.03064
33.8841
-1.12133
34.1614
-1.21251
34.4433
-1.30414
34.7299
-1.39616
35.0213
-1.48852
35.3176
-1.58116
35.6187
-1.67403
35.9246
-1.76707
36.2356
-1.86023
36.5515
-1.95345
36.8723
-2.04668
37.1982
-2.13986
37.5292
-2.23294
37.8651
-2.32586
38.2061
-2.41856
38.5522
-2.51099
38.9033
-2.6031
39.2595
-2.69482
39.6207
-2.78611
39.9869
-2.8769
40.358
-2.96715
40.7344
-3.05678
41.115
-3.14581
41.5029
-3.23395
41.8881
-3.3219
42.3016
-3.40723
-3.49732
42.648
22.7887
2.06063
-22.6098
22.9672
2.04442
23.1448
2.02626
23.3213
2.00614
23.4968
1.98401
23.6711
1.95988
23.8444
1.93371
24.0167
1.90551
24.1881
1.87526
24.3586
1.84296
24.5283
1.80862
24.6974
1.77223
24.8659
1.7338
25.034
1.69334
25.2019
1.65086
25.3696
1.60637
25.5374
1.55989
25.7053
1.51143
25.8735
1.46102
26.0422
1.40867
26.2115
1.3544
26.3816
1.29825
26.5526
1.24023
26.7247
1.18037
26.898
1.1187
27.0727
1.05525
27.2489
0.99006
27.4268
0.92315
27.6065
0.854559
27.7882
0.784321
27.972
0.712474
28.1581
0.639055
28.3465
0.564103
28.5375
0.487658
28.7312
0.409761
28.9276
0.330453
29.127
0.249779
29.3293
0.167782
29.5349
0.0845069
29.7437
0
29.9559
-0.0856919
30.1716
-0.172521
30.3909
-0.260439
30.6138
-0.349396
30.8406
-0.439343
31.0713
-0.530228
31.3059
-0.621999
31.5446
-0.714606
31.7875
-0.807994
32.0346
-0.90211
32.2859
-0.996901
32.5417
-1.09231
32.8018
-1.18829
33.0665
-1.28477
33.3357
-1.38171
33.6095
-1.47904
33.8879
-1.57672
34.171
-1.67467
34.4589
-1.77286
34.7516
-1.87121
35.049
-1.96967
35.3513
-2.06818
35.6584
-2.16669
35.9704
-2.26513
36.2872
-2.36345
36.609
-2.46159
36.9356
-2.55949
37.2672
-2.6571
37.6036
-2.75434
37.945
-2.85117
38.2912
-2.94753
38.6423
-3.04336
38.9981
-3.13861
39.3591
-3.23319
39.724
-3.32712
40.0961
-3.42012
40.4657
-3.51288
40.8621
-3.60292
-3.69784
41.1953
22.3753
2.20347
-22.2115
22.5388
2.185
22.7013
2.16449
22.8629
2.14192
23.0235
2.11727
23.1832
2.09052
23.342
2.06165
23.4999
2.03067
23.6571
1.99756
23.8137
1.96232
23.9696
1.92496
24.1252
1.88548
24.2803
1.84389
24.4353
1.80019
24.5902
1.75439
24.7452
1.70652
24.9003
1.65658
25.0558
1.60459
25.2118
1.55058
25.3683
1.49457
25.5257
1.43657
25.6839
1.37661
25.8432
1.31473
26.0037
1.25094
26.1655
1.18528
26.3288
1.11777
26.4937
1.04846
26.6604
0.977375
26.829
0.904549
26.9996
0.83002
27.1724
0.753826
27.3475
0.676006
27.525
0.5966
27.705
0.515651
27.8877
0.4332
28.0733
0.349292
28.2617
0.263972
28.4531
0.177285
28.6477
0.0892783
28.8456
0
29.0468
-0.0905012
29.2514
-0.182175
29.4596
-0.274972
29.6715
-0.36884
29.887
-0.463726
30.1064
-0.559578
30.3297
-0.656342
30.557
-0.753964
30.7884
-0.852387
31.0238
-0.951557
31.2635
-1.05142
31.5075
-1.15191
31.7557
-1.25298
32.0084
-1.35456
32.2655
-1.45661
32.527
-1.55905
32.7931
-1.66184
33.0638
-1.76491
33.3391
-1.8682
33.619
-1.97165
33.9035
-2.0752
34.1928
-2.17879
34.4868
-2.28236
34.7855
-2.38585
35.0889
-2.4892
35.3971
-2.59234
35.71
-2.69522
36.0277
-2.79778
36.3501
-2.89994
36.6773
-3.00166
37.0091
-3.10288
37.3458
-3.20352
37.687
-3.30354
38.0331
-3.40285
38.3832
-3.50147
38.74
-3.5991
39.0947
-3.69645
39.4747
-3.79099
-3.89051
39.7953
21.9576
2.34465
-21.8079
22.1069
2.32385
22.2554
2.30093
22.403
2.27585
22.5498
2.24861
22.6958
2.2192
22.8411
2.1876
22.9857
2.1538
23.1298
2.1178
23.2734
2.07961
23.4165
2.03922
23.5595
1.99664
23.7023
1.95187
23.845
1.90493
23.9878
1.85584
24.1309
1.80459
24.2743
1.75122
24.4182
1.69574
24.5628
1.63816
24.708
1.57852
24.8542
1.51684
25.0014
1.45313
25.1498
1.38744
25.2994
1.31979
25.4505
1.2502
25.6032
1.17872
25.7575
1.10537
25.9137
1.03019
26.0718
0.953219
26.232
0.874494
26.3944
0.794054
26.5592
0.711939
26.7263
0.628191
26.8961
0.542853
27.0685
0.455969
27.2438
0.367586
27.4219
0.277749
27.603
0.186507
27.7873
0.0939071
27.9748
-1.89928e-07
28.1656
-0.0951635
28.3598
-0.191532
28.5575
-0.289053
28.7588
-0.387673
28.9637
-0.487337
29.1724
-0.587991
29.385
-0.689578
29.6014
-0.792042
29.8218
-0.895326
30.0463
-0.999371
30.2749
-1.10412
30.5076
-1.20951
30.7446
-1.31549
30.9858
-1.42198
31.2313
-1.52894
31.4813
-1.63631
31.7356
-1.74401
31.9944
-1.85199
32.2576
-1.96019
32.5254
-2.06853
32.7977
-2.17697
33.0745
-2.28544
33.3559
-2.39387
33.6419
-2.5022
33.9325
-2.61036
34.2277
-2.7183
34.5275
-2.82595
34.8319
-2.93325
35.141
-3.04013
35.4546
-3.14653
35.7727
-3.25238
36.0955
-3.35763
36.4227
-3.46221
36.7547
-3.56604
37.0904
-3.66914
37.4327
-3.77119
37.7731
-3.87294
38.1375
-3.97177
-4.07566
38.4459
21.5367
2.48406
-21.4003
21.6728
2.46086
21.8081
2.43546
21.9427
2.40783
22.0766
2.37796
22.2099
2.34585
22.3426
2.31147
22.4749
2.27484
22.6067
2.23594
22.7382
2.19477
22.8696
2.15135
23.0008
2.10566
23.132
2.05774
23.2634
2.00758
23.395
1.95519
23.5271
1.9006
23.6596
1.84383
23.7927
1.78488
23.9266
1.72378
24.0613
1.66056
24.1971
1.59523
24.334
1.52784
24.4721
1.4584
24.6116
1.38694
24.7527
1.3135
24.8954
1.23811
25.0398
1.16081
25.1861
1.08162
25.3344
1.0006
25.4849
0.917772
25.6376
0.833186
25.7926
0.74688
25.9501
0.658898
26.1101
0.569285
26.2729
0.478087
26.4384
0.38535
26.6069
0.291124
26.7783
0.195456
26.9528
0.0983974
27.1305
0
27.3114
-0.0996841
27.4957
-0.200601
27.6835
-0.302697
27.8748
-0.405915
28.0697
-0.510201
28.2683
-0.615497
28.4706
-0.721745
28.6768
-0.828886
28.8868
-0.936861
29.1008
-1.04561
29.3188
-1.15507
29.5409
-1.26518
29.7671
-1.37589
29.9974
-1.48712
30.232
-1.59881
30.4708
-1.7109
30.7139
-1.82334
30.9614
-1.93604
31.2132
-2.04895
31.4693
-2.162
31.7299
-2.27514
31.9949
-2.38828
32.2643
-2.50137
32.5382
-2.61434
32.8166
-2.72713
33.0994
-2.83966
33.3866
-2.95188
33.6784
-3.06372
33.9745
-3.17511
34.2752
-3.28599
34.5802
-3.39628
34.8897
-3.50594
35.2035
-3.61488
35.5219
-3.72303
35.844
-3.83041
36.1723
-3.93669
36.499
-4.04262
36.8484
-4.14556
-4.25359
37.1451
21.1136
2.62158
-20.9897
21.2373
2.59592
21.3604
2.56799
21.4828
2.53777
21.6048
2.50524
21.7262
2.4704
21.8473
2.43324
21.968
2.39375
22.0885
2.35193
22.2089
2.30779
22.3292
2.26133
22.4495
2.21256
22.5701
2.16148
22.6909
2.10811
22.8121
2.05246
22.9338
1.99455
23.0562
1.9344
23.1792
1.87202
23.3032
1.80744
23.4281
1.74069
23.5542
1.67178
23.6814
1.60075
23.8101
1.52762
23.9401
1.45243
24.0718
1.37521
24.2051
1.29599
24.3403
1.21481
24.4774
1.1317
24.6165
1.04671
24.7578
0.959882
24.9013
0.871247
25.0472
0.780853
25.1956
0.688745
25.3465
0.594968
25.5002
0.49957
25.6566
0.4026
25.8158
0.304106
25.9781
0.20414
26.1433
0.102753
26.3118
0
26.4834
-0.104066
26.6584
-0.209391
26.8368
-0.315916
27.0186
-0.423587
27.2039
-0.532343
27.3929
-0.642127
27.5856
-0.752878
27.7819
-0.864536
27.9821
-0.97704
28.1862
-1.09033
28.3942
-1.20433
28.6061
-1.319
28.8221
-1.43426
29.0421
-1.55004
29.2662
-1.66629
29.4944
-1.78294
29.7269
-1.89992
29.9635
-2.01717
30.2044
-2.13461
30.4495
-2.25219
30.6989
-2.36982
30.9525
-2.48746
31.2105
-2.60502
31.4728
-2.72245
31.7395
-2.83967
32.0104
-2.95661
32.2857
-3.07321
32.5653
-3.1894
32.8492
-3.3051
33.1375
-3.42027
33.43
-3.53481
33.7267
-3.64867
34.0277
-3.76179
34.3331
-3.87408
34.6421
-3.98554
34.9571
-4.09585
35.2706
-4.20578
35.6056
-4.31263
-4.42462
35.8911
20.6892
2.7571
-20.5768
20.8013
2.72895
20.913
2.69845
21.0242
2.66561
21.135
2.63039
21.2455
2.59281
21.3557
2.55284
21.4658
2.51049
21.5758
2.46575
21.6857
2.41864
21.7958
2.36915
21.9061
2.3173
22.0167
2.26309
22.1277
2.20653
22.2392
2.14765
22.3513
2.08645
22.4642
2.02296
22.578
1.95719
22.6927
1.88918
22.8085
1.81894
22.9255
1.7465
23.0438
1.67189
23.1635
1.59514
23.2847
1.51628
23.4076
1.43535
23.5322
1.35237
23.6586
1.2674
23.7871
1.18046
23.9176
1.0916
24.0503
1.00085
24.1852
0.908264
24.3225
0.813883
24.4623
0.717753
24.6047
0.619922
24.7497
0.520437
24.8975
0.419349
25.0481
0.316708
25.2017
0.212567
25.3583
0.106979
25.518
0
25.6808
-0.108315
25.8469
-0.21791
26.0164
-0.328726
26.1892
-0.440705
26.3656
-0.553786
26.5454
-0.66791
26.7289
-0.783014
26.916
-0.899035
27.1068
-1.01591
27.3014
-1.13358
27.4999
-1.25197
27.7022
-1.37102
27.9084
-1.49067
28.1185
-1.61085
28.3327
-1.73149
28.5509
-1.85252
28.7731
-1.97387
28.9994
-2.09549
29.2299
-2.21729
29.4645
-2.3392
29.7032
-2.46117
29.9461
-2.58312
30.1931
-2.70498
30.4444
-2.82668
30.6998
-2.94814
30.9595
-3.06931
31.2233
-3.19011
31.4913
-3.31046
31.7635
-3.43031
32.0398
-3.54957
32.3203
-3.66818
32.605
-3.78607
32.8937
-3.90318
33.1866
-4.01941
33.4831
-4.13477
33.7853
-4.24894
34.0862
-4.36268
34.4074
-4.47328
-4.58902
34.6822
20.2643
2.89053
-20.1628
20.3658
2.85986
20.4668
2.82678
20.5676
2.79128
20.6681
2.75337
20.7684
2.71302
20.8686
2.67024
20.9687
2.62503
21.0689
2.57738
21.1693
2.52731
21.2699
2.4748
21.3708
2.41988
21.4721
2.36256
21.574
2.30285
21.6765
2.24075
21.7798
2.1763
21.8839
2.10951
21.9889
2.0404
22.095
1.969
22.2023
1.89533
22.3108
1.81941
22.4207
1.74129
22.5321
1.66098
22.6451
1.57852
22.7598
1.49395
22.8762
1.4073
22.9945
1.31861
23.1148
1.22792
23.2373
1.13527
23.3619
1.0407
23.4887
0.944262
23.618
0.845994
23.7497
0.745946
23.884
0.644166
24.0209
0.540704
24.1606
0.435611
24.3031
0.32894
24.4485
0.220744
24.5968
0.111079
24.7482
0
24.9028
-0.112435
25.0605
-0.226168
25.2215
-0.341139
25.3859
-0.457289
25.5536
-0.574554
25.7249
-0.692874
25.8996
-0.812184
26.0779
-0.932421
26.2599
-1.05352
26.4455
-1.17541
26.6348
-1.29804
26.828
-1.42132
27.0249
-1.5452
27.2257
-1.66961
27.4304
-1.79447
27.639
-1.91972
27.8515
-2.04529
28.068
-2.1711
28.2885
-2.29709
28.513
-2.42318
28.7415
-2.54931
28.9741
-2.6754
29.2108
-2.80138
29.4515
-2.92717
29.6962
-3.05272
29.945
-3.17793
30.1979
-3.30275
30.4548
-3.4271
30.7158
-3.55091
30.9808
-3.6741
31.2498
-3.7966
31.5228
-3.91834
31.7997
-4.03927
32.0808
-4.15927
32.3653
-4.27836
32.6552
-4.39621
32.944
-4.51359
33.2521
-4.62777
-4.74708
33.5165
19.8398
3.02182
-19.7484
19.9314
2.98859
20.0226
2.9529
20.1137
2.91475
20.2046
2.87412
20.2954
2.83102
20.3863
2.78543
20.4773
2.73736
20.5684
2.68681
20.6599
2.63378
20.7516
2.57828
20.8439
2.52032
20.9366
2.45991
21.0301
2.39706
21.1242
2.3318
21.2192
2.26413
21.3151
2.19408
21.4121
2.12168
21.5102
2.04694
21.6095
1.96989
21.7102
1.89055
21.8122
1.80897
21.9159
1.72517
22.0211
1.63918
22.1281
1.55105
22.2369
1.4608
22.3476
1.36847
22.4603
1.27412
22.5751
1.17777
22.6921
1.07947
22.8114
0.979266
22.9331
0.877208
23.0572
0.773342
23.1839
0.667719
23.3132
0.560387
23.4452
0.451401
23.58
0.340813
23.7177
0.228679
23.8583
0.115056
24.0018
-1.89831e-07
24.1485
-0.116429
24.2983
-0.234172
24.4514
-0.353168
24.6077
-0.473355
24.7673
-0.594669
24.9303
-0.717047
25.0968
-0.840423
25.2668
-0.964733
25.4403
-1.08991
25.6174
-1.21588
25.7981
-1.34259
25.9825
-1.46995
26.1706
-1.59791
26.3625
-1.72639
26.5581
-1.85532
26.7575
-1.98464
26.9608
-2.11425
27.168
-2.24411
27.379
-2.37413
27.5939
-2.50423
27.8127
-2.63436
28.0355
-2.76442
28.2621
-2.89436
28.4927
-3.02409
28.7273
-3.15354
28.9658
-3.28264
29.2082
-3.41132
29.4545
-3.53949
29.7047
-3.66709
29.9589
-3.79404
30.2169
-3.92026
30.4788
-4.04569
30.7445
-4.17026
31.0141
-4.29387
31.2871
-4.41653
31.5653
-4.5379
31.8426
-4.65875
32.1381
-4.77635
-4.89904
32.3925
19.4165
3.15088
-19.3344
19.4988
3.11508
19.5809
3.07678
19.663
3.03597
19.7451
2.99263
19.8272
2.94677
19.9094
2.89838
19.9919
2.84746
20.0747
2.79402
20.1578
2.73805
20.2415
2.67958
20.3256
2.6186
20.4104
2.55514
20.496
2.4892
20.5824
2.4208
20.6697
2.34995
20.758
2.27669
20.8474
2.20104
20.938
2.12301
21.03
2.04264
21.1233
1.95995
21.2181
1.87497
21.3144
1.78774
21.4125
1.6983
21.5122
1.60667
21.6139
1.51289
21.7174
1.41702
21.823
1.31907
21.9307
1.21911
22.0406
1.11717
22.1528
1.0133
22.2674
0.907549
22.3843
0.799965
22.5039
0.690599
22.626
0.579503
22.7508
0.466731
22.8783
0.352337
23.0087
0.236379
23.1419
0.118914
23.2781
0
23.4173
-0.120302
23.5597
-0.241931
23.7051
-0.364825
23.8538
-0.48892
24.0057
-0.614151
24.161
-0.740454
24.3196
-0.867761
24.4816
-0.996006
24.6471
-1.12512
24.8161
-1.25503
24.9886
-1.38568
25.1647
-1.51698
25.3444
-1.64887
25.5278
-1.78128
25.7148
-1.91413
25.9056
-2.04735
26.1
-2.18087
26.2982
-2.31461
26.5002
-2.4485
26.706
-2.58247
26.9155
-2.71643
27.1289
-2.85032
27.346
-2.98405
27.567
-3.11756
27.7918
-3.25076