/*--------------------------------*- C++ -*----------------------------------*\
| =========                 |                                                 |
| \\      /  F ield         | OpenFOAM: The Open Source CFD Toolbox           |
|  \\    /   O peration     | Version:  2312                                  |
|   \\  /    A nd           | Website:  www.openfoam.com                      |
|    \\/     M anipulation  |                                                 |
\*---------------------------------------------------------------------------*/
FoamFile
{
    version     2.0;
    format      ascii;
    arch        "LSB;label=32;scalar=64";
    class       volScalarField;
    location    "1.65";
    object      wave;
}
// * * * * * * * * * * * * * * * * * * * * * * * * * * * * * * * * * * * * * //

dimensions      [0 0 0 0 0 0 0];

internalField   nonuniform List<scalar> 
100
(
0.987459
0.950112
0.888895
0.805347
0.701567
0.580162
0.444183
0.297044
0.142443
-0.0157365
-0.173521
-0.326946
-0.472157
-0.605507
-0.723645
-0.823603
-0.902871
-0.959456
-0.991938
-0.999501
-0.981953
-0.939737
-0.873912
-0.786133
-0.678605
-0.554028
-0.415533
-0.266599
-0.110967
0.0474525
0.20468
0.356765
0.499888
0.630452
0.745178
0.841183
0.916056
0.967916
0.99546
0.997995
0.975458
0.928416
0.85805
0.766128
0.654959
0.527336
0.386465
0.235885
0.0793792
-0.0791208
-0.235633
-0.386226
-0.527115
-0.654763
-0.765961
-0.857917
-0.92832
-0.975401
-0.997978
-0.995484
-0.967981
-0.91616
-0.841324
-0.745351
-0.630653
-0.500112
-0.357007
-0.204934
-0.0477114
0.110709
0.266349
0.415297
0.553812
0.678414
0.785973
0.873786
0.939648
0.981904
0.999492
0.991971
0.95953
0.902982
0.82375
0.723824
0.605713
0.472385
0.327191
0.173776
0.0159957
-0.142186
-0.296797
-0.44395
-0.579951
-0.701382
-0.805193
-0.888776
-0.950031
-0.987418
-1
-0.987459
)
;

boundaryField
{
    movingWall
    {
        type            calculated;
        value           uniform 0;
    }
    fixedWalls
    {
        type            calculated;
        value           uniform 0;
    }
    frontAndBack
    {
        type            empty;
    }
}


// ************************************************************************* //
