/*--------------------------------*- C++ -*----------------------------------*\
| =========                 |                                                 |
| \\      /  F ield         | OpenFOAM: The Open Source CFD Toolbox           |
|  \\    /   O peration     | Version:  2312                                  |
|   \\  /    A nd           | Website:  www.openfoam.com                      |
|    \\/     M anipulation  |                                                 |
\*---------------------------------------------------------------------------*/
FoamFile
{
    version     2.0;
    format      ascii;
    arch        "LSB;label=32;scalar=64";
    class       surfaceScalarField;
    location    "0.867";
    object      phi;
}
// * * * * * * * * * * * * * * * * * * * * * * * * * * * * * * * * * * * * * //

dimensions      [0 3 -1 0 0 0 0];

oriented        oriented;

internalField   nonuniform List<scalar> 
62015
(
76.3072
0.14889
-75.8899
76.7095
0.146874
77.0975
0.144727
77.4717
0.142454
77.833
0.140057
78.1819
0.137537
78.519
0.1349
78.8449
0.132146
79.1601
0.129279
79.4651
0.126302
79.7604
0.123217
80.0463
0.120027
80.3234
0.116735
80.5919
0.113343
80.8523
0.109855
81.1049
0.106273
81.35
0.1026
81.588
0.098839
81.8191
0.0949927
82.0435
0.0910643
82.2616
0.087057
82.4736
0.0829731
82.6796
0.0788161
82.88
0.074589
83.0748
0.0702946
83.2644
0.0659364
83.4487
0.061517
83.6281
0.0570402
83.8025
0.0525089
83.9722
0.0479261
84.1372
0.043295
84.2977
0.0386193
84.4536
0.0339024
84.6052
0.0291466
84.7524
0.0243566
84.8952
0.0195344
85.0338
0.0146844
85.1681
0.00980997
85.2981
0.00491366
85.4238
0
85.5451
-0.00492799
85.6621
-0.00986728
85.7746
-0.0148133
85.8826
-0.0197633
85.9861
-0.0247137
86.0847
-0.0296601
86.1786
-0.0346001
86.2674
-0.0395288
86.3511
-0.0444435
86.4294
-0.0493403
86.5022
-0.0542151
86.5692
-0.0590643
86.6301
-0.0638842
86.6848
-0.0686714
86.7327
-0.0734212
86.7737
-0.0781305
86.8074
-0.0827949
86.8332
-0.0874106
86.8509
-0.0919738
86.8598
-0.0964799
86.8595
-0.100925
86.8494
-0.105306
86.8287
-0.109616
86.7968
-0.113853
86.7529
-0.118012
86.6961
-0.122088
86.6254
-0.126076
86.5397
-0.129971
86.4378
-0.133769
86.3182
-0.137463
86.1802
-0.141047
86.0191
-0.144519
85.8395
-0.147861
85.6194
-0.151096
85.4027
-0.154138
85.1444
-0.157146
84.8062
-0.15988
84.3705
-0.162535
-0.1646
84.1376
74.5752
0.295567
-74.2043
74.9334
0.291428
75.2791
0.287043
75.6131
0.282416
75.9357
0.277553
76.2477
0.272459
76.5494
0.26714
76.8413
0.261599
77.124
0.255842
77.3978
0.249874
77.6632
0.2437
77.9204
0.237326
78.1699
0.230756
78.412
0.223996
78.6471
0.217051
78.8753
0.209927
79.0971
0.202629
79.3127
0.195161
79.5223
0.187531
79.7261
0.179743
79.9245
0.171803
80.1175
0.163718
80.3055
0.155491
80.4885
0.14713
80.6668
0.13864
80.8405
0.130027
81.0098
0.121297
81.1747
0.112457
81.3355
0.103512
81.4922
0.0944682
81.6449
0.0853319
81.7937
0.0761097
81.9387
0.0668074
82.0799
0.0574323
82.2174
0.0479898
82.3512
0.0384868
82.4814
0.0289297
82.6079
0.019325
82.7308
0.00967962
82.8501
0
82.9657
-0.00970719
83.0775
-0.0194352
83.1856
-0.0291775
83.2899
-0.0389271
83.3903
-0.0486769
83.4866
-0.0584204
83.5789
-0.06815
83.6669
-0.0778599
83.7505
-0.0875421
83.8296
-0.0971901
83.9039
-0.106796
83.9734
-0.116354
84.0377
-0.125856
84.0966
-0.135294
84.1499
-0.144662
84.1972
-0.153953
84.2382
-0.163159
84.2727
-0.172271
84.3002
-0.181284
84.3202
-0.190189
84.3324
-0.198978
84.3362
-0.207644
84.3312
-0.216179
84.3166
-0.224573
84.2918
-0.23282
84.2562
-0.240911
84.2089
-0.248837
84.149
-0.256589
84.0756
-0.264157
83.9874
-0.271533
83.8838
-0.278704
83.7617
-0.285665
83.6234
-0.292392
83.4606
-0.298902
83.274
-0.305129
83.0685
-0.311124
82.8588
-0.316792
82.5145
-0.32242
-0.326801
82.3648
72.8709
0.43997
-72.5423
73.1887
0.43362
73.4957
0.426919
73.7926
0.419873
74.0797
0.412491
74.3575
0.404778
74.6266
0.396741
74.8872
0.388389
75.1397
0.379727
75.3846
0.370762
75.6222
0.361502
75.8528
0.351955
76.0766
0.342127
76.2941
0.332025
76.5055
0.321658
76.7111
0.311034
76.911
0.300159
77.1056
0.289041
77.295
0.277689
77.4796
0.26611
77.6594
0.254312
77.8346
0.242304
78.0055
0.230094
78.1722
0.21769
78.3348
0.205101
78.4935
0.192335
78.6485
0.1794
78.7998
0.166306
78.9475
0.153061
79.0917
0.139674
79.2326
0.126154
79.3703
0.11251
79.5046
0.0987511
79.6358
0.0848867
79.7639
0.0709252
79.8889
0.056877
80.0108
0.042751
80.1297
0.0285561
80.2455
0.0143027
80.3583
0
80.468
-0.0143424
80.5746
-0.0287148
80.678
-0.0431078
80.7782
-0.0575107
80.8751
-0.0719143
80.9687
-0.086309
81.0588
-0.100684
81.1454
-0.11503
81.2282
-0.129336
81.3072
-0.143593
81.3823
-0.157791
81.4532
-0.171919
81.5197
-0.185966
81.5817
-0.199923
81.6389
-0.213779
81.6911
-0.227524
81.7379
-0.241147
81.7792
-0.254637
81.8145
-0.267984
81.8435
-0.281177
81.8659
-0.294206
81.8812
-0.307058
81.8889
-0.319722
81.8886
-0.332189
81.8797
-0.344445
81.8616
-0.35648
81.8337
-0.368281
81.7952
-0.379835
81.7453
-0.391131
81.6831
-0.402155
81.6079
-0.412893
81.5179
-0.423334
81.4127
-0.433456
81.2908
-0.443256
81.1509
-0.452699
80.9813
-0.461809
80.8184
-0.470403
80.5648
-0.479013
-0.486048
80.4611
71.1808
0.581968
-70.8902
71.4622
0.573339
71.7342
0.564264
71.9975
0.554752
72.2524
0.54481
72.4993
0.534448
72.7386
0.523673
72.9707
0.512496
73.1958
0.500924
73.4143
0.488966
73.6265
0.476631
73.8326
0.463929
74.0331
0.450868
74.228
0.437459
74.4176
0.423709
74.6023
0.40963
74.7821
0.395231
74.9574
0.380522
75.1283
0.365512
75.295
0.350212
75.4576
0.334633
75.6164
0.318784
75.7714
0.302676
75.9229
0.28632
76.071
0.269726
76.2158
0.252906
76.3574
0.235871
76.4959
0.218631
76.6314
0.201198
76.764
0.183583
76.8938
0.165797
77.0209
0.147853
77.1453
0.129762
77.267
0.111535
77.3862
0.0931845
77.5028
0.0747226
77.6168
0.0561609
77.7283
0.037512
77.8373
0.0187875
77.9438
0
78.0477
-0.0188382
78.149
-0.0377148
78.2478
-0.0566172
78.3439
-0.0755323
78.4372
-0.0944491
78.5278
-0.113353
78.6155
-0.132232
78.7002
-0.151074
78.7819
-0.169866
78.8603
-0.188594
78.9355
-0.207246
79.0071
-0.225808
79.0751
-0.244268
79.1393
-0.262613
79.1995
-0.280828
79.2554
-0.298902
79.3069
-0.31682
79.3536
-0.334569
79.3953
-0.352135
79.4318
-0.369506
79.4625
-0.386666
79.4873
-0.403604
79.5058
-0.420303
79.5174
-0.43675
79.5217
-0.452932
79.5183
-0.468832
79.5066
-0.484438
79.486
-0.499733
79.4559
-0.514701
79.4154
-0.529328
79.364
-0.543597
79.3005
-0.557492
79.2242
-0.570993
79.1332
-0.584088
79.0299
-0.596737
78.902
-0.608992
78.7749
-0.620614
78.5746
-0.632188
-0.641967
78.5063
69.5018
0.721436
-69.2453
69.7504
0.710478
69.991
0.698987
70.224
0.686974
70.4499
0.674448
70.6688
0.661419
70.8813
0.647898
71.0875
0.633893
71.2877
0.619417
71.4822
0.604477
71.6714
0.589087
71.8554
0.573255
72.0344
0.556994
72.2087
0.540315
72.3786
0.523228
72.5442
0.505745
72.7057
0.487878
72.8633
0.469638
73.0171
0.451038
73.1674
0.43209
73.3143
0.412805
73.4579
0.393197
73.5984
0.373278
73.736
0.353061
73.8706
0.332558
74.0025
0.311783
74.1318
0.290749
74.2584
0.26947
74.3826
0.247958
74.5045
0.226228
74.624
0.204293
74.7412
0.182168
74.8563
0.159865
74.9691
0.1374
75.0799
0.114787
75.1886
0.0920393
75.2952
0.0691726
75.3998
0.0462004
75.5023
0.0231379
75.6027
0
75.7011
-0.0231986
75.7974
-0.0464433
75.8916
-0.0697188
75.9836
-0.0930096
76.0734
-0.116301
76.1609
-0.139578
76.2461
-0.162826
76.3288
-0.186027
76.409
-0.209168
76.4866
-0.232233
76.5614
-0.255206
76.6334
-0.278071
76.7023
-0.300814
76.7681
-0.323418
76.8305
-0.345867
76.8894
-0.368146
76.9445
-0.390239
76.9957
-0.412129
77.0427
-0.433801
77.0852
-0.455238
77.123
-0.476425
77.1558
-0.497345
77.1832
-0.517981
77.2049
-0.538317
77.2204
-0.558336
77.2295
-0.578021
77.2315
-0.597355
77.2261
-0.616321
77.2127
-0.6349
77.1906
-0.653075
77.1593
-0.670828
77.118
-0.688139
77.0662
-0.704987
77.0019
-0.72136
76.9272
-0.737211
76.8333
-0.752595
76.7405
-0.767269
76.5847
-0.781845
-0.794436
76.5425
67.8349
0.85827
-67.609
68.0541
0.844948
68.2664
0.831014
68.4723
0.81648
68.672
0.801357
68.8657
0.785656
69.0539
0.769387
69.2367
0.752563
69.4145
0.735196
69.5873
0.717295
69.7556
0.698875
69.9194
0.679947
70.079
0.660524
70.2347
0.640618
70.3865
0.620242
70.5347
0.599409
70.6794
0.578133
70.8209
0.556428
70.9592
0.534306
71.0945
0.511783
71.227
0.488872
71.3567
0.465587
71.4839
0.441943
71.6086
0.417955
71.7309
0.393637
71.8509
0.369005
71.9688
0.344075
72.0846
0.318861
72.1983
0.293378
72.3102
0.267644
72.4201
0.241673
72.5283
0.215482
72.6346
0.189087
72.7393
0.162505
72.8422
0.135751
72.9435
0.108843
73.0432
0.0817965
73.1412
0.0546295
73.2376
0.0273582
73.3323
0
73.4254
-0.027428
73.5169
-0.0549088
73.6067
-0.0824245
73.6947
-0.109959
73.781
-0.137492
73.8655
-0.165009
73.9481
-0.192491
74.0287
-0.21992
74.1073
-0.247279
74.1838
-0.27455
74.258
-0.301715
74.3299
-0.328755
74.3993
-0.355654
74.4662
-0.382392
74.5302
-0.408951
74.5914
-0.435315
74.6495
-0.461464
74.7043
-0.48738
74.7556
-0.513045
74.8032
-0.538439
74.8469
-0.563546
74.8863
-0.588346
74.9213
-0.612821
74.9515
-0.636951
74.9765
-0.660718
74.9961
-0.684103
75.0098
-0.707086
75.0173
-0.729649
75.0181
-0.751771
75.0116
-0.773432
74.9975
-0.794613
74.975
-0.815292
74.9437
-0.835447
74.9022
-0.855063
74.8519
-0.874093
74.7855
-0.892591
74.7209
-0.910305
74.6032
-0.927877
-0.943334
74.5836
66.1828
0.992393
-65.9842
66.3756
0.976685
66.5625
0.960293
66.7439
0.943229
66.92
0.925506
67.091
0.907136
67.2573
0.88813
67.419
0.868501
67.5763
0.848264
67.7296
0.827429
67.8789
0.806011
68.0244
0.784023
68.1664
0.76148
68.3051
0.738394
68.4405
0.714782
68.5729
0.690657
68.7023
0.666035
68.8291
0.64093
68.9532
0.615357
69.0748
0.589334
69.1941
0.562874
69.3112
0.535995
69.4261
0.508713
69.539
0.481044
69.65
0.453005
69.7592
0.424614
69.8666
0.395886
69.9723
0.36684
70.0764
0.337493
70.179
0.307862
70.2801
0.277967
70.3798
0.247824
70.4782
0.217452
70.5751
0.18687
70.6708
0.156095
70.7652
0.125147
70.8583
0.0940449
70.9502
0.0628067
71.0408
0.0314522
71.1302
0
71.2183
-0.0315303
71.3052
-0.0631189
71.3907
-0.094747
71.475
-0.126394
71.5578
-0.158042
71.6393
-0.18967
71.7193
-0.221257
71.7977
-0.252787
71.8746
-0.284235
71.9498
-0.315585
72.0232
-0.346815
72.0947
-0.377905
72.1643
-0.408836
72.2318
-0.439586
72.297
-0.470137
72.3599
-0.500466
72.4203
-0.530555
72.478
-0.560383
72.5328
-0.589929
72.5846
-0.619172
72.6331
-0.648094
72.6781
-0.676672
72.7195
-0.704886
72.7568
-0.732715
72.7899
-0.760139
72.8184
-0.787137
72.8421
-0.813687
72.8605
-0.839769
72.8733
-0.865361
72.8802
-0.890441
72.8805
-0.914988
72.874
-0.938979
72.8601
-0.962391
72.8377
-0.985207
72.8082
-1.00738
72.7651
-1.02896
72.7239
-1.0497
72.6377
-1.07024
-1.08858
72.6367
64.548
1.12375
-64.374
64.7171
1.10564
64.8812
1.08679
65.0405
1.06719
65.1954
1.04688
65.3459
1.02585
65.4924
1.00412
65.635
0.981712
65.774
0.958631
65.9094
0.934894
66.0415
0.910515
66.1705
0.885509
66.2965
0.859892
66.4197
0.833679
66.5402
0.806885
66.6582
0.779528
66.7738
0.751622
66.8871
0.723185
66.9982
0.694233
67.1074
0.664785
67.2146
0.634857
67.3201
0.604466
67.4238
0.573632
67.5259
0.542371
67.6265
0.510704
67.7256
0.478647
67.8234
0.446221
67.9199
0.413445
68.0151
0.380336
68.1092
0.346916
68.2022
0.313205
68.294
0.27922
68.3849
0.244984
68.4747
0.210516
68.5636
0.175838
68.6516
0.140968
68.7386
0.105928
68.8247
0.0707396
68.9099
0.0354231
68.9942
0
69.0776
-0.0355086
69.1601
-0.0710814
69.2416
-0.106697
69.3221
-0.142334
69.4017
-0.17797
69.4802
-0.213583
69.5575
-0.249152
69.6338
-0.284655
69.7088
-0.32007
69.7826
-0.355375
69.8549
-0.390548
69.9259
-0.425567
69.9953
-0.460409
70.0631
-0.495053
70.1291
-0.529476
70.1932
-0.563656
70.2553
-0.597571
70.3153
-0.631198
70.3729
-0.664516
70.4281
-0.697501
70.4806
-0.730133
70.5303
-0.762387
70.5769
-0.794241
70.6202
-0.825675
70.6601
-0.856664
70.6962
-0.887186
70.7282
-0.917219
70.7559
-0.946739
70.7789
-0.975725
70.797
-1.00415
70.8097
-1.032
70.8167
-1.05924
70.8176
-1.08585
70.8114
-1.11181
70.7993
-1.13708
70.7759
-1.16171
70.7545
-1.18543
70.6947
-1.20891
-1.23013
70.709
62.933
1.2523
-62.781
63.0808
1.23179
63.2243
1.21048
63.3638
1.18836
63.4995
1.16547
63.6316
1.1418
63.7602
1.11737
63.8856
1.09221
64.0079
1.06632
64.1272
1.03971
64.2438
1.01241
64.3577
0.984437
64.4692
0.955795
64.5784
0.926507
64.6853
0.89659
64.7902
0.86606
64.8931
0.834936
64.9941
0.803236
65.0935
0.770978
65.1912
0.738181
65.2875
0.704863
65.3822
0.671043
65.4757
0.636742
65.5679
0.601979
65.659
0.566774
65.7489
0.531147
65.8378
0.495119
65.9258
0.458711
66.0128
0.421944
66.099
0.384837
66.1844
0.347415
66.2691
0.309698
66.353
0.271707
66.4363
0.233466
66.5188
0.194995
66.6008
0.156318
66.6821
0.117457
66.7628
0.0784357
66.8429
0.0392754
66.9224
0
67.0013
-0.0393676
67.0796
-0.0788043
67.1572
-0.118286
67.2342
-0.157791
67.3105
-0.197293
67.3861
-0.236771
67.4609
-0.276201
67.5349
-0.315557
67.608
-0.354818
67.6802
-0.393958
67.7514
-0.432955
67.8216
-0.471783
67.8905
-0.51042
67.9583
-0.548841
68.0247
-0.587022
68.0896
-0.624939
68.153
-0.662569
68.2147
-0.699886
68.2745
-0.736868
68.3324
-0.773489
68.3882
-0.809727
68.4416
-0.845556
68.4926
-0.880954
68.541
-0.915896
68.5864
-0.950358
68.6288
-0.984315
68.6679
-1.01774
68.7035
-1.05062
68.7351
-1.08292
68.7627
-1.11462
68.7859
-1.14569
68.8042
-1.17612
68.8176
-1.20587
68.8251
-1.23492
68.8278
-1.26323
68.8211
-1.29085
68.8163
-1.31752
68.7788
-1.34389
-1.36797
68.8056
61.3399
1.37801
-61.2077
61.4685
1.35512
61.5936
1.33135
61.7152
1.30673
61.8336
1.28128
61.949
1.25499
62.0615
1.2279
62.1713
1.20001
62.2785
1.17134
62.3833
1.14192
62.4857
1.11174
62.586
1.08084
62.6843
1.04922
62.7807
1.01692
62.8753
0.983936
62.9683
0.950298
63.0596
0.916022
63.1496
0.881129
63.2381
0.845637
63.3254
0.809566
63.4116
0.772938
63.4966
0.735771
63.5807
0.698088
63.6638
0.659909
63.7461
0.621257
63.8276
0.582152
63.9084
0.542618
63.9885
0.502675
64.068
0.462347
64.1469
0.421657
64.2254
0.380628
64.3033
0.339282
64.3808
0.297644
64.4579
0.255737
64.5346
0.213585
64.6109
0.171213
64.6869
0.128643
64.7626
0.0859016
64.8379
0.0430121
64.9129
0
64.9875
-0.0431102
65.0618
-0.0862939
65.1357
-0.129526
65.2093
-0.17278
65.2825
-0.216033
65.3552
-0.259257
65.4274
-0.302428
65.4992
-0.345522
65.5703
-0.388511
65.6409
-0.43137
65.7108
-0.474074
65.7799
-0.516598
65.8483
-0.558915
65.9157
-0.600999
65.9822
-0.642827
66.0475
-0.68437
66.1117
-0.725605
66.1747
-0.766505
66.2362
-0.807044
66.2962
-0.847198
66.3545
-0.886941
66.4111
-0.926246
66.4656
-0.965089
66.5181
-1.00344
66.5682
-1.04129
66.6159
-1.07859
66.6609
-1.11533
66.703
-1.15148
66.7419
-1.18701
66.7775
-1.22191
66.8095
-1.25613
66.8375
-1.28967
66.8614
-1.32249
66.8805
-1.35457
66.8956
-1.38587
66.9028
-1.41642
66.9121
-1.44599
66.8933
-1.4752
-1.50211
66.9306
59.7704
1.50088
-59.656
59.8818
1.47561
59.9902
1.44941
60.0957
1.42231
60.1986
1.39432
60.2989
1.36545
60.3969
1.33572
60.4925
1.30514
60.5861
1.27374
60.6776
1.24153
60.7673
1.20853
60.8553
1.17475
60.9416
1.14022
61.0264
1.10495
61.1098
1.06897
61.1919
1.03228
61.2727
0.994923
61.3525
0.956906
61.4312
0.918253
61.509
0.878986
61.586
0.839125
61.6621
0.798693
61.7376
0.757712
61.8124
0.716204
61.8866
0.674193
61.9604
0.631701
62.0337
0.588753
62.1065
0.545371
62.1791
0.501581
62.2513
0.457406
62.3233
0.41287
62.395
0.367999
62.4666
0.322818
62.5379
0.277351
62.6092
0.231625
62.6803
0.185664
62.7513
0.139495
62.8221
0.0931444
62.8929
0.0466371
62.9637
0
63.0343
-0.0467405
63.1048
-0.093558
63.1752
-0.140425
63.2454
-0.187316
63.3156
-0.234204
63.3855
-0.281061
63.4552
-0.327861
63.5247
-0.374576
63.5939
-0.421181
63.6627
-0.467646
63.7312
-0.513945
63.7992
-0.560051
63.8667
-0.605937
63.9336
-0.651576
63.9999
-0.69694
64.0654
-0.742002
64.1301
-0.786735
64.1938
-0.831112
64.2566
-0.875107
64.3181
-0.918691
64.3785
-0.961837
64.4374
-1.00452
64.4949
-1.04671
64.5507
-1.08839
64.6046
-1.12952
64.6567
-1.17008
64.7065
-1.21004
64.7541
-1.24938
64.7991
-1.28806
64.8413
-1.32607
64.8807
-1.36338
64.9168
-1.39996
64.9496
-1.43578
64.9784
-1.47082
65.004
-1.50503
65.0231
-1.53847
65.0441
-1.57088
65.0411
-1.60287
-1.63257
65.087
58.2259
1.62091
-58.1275
58.3218
1.59327
58.4153
1.56467
58.5063
1.53511
58.5951
1.50461
58.6819
1.47318
58.7666
1.44085
58.8496
1.40763
58.9308
1.37354
59.0104
1.3386
59.0885
1.30281
59.1652
1.26622
59.2407
1.22882
59.315
1.19065
59.3882
1.15172
59.4604
1.11206
59.5317
1.07168
59.6022
1.03061
59.6719
0.988874
59.741
0.946484
59.8096
0.903469
59.8776
0.859852
59.9452
0.815655
60.0124
0.770904
60.0792
0.725621
60.1458
0.679832
60.2122
0.633561
60.2785
0.586834
60.3446
0.539676
60.4106
0.492112
60.4766
0.444169
60.5426
0.395872
60.6086
0.347249
60.6747
0.298326
60.7408
0.249129
60.807
0.199686
60.8733
0.150024
60.9398
0.10017
61.0063
0.0501533
61.073
0
61.1398
-0.0502614
61.2067
-0.100603
61.2737
-0.150996
61.3408
-0.201413
61.408
-0.251826
61.4752
-0.302205
61.5425
-0.352522
61.6097
-0.40275
61.6768
-0.452858
61.7439
-0.502819
61.8109
-0.552605
61.8776
-0.602185
61.9441
-0.651532
62.0103
-0.700617
62.0761
-0.749412
62.1415
-0.797887
62.2064
-0.846014
62.2706
-0.893766
62.3341
-0.941113
62.3969
-0.988027
62.4587
-1.03448
62.5195
-1.08044
62.5792
-1.12589
62.6377
-1.17079
62.6947
-1.21512
62.7503
-1.25884
62.8041
-1.30194
62.8562
-1.34438
62.9062
-1.38614
62.9541
-1.42719
62.9996
-1.4675
63.0425
-1.50704
63.0827
-1.54579
63.1197
-1.58372
63.1541
-1.62079
63.1831
-1.65704
63.2139
-1.69223
63.2243
-1.72694
-1.75939
63.2772
56.7076
1.73809
-56.6236
56.7897
1.70812
56.8696
1.67713
56.9476
1.64514
57.0238
1.61217
57.0982
1.57823
57.1711
1.54334
57.2426
1.50752
57.3126
1.47078
57.3814
1.43315
57.449
1.39464
57.5156
1.35527
57.5812
1.31508
57.6459
1.27406
57.7099
1.23226
57.7731
1.18968
57.8357
1.14635
57.8977
1.1023
57.9593
1.05754
58.0205
1.01211
58.0813
0.966014
58.1419
0.919291
58.2023
0.871961
58.2625
0.824049
58.3226
0.775581
58.3827
0.726582
58.4427
0.677079
58.5028
0.627097
58.563
0.576664
58.6233
0.525807
58.6838
0.474552
58.7445
0.422927
58.8054
0.370961
58.8665
0.31868
58.9279
0.266114
58.9895
0.21329
59.0515
0.160238
59.1137
0.106987
59.1763
0.053564
59.2392
0
59.3023
-0.0536763
59.3658
-0.107436
59.4296
-0.161248
59.4937
-0.215084
59.558
-0.268914
59.6226
-0.322708
59.6874
-0.376436
59.7524
-0.430068
59.8175
-0.483574
59.8828
-0.536924
59.9481
-0.590089
60.0135
-0.643038
60.0789
-0.695741
60.1442
-0.748168
60.2094
-0.80029
60.2744
-0.852076
60.3391
-0.903496
60.4035
-0.954521
60.4675
-1.00512
60.531
-1.05527
60.5939
-1.10493
60.6561
-1.15408
60.7175
-1.20269
60.778
-1.25072
60.8376
-1.29816
60.8959
-1.34496
60.953
-1.39111
61.0088
-1.43657
61.0629
-1.48132
61.1154
-1.52532
61.166
-1.56855
61.2145
-1.61098
61.2609
-1.65259
61.3047
-1.69334
61.3465
-1.73319
61.3838
-1.77219
61.4229
-1.8101
61.4445
-1.84747
-1.8826
61.5031
55.2166
1.85244
-55.1455
55.2861
1.82016
55.3539
1.78683
55.4201
1.75244
55.4849
1.71704
55.5483
1.68062
55.6105
1.64321
55.6715
1.60483
55.7315
1.56549
55.7905
1.52522
55.8486
1.48404
55.906
1.44197
55.9626
1.39902
56.0187
1.35523
56.0742
1.3106
56.1293
1.26518
56.184
1.21897
56.2383
1.172
56.2924
1.1243
56.3464
1.07589
56.4002
1.0268
56.454
0.977053
56.5077
0.92667
56.5616
0.87568
56.6155
0.824111
56.6695
0.771988
56.7238
0.71934
56.7782
0.666193
56.833
0.612576
56.888
0.558517
56.9434
0.504044
56.9991
0.449186
57.0552
0.393973
57.1118
0.338432
57.1687
0.282595
57.2261
0.22649
57.284
0.170148
57.3423
0.113599
57.4011
0.0568727
57.4604
0
57.5202
-0.0569885
57.5804
-0.114062
57.6411
-0.17119
57.7022
-0.228341
57.7638
-0.285485
57.8258
-0.342589
57.8882
-0.399623
57.951
-0.456556
58.0141
-0.513356
58.0776
-0.569993
58.1413
-0.626434
58.2053
-0.682649
58.2694
-0.738605
58.3337
-0.794273
58.3981
-0.849621
58.4625
-0.904618
58.5269
-0.959232
58.5912
-1.01343
58.6553
-1.06719
58.7192
-1.12047
58.7828
-1.17325
58.8459
-1.22549
58.9086
-1.27717
58.9707
-1.32825
59.0321
-1.3787
59.0927
-1.4285
59.1524
-1.47761
59.211
-1.526
59.2685
-1.57366
59.3247
-1.62054
59.3795
-1.66661
59.4327
-1.71186
59.4842
-1.75624
59.5337
-1.79974
59.5816
-1.84232
59.6257
-1.88399
59.6717
-1.92455
59.7027
-1.96452
-2.00228
59.766
53.7535
1.96398
-53.694
53.8117
1.92943
53.8686
1.89378
53.9242
1.85704
53.9787
1.81924
54.0322
1.78038
54.0847
1.7405
54.1363
1.69961
54.1871
1.65772
54.2373
1.61487
54.2869
1.57107
54.3359
1.52634
54.3844
1.48071
54.4326
1.43419
54.4805
1.38681
54.5282
1.3386
54.5757
1.28958
54.623
1.23977
54.6704
1.1892
54.7177
1.1379
54.7651
1.08588
54.8127
1.03318
54.8604
0.979822
54.9084
0.925836
54.9566
0.871248
55.0051
0.816086
55.054
0.760378
55.1033
0.704154
55.153
0.647441
55.2032
0.59027
55.2538
0.532671
55.305
0.474672
55.3567
0.416305
55.409
0.3576
55.4618
0.298586
55.5152
0.239297
55.5693
0.179763
55.6239
0.120013
55.6792
0.0600822
55.7351
0
55.7916
-0.0602012
55.8487
-0.120489
55.9065
-0.180832
55.9648
-0.241198
56.0238
-0.301554
56.0833
-0.361868
56.1434
-0.422108
56.204
-0.482241
56.2651
-0.542234
56.3267
-0.602056
56.3887
-0.661673
56.4512
-0.721054
56.514
-0.780166
56.5772
-0.838975
56.6406
-0.897452
56.7043
-0.955562
56.7681
-1.01327
56.8321
-1.07055
56.8961
-1.12737
56.9601
-1.1837
57.024
-1.2395
57.0878
-1.29474
57.1513
-1.3494
57.2145
-1.40343
57.2773
-1.45681
57.3396
-1.50952
57.4013
-1.56151
57.4622
-1.61276
57.5224
-1.66323
57.5816
-1.71291
57.6398
-1.76175
57.6968
-1.80974
57.7525
-1.85683
57.8066
-1.90301
57.8595
-1.94822
57.9094
-1.9925
57.961
-2.03565
57.9999
-2.07815
-2.11847
58.0668
52.3189
2.07274
-52.2698
52.367
2.03595
52.4141
1.99802
52.4602
1.95896
52.5054
1.9188
52.5499
1.87756
52.5937
1.83525
52.6368
1.79189
52.6794
1.74751
52.7216
1.70213
52.7634
1.65576
52.8049
1.60844
52.8461
1.56017
52.8872
1.511
52.9281
1.46093
52.969
1.41001
53.01
1.35824
53.051
1.30565
53.0921
1.25228
53.1335
1.19815
53.175
1.14329
53.2169
1.08771
53.2591
1.03146
53.3017
0.974556
53.3447
0.91703
53.3882
0.85891
53.4322
0.800228
53.4767
0.74101
53.5218
0.681289
53.5674
0.621095
53.6137
0.560457
53.6607
0.499407
53.7083
0.437978
53.7566
0.376199
53.8056
0.314103
53.8553
0.251723
53.9058
0.18909
53.957
0.126236
54.0089
0.0631955
54.0616
0
54.1151
-0.0633171
54.1693
-0.126722
54.2242
-0.190183
54.2799
-0.253666
54.3363
-0.317137
54.3934
-0.380563
54.4512
-0.44391
54.5096
-0.507145
54.5687
-0.570235
54.6285
-0.633144
54.6888
-0.695841
54.7497
-0.758291
54.8112
-0.820461
54.8731
-0.882317
54.9355
-0.943826
54.9982
-1.00495
55.0613
-1.06567
55.1248
-1.12594
55.1884
-1.18573
55.2523
-1.245
55.3163
-1.30374
55.3803
-1.36189
55.4444
-1.41943
55.5083
-1.47634
55.5721
-1.53257
55.6356
-1.58809
55.6988
-1.64288
55.7615
-1.6969
55.8237
-1.75012
55.8853
-1.80251
55.9462
-1.85405
56.0062
-1.90469
56.0653
-1.95441
56.1231
-2.00319
56.1802
-2.05098
56.2347
-2.09781
56.291
-2.14347
56.3364
-2.18843
-2.23126
56.4063
50.9133
2.17875
-50.8735
50.9524
2.13976
50.9906
2.09958
51.0281
2.05825
51.065
2.01578
51.1014
1.97219
51.1373
1.9275
51.1728
1.88173
51.208
1.83491
51.243
1.78705
51.2777
1.73817
51.3124
1.68831
51.347
1.63747
51.3816
1.5857
51.4162
1.53301
51.451
1.47943
51.486
1.42498
51.5213
1.36969
51.5568
1.31359
51.5927
1.25671
51.6289
1.19906
51.6656
1.14069
51.7027
1.08162
51.7404
1.02188
51.7787
0.961492
51.8175
0.900496
51.857
0.83892
51.8971
0.776794
51.9379
0.714148
51.9794
0.651015
52.0217
0.587426
52.0647
0.523414
52.1085
0.45901
52.1531
0.394247
52.1986
0.329159
52.2448
0.263778
52.2919
0.198138
52.3399
0.132273
52.3887
0.0662155
52.4384
0
52.4889
-0.0663393
52.5403
-0.132768
52.5926
-0.199252
52.6457
-0.265757
52.6997
-0.332248
52.7544
-0.398691
52.81
-0.465052
52.8664
-0.531294
52.9235
-0.597384
52.9814
-0.663288
53.0401
-0.728969
53.0994
-0.794394
53.1594
-0.859529
53.22
-0.924338
53.2812
-0.988788
53.3429
-1.05284
53.4052
-1.11647
53.4679
-1.17964
53.5311
-1.2423
53.5946
-1.30444
53.6584
-1.36602
53.7224
-1.427
53.7866
-1.48735
53.851
-1.54703
53.9153
-1.60602
53.9797
-1.66428
54.0439
-1.72179
54.108
-1.7785
54.1717
-1.83438
54.2351
-1.88942
54.2981
-1.94356
54.3605
-1.99679
54.4222
-2.04907
54.4831
-2.10038
54.5435
-2.15067
54.6018
-2.19997
54.6619
-2.24808
54.7127
-2.29544
-2.3407
54.7848
49.537
2.28204
-49.5056
49.5679
2.24088
49.5982
2.19851
49.628
2.15495
49.6575
2.11021
49.6866
2.06432
49.7154
2.0173
49.744
1.96917
49.7725
1.91995
49.8009
1.86967
49.8294
1.81834
49.8578
1.76599
49.8864
1.71265
49.9152
1.65834
49.9442
1.60309
49.9734
1.54692
50.003
1.48985
50.033
1.43193
50.0634
1.37317
50.0943
1.3136
50.1257
1.25325
50.1576
1.19216
50.1902
1.13034
50.2234
1.06784
50.2572
1.00467
50.2918
0.940877
50.3271
0.876488
50.3632
0.811533
50.4001
0.746046
50.4378
0.680058
50.4763
0.613602
50.5157
0.546712
50.556
0.47942
50.5972
0.411761
50.6393
0.343767
50.6823
0.275475
50.7263
0.206917
50.7712
0.138129
50.8171
0.0691449
50.864
0
50.9118
-0.0692706
50.9605
-0.138631
51.0102
-0.208047
51.0609
-0.277483
51.1124
-0.346903
51.165
-0.416271
51.2184
-0.485552
51.2727
-0.55471
51.3279
-0.623709
51.384
-0.692514
51.4409
-0.761089
51.4986
-0.829399
51.5571
-0.897407
51.6163
-0.965079
51.6763
-1.03238
51.737
-1.09927
51.7982
-1.16572
51.8601
-1.2317
51.9226
-1.29716
51.9855
-1.36207
52.0489
-1.4264
52.1127
-1.49012
52.1769
-1.55319
52.2413
-1.61557
52.306
-1.67724
52.3708
-1.73816
52.4357
-1.7983
52.5007
-1.85762
52.5655
-1.91609
52.6303
-1.97369
52.6948
-2.03037
52.759
-2.08611
52.8228
-2.14088
52.8861
-2.19465
52.949
-2.24737
53.0105
-2.29906
53.0735
-2.34956
53.1287
-2.39924
-2.44687
53.2024
48.1902
2.38265
-48.1663
48.2138
2.33937
48.237
2.29484
48.2599
2.24909
48.2826
2.20214
48.3051
2.154
48.3276
2.1047
48.35
2.05425
48.3725
2.00269
48.395
1.95004
48.4177
1.89631
48.4406
1.84154
48.4638
1.78575
48.4873
1.72897
48.5111
1.67121
48.5353
1.61252
48.56
1.55291
48.5852
1.49241
48.611
1.43106
48.6373
1.36888
48.6643
1.3059
48.6919
1.24215
48.7203
1.17766
48.7494
1.11247
48.7792
1.0466
48.8099
0.980087
48.8414
0.912962
48.8738
0.845259
48.907
0.777009
48.9412
0.708248
48.9763
0.639007
49.0123
0.569321
49.0494
0.499226
49.0874
0.428754
49.1264
0.357941
49.1664
0.286823
49.2075
0.215434
49.2495
0.14381
49.2927
0.0719864
49.3368
0
49.382
-0.0721136
49.4282
-0.144318
49.4755
-0.216577
49.5238
-0.288855
49.5731
-0.361114
49.6235
-0.433317
49.6748
-0.50543
49.7271
-0.577414
49.7804
-0.649234
49.8347
-0.720852
49.8899
-0.792232
49.946
-0.863337
50.003
-0.934131
50.0608
-1.00458
50.1194
-1.07464
50.1789
-1.14428
50.2391
-1.21347
50.3
-1.28217
50.3616
-1.35033
50.4239
-1.41794
50.4867
-1.48495
50.5501
-1.55132
50.6139
-1.61703
50.6782
-1.68203
50.7429
-1.7463
50.8079
-1.80979
50.8732
-1.87248
50.9386
-1.93434
51.0042
-1.99532
51.0699
-2.0554
51.1355
-2.11455
51.201
-2.17273
51.2664
-2.22991
51.3315
-2.28606
51.3964
-2.34115
51.4603
-2.39517
51.5256
-2.44798
51.5844
-2.49992
-2.54986
51.6592
46.8729
2.48063
-46.8558
46.89
2.43527
46.9068
2.38863
46.9235
2.34073
46.9402
2.2916
46.9569
2.24126
46.9736
2.18973
46.9904
2.13702
47.0075
2.08318
47.0247
2.02821
47.0423
1.97214
47.0601
1.91501
47.0784
1.85682
47.0971
1.79762
47.1163
1.73743
47.136
1.67627
47.1562
1.61418
47.1771
1.55118
47.1986
1.4873
47.2208
1.42258
47.2438
1.35704
47.2675
1.29071
47.292
1.22362
47.3173
1.15581
47.3435
1.08731
47.3706
1.01816
47.3986
0.948373
47.4276
0.877998
47.4575
0.807065
47.4884
0.735609
47.5203
0.663663
47.5533
0.591264
47.5873
0.518445
47.6223
0.445243
47.6585
0.371694
47.6957
0.297832
47.734
0.223696
47.7734
0.14932
47.8139
0.0747429
47.8555
0
47.8983
-0.0748712
47.9421
-0.149833
47.9871
-0.22485
48.0331
-0.299883
48.0803
-0.374895
48.1285
-0.449848
48.1778
-0.524706
48.2282
-0.59943
48.2796
-0.673984
48.3321
-0.748328
48.3856
-0.822427
48.4401
-0.896242
48.4955
-0.969736
48.5519
-1.04287
48.6092
-1.11561
48.6674
-1.18792
48.7264
-1.25976
48.7863
-1.3311
48.8469
-1.40189
48.9083
-1.4721
48.9704
-1.5417
49.0332
-1.61065
49.0966
-1.67891
49.1605
-1.74645
49.225
-1.81324
49.2899
-1.87924
49.3552
-1.94441
49.4209
-2.00872
49.4869
-2.07214
49.5531
-2.13463
49.6194
-2.19617
49.6859
-2.25671
49.7524
-2.31623
49.8187
-2.3747
49.8852
-2.43207
49.9508
-2.48836
50.0179
-2.54342
50.0795
-2.59755
-2.64972
50.155
45.5852
2.57601
-45.5741
45.5964
2.52861
45.6076
2.4799
45.6187
2.42991
45.63
2.37865
45.6414
2.32616
45.653
2.27244
45.6648
2.21753
45.677
2.16145
45.6895
2.10422
45.7024
2.04588
45.7157
1.98643
45.7296
1.92592
45.7439
1.86436
45.7589
1.80179
45.7745
1.73823
45.7907
1.67372
45.8077
1.60828
45.8254
1.54195
45.8438
1.47474
45.8631
1.40671
45.8832
1.33787
45.9043
1.26825
45.9262
1.1979
45.949
1.12685
45.9728
1.05512
45.9976
0.98275
46.0235
0.909779
46.0503
0.836239
46.0782
0.762165
46.1072
0.687593
46.1373
0.612557
46.1685
0.537095
46.2008
0.461243
46.2342
0.385037
46.2688
0.308514
46.3046
0.231711
46.3415
0.154666
46.3795
0.0774167
46.4188
0
46.4592
-0.0775459
46.5007
-0.155183
46.5435
-0.232873
46.5874
-0.310577
46.6325
-0.388259
46.6787
-0.465878
46.726
-0.543397
46.7745
-0.620778
46.8241
-0.697981
46.8748
-0.774969
46.9266
-0.851703
46.9795
-0.928144
47.0334
-1.00426
47.0883
-1.08
47.1442
-1.15534
47.2011
-1.23023
47.2589
-1.30464
47.3176
-1.37853
47.3772
-1.45187
47.4377
-1.52461
47.4989
-1.59672
47.5609
-1.66817
47.6236
-1.73891
47.687
-1.80891
47.7511
-1.87814
47.8157
-1.94656
47.8808
-2.01413
47.9465
-2.08083
48.0125
-2.14661
48.079
-2.21144
48.1457
-2.27529
48.2127
-2.33813
48.2799
-2.39992
48.3471
-2.46064
48.4146
-2.52023
48.4816
-2.57872
48.5499
-2.63595
48.6138
-2.69222
-2.74656
48.6896
44.3271
2.66884
-44.3213
44.333
2.61944
44.3391
2.56872
44.3453
2.51667
44.3517
2.46334
44.3584
2.40874
44.3654
2.3529
44.3727
2.29583
44.3805
2.23757
44.3887
2.17813
44.3974
2.11756
44.4067
2.05586
44.4165
1.99307
44.427
1.92922
44.4382
1.86433
44.4501
1.79844
44.4627
1.73157
44.4761
1.66376
44.4903
1.59503
44.5054
1.52541
44.5213
1.45495
44.5382
1.38367
44.556
1.31159
44.5748
1.23877
44.5946
1.16523
44.6154
1.091
44.6373
1.01612
44.6602
0.940628
44.6842
0.864556
44.7094
0.787939
44.7357
0.710816
44.7631
0.633221
44.7917
0.555192
44.8214
0.476767
44.8524
0.397983
44.8845
0.318877
44.9178
0.239487
44.9524
0.159852
44.9882
0.0800103
45.0251
0
45.0634
-0.0801401
45.1028
-0.160371
45.1434
-0.240654
45.1853
-0.32095
45.2283
-0.401219
45.2726
-0.481423
45.3181