/*--------------------------------*- C++ -*----------------------------------*\
| =========                 |                                                 |
| \\      /  F ield         | OpenFOAM: The Open Source CFD Toolbox           |
|  \\    /   O peration     | Version:  2312                                  |
|   \\  /    A nd           | Website:  www.openfoam.com                      |
|    \\/     M anipulation  |                                                 |
\*---------------------------------------------------------------------------*/
FoamFile
{
    version     2.0;
    format      ascii;
    arch        "LSB;label=32;scalar=64";
    class       volVectorField;
    location    "0.806";
    object      U;
}
// * * * * * * * * * * * * * * * * * * * * * * * * * * * * * * * * * * * * * //

dimensions      [0 1 -1 0 0 0 0];

internalField   nonuniform List<vector> 
31205
(
(172.459 0 0)
(169.063 0 0)
(165.563 0 0)
(161.954 0 0)
(158.23 0 0)
(154.388 0 0)
(150.423 0 0)
(146.336 0 0)
(142.132 0 0)
(137.824 0 0)
(133.438 0 0)
(129.021 0 0)
(124.646 0 0)
(120.412 0 0)
(116.44 0 0)
(112.848 0 0)
(109.737 0 0)
(107.166 0 0)
(105.153 0 0)
(103.675 0 0)
(102.686 0 0)
(102.123 0 0)
(101.924 0 0)
(102.027 0 0)
(102.381 0 0)
(102.939 0 0)
(103.663 0 0)
(104.524 0 0)
(105.496 0 0)
(106.558 0 0)
(107.695 0 0)
(108.892 0 0)
(110.14 0 0)
(111.429 0 0)
(112.752 0 0)
(114.102 0 0)
(115.475 0 0)
(116.867 0 0)
(118.274 0 0)
(119.693 0 0)
(121.122 0 0)
(122.558 0 0)
(123.999 0 0)
(125.445 0 0)
(126.894 0 0)
(128.344 0 0)
(129.794 0 0)
(131.245 0 0)
(132.694 0 0)
(134.142 0 0)
(135.587 0 0)
(137.03 0 0)
(138.47 0 0)
(139.906 0 0)
(141.338 0 0)
(142.766 0 0)
(144.189 0 0)
(145.608 0 0)
(147.022 0 0)
(148.432 0 0)
(149.836 0 0)
(151.234 0 0)
(152.628 0 0)
(154.015 0 0)
(155.398 0 0)
(156.774 0 0)
(158.145 0 0)
(159.51 0 0)
(160.869 0 0)
(162.222 0 0)
(163.57 0 0)
(164.911 0 0)
(166.247 0 0)
(167.575 0 0)
(168.904 0 0)
(170.206 0 0)
(171.565 0 0)
(172.725 0 0)
(174.471 0 0)
(169.388 0 0)
(165.992 0 0)
(162.493 0 0)
(158.886 0 0)
(155.166 0 0)
(151.331 0 0)
(147.378 0 0)
(143.312 0 0)
(139.141 0 0)
(134.885 0 0)
(130.581 0 0)
(126.286 0 0)
(122.085 0 0)
(118.081 0 0)
(114.391 0 0)
(111.119 0 0)
(108.339 0 0)
(106.09 0 0)
(104.368 0 0)
(103.141 0 0)
(102.355 0 0)
(101.953 0 0)
(101.875 0 0)
(102.067 0 0)
(102.482 0 0)
(103.079 0 0)
(103.826 0 0)
(104.696 0 0)
(105.667 0 0)
(106.72 0 0)
(107.841 0 0)
(109.018 0 0)
(110.241 0 0)
(111.503 0 0)
(112.796 0 0)
(114.115 0 0)
(115.455 0 0)
(116.813 0 0)
(118.185 0 0)
(119.569 0 0)
(120.962 0 0)
(122.362 0 0)
(123.767 0 0)
(125.177 0 0)
(126.589 0 0)
(128.003 0 0)
(129.417 0 0)
(130.832 0 0)
(132.245 0 0)
(133.657 0 0)
(135.067 0 0)
(136.475 0 0)
(137.879 0 0)
(139.28 0 0)
(140.678 0 0)
(142.071 0 0)
(143.461 0 0)
(144.846 0 0)
(146.226 0 0)
(147.602 0 0)
(148.973 0 0)
(150.338 0 0)
(151.699 0 0)
(153.054 0 0)
(154.404 0 0)
(155.748 0 0)
(157.087 0 0)
(158.421 0 0)
(159.748 0 0)
(161.071 0 0)
(162.387 0 0)
(163.697 0 0)
(165.003 0 0)
(166.3 0 0)
(167.599 0 0)
(168.871 0 0)
(170.198 0 0)
(171.335 0 0)
(173.031 0 0)
(166.158 0 0)
(162.762 0 0)
(159.264 0 0)
(155.658 0 0)
(151.943 0 0)
(148.117 0 0)
(144.181 0 0)
(140.143 0 0)
(136.018 0 0)
(131.835 0 0)
(127.641 0 0)
(123.505 0 0)
(119.519 0 0)
(115.788 0 0)
(112.415 0 0)
(109.485 0 0)
(107.049 0 0)
(105.12 0 0)
(103.681 0 0)
(102.692 0 0)
(102.098 0 0)
(101.845 0 0)
(101.879 0 0)
(102.152 0 0)
(102.623 0 0)
(103.256 0 0)
(104.023 0 0)
(104.9 0 0)
(105.869 0 0)
(106.912 0 0)
(108.017 0 0)
(109.173 0 0)
(110.372 0 0)
(111.607 0 0)
(112.871 0 0)
(114.159 0 0)
(115.467 0 0)
(116.791 0 0)
(118.13 0 0)
(119.479 0 0)
(120.837 0 0)
(122.201 0 0)
(123.572 0 0)
(124.946 0 0)
(126.322 0 0)
(127.701 0 0)
(129.08 0 0)
(130.459 0 0)
(131.838 0 0)
(133.215 0 0)
(134.59 0 0)
(135.963 0 0)
(137.333 0 0)
(138.7 0 0)
(140.064 0 0)
(141.424 0 0)
(142.78 0 0)
(144.132 0 0)
(145.479 0 0)
(146.822 0 0)
(148.16 0 0)
(149.494 0 0)
(150.822 0 0)
(152.146 0 0)
(153.464 0 0)
(154.777 0 0)
(156.085 0 0)
(157.387 0 0)
(158.684 0 0)
(159.976 0 0)
(161.262 0 0)
(162.542 0 0)
(163.818 0 0)
(165.086 0 0)
(166.354 0 0)
(167.598 0 0)
(168.894 0 0)
(170.008 0 0)
(171.655 0 0)
(162.859 0 0)
(159.461 0 0)
(155.962 0 0)
(152.359 0 0)
(148.65 0 0)
(144.837 0 0)
(140.924 0 0)
(136.925 0 0)
(132.862 0 0)
(128.775 0 0)
(124.721 0 0)
(120.78 0 0)
(117.045 0 0)
(113.616 0 0)
(110.58 0 0)
(107.998 0 0)
(105.898 0 0)
(104.275 0 0)
(103.1 0 0)
(102.329 0 0)
(101.91 0 0)
(101.792 0 0)
(101.927 0 0)
(102.273 0 0)
(102.794 0 0)
(103.459 0 0)
(104.243 0 0)
(105.127 0 0)
(106.092 0 0)
(107.125 0 0)
(108.214 0 0)
(109.351 0 0)
(110.526 0 0)
(111.735 0 0)
(112.97 0 0)
(114.228 0 0)
(115.505 0 0)
(116.798 0 0)
(118.103 0 0)
(119.419 0 0)
(120.743 0 0)
(122.073 0 0)
(123.409 0 0)
(124.749 0 0)
(126.091 0 0)
(127.435 0 0)
(128.78 0 0)
(130.125 0 0)
(131.469 0 0)
(132.812 0 0)
(134.154 0 0)
(135.493 0 0)
(136.83 0 0)
(138.164 0 0)
(139.494 0 0)
(140.821 0 0)
(142.145 0 0)
(143.464 0 0)
(144.78 0 0)
(146.091 0 0)
(147.397 0 0)
(148.699 0 0)
(149.996 0 0)
(151.289 0 0)
(152.576 0 0)
(153.858 0 0)
(155.136 0 0)
(156.408 0 0)
(157.675 0 0)
(158.936 0 0)
(160.193 0 0)
(161.443 0 0)
(162.689 0 0)
(163.928 0 0)
(165.167 0 0)
(166.383 0 0)
(167.648 0 0)
(168.739 0 0)
(170.343 0 0)
(159.534 0 0)
(156.135 0 0)
(152.637 0 0)
(149.039 0 0)
(145.341 0 0)
(141.547 0 0)
(137.668 0 0)
(133.723 0 0)
(129.744 0 0)
(125.781 0 0)
(121.9 0 0)
(118.187 0 0)
(114.733 0 0)
(111.625 0 0)
(108.931 0 0)
(106.688 0 0)
(104.905 0 0)
(103.564 0 0)
(102.628 0 0)
(102.053 0 0)
(101.789 0 0)
(101.789 0 0)
(102.012 0 0)
(102.422 0 0)
(102.985 0 0)
(103.677 0 0)
(104.476 0 0)
(105.363 0 0)
(106.324 0 0)
(107.346 0 0)
(108.42 0 0)
(109.536 0 0)
(110.689 0 0)
(111.872 0 0)
(113.08 0 0)
(114.309 0 0)
(115.556 0 0)
(116.818 0 0)
(118.091 0 0)
(119.374 0 0)
(120.666 0 0)
(121.963 0 0)
(123.266 0 0)
(124.572 0 0)
(125.881 0 0)
(127.192 0 0)
(128.503 0 0)
(129.815 0 0)
(131.126 0 0)
(132.436 0 0)
(133.744 0 0)
(135.051 0 0)
(136.355 0 0)
(137.657 0 0)
(138.955 0 0)
(140.25 0 0)
(141.542 0 0)
(142.83 0 0)
(144.114 0 0)
(145.393 0 0)
(146.669 0 0)
(147.94 0 0)
(149.207 0 0)
(150.468 0 0)
(151.726 0 0)
(152.978 0 0)
(154.225 0 0)
(155.468 0 0)
(156.705 0 0)
(157.937 0 0)
(159.165 0 0)
(160.386 0 0)
(161.604 0 0)
(162.814 0 0)
(164.024 0 0)
(165.212 0 0)
(166.448 0 0)
(167.514 0 0)
(169.077 0 0)
(156.207 0 0)
(152.808 0 0)
(149.314 0 0)
(145.725 0 0)
(142.044 0 0)
(138.28 0 0)
(134.45 0 0)
(130.579 0 0)
(126.71 0 0)
(122.901 0 0)
(119.226 0 0)
(115.772 0 0)
(112.62 0 0)
(109.841 0 0)
(107.482 0 0)
(105.561 0 0)
(104.07 0 0)
(102.983 0 0)
(102.26 0 0)
(101.855 0 0)
(101.726 0 0)
(101.829 0 0)
(102.128 0 0)
(102.591 0 0)
(103.191 0 0)
(103.905 0 0)
(104.714 0 0)
(105.602 0 0)
(106.558 0 0)
(107.568 0 0)
(108.626 0 0)
(109.723 0 0)
(110.854 0 0)
(112.012 0 0)
(113.193 0 0)
(114.394 0 0)
(115.612 0 0)
(116.843 0 0)
(118.086 0 0)
(119.338 0 0)
(120.597 0 0)
(121.863 0 0)
(123.133 0 0)
(124.407 0 0)
(125.684 0 0)
(126.962 0 0)
(128.241 0 0)
(129.52 0 0)
(130.799 0 0)
(132.077 0 0)
(133.353 0 0)
(134.628 0 0)
(135.901 0 0)
(137.171 0 0)
(138.438 0 0)
(139.702 0 0)
(140.962 0 0)
(142.219 0 0)
(143.473 0 0)
(144.722 0 0)
(145.967 0 0)
(147.208 0 0)
(148.445 0 0)
(149.677 0 0)
(150.905 0 0)
(152.127 0 0)
(153.346 0 0)
(154.559 0 0)
(155.767 0 0)
(156.971 0 0)
(158.17 0 0)
(159.363 0 0)
(160.552 0 0)
(161.734 0 0)
(162.916 0 0)
(164.077 0 0)
(165.283 0 0)
(166.327 0 0)
(167.85 0 0)
(152.887 0 0)
(149.492 0 0)
(146.007 0 0)
(142.434 0 0)
(138.78 0 0)
(135.06 0 0)
(131.295 0 0)
(127.523 0 0)
(123.792 0 0)
(120.17 0 0)
(116.733 0 0)
(113.56 0 0)
(110.722 0 0)
(108.27 0 0)
(106.232 0 0)
(104.609 0 0)
(103.383 0 0)
(102.522 0 0)
(101.984 0 0)
(101.728 0 0)
(101.715 0 0)
(101.906 0 0)
(102.269 0 0)
(102.778 0 0)
(103.407 0 0)
(104.138 0 0)
(104.955 0 0)
(105.843 0 0)
(106.791 0 0)
(107.789 0 0)
(108.831 0 0)
(109.908 0 0)
(111.016 0 0)
(112.15 0 0)
(113.305 0 0)
(114.479 0 0)
(115.668 0 0)
(116.87 0 0)
(118.083 0 0)
(119.304 0 0)
(120.533 0 0)
(121.768 0 0)
(123.007 0 0)
(124.249 0 0)
(125.494 0 0)
(126.741 0 0)
(127.989 0 0)
(129.237 0 0)
(130.484 0 0)
(131.731 0 0)
(132.976 0 0)
(134.22 0 0)
(135.462 0 0)
(136.701 0 0)
(137.938 0 0)
(139.171 0 0)
(140.402 0 0)
(141.629 0 0)
(142.852 0 0)
(144.072 0 0)
(145.287 0 0)
(146.499 0 0)
(147.706 0 0)
(148.91 0 0)
(150.108 0 0)
(151.303 0 0)
(152.492 0 0)
(153.677 0 0)
(154.857 0 0)
(156.033 0 0)
(157.203 0 0)
(158.369 0 0)
(159.53 0 0)
(160.685 0 0)
(161.839 0 0)
(162.973 0 0)
(164.151 0 0)
(165.171 0 0)
(166.657 0 0)
(149.581 0 0)
(146.195 0 0)
(142.724 0 0)
(139.177 0 0)
(135.563 0 0)
(131.903 0 0)
(128.227 0 0)
(124.58 0 0)
(121.02 0 0)
(117.615 0 0)
(114.44 0 0)
(111.564 0 0)
(109.042 0 0)
(106.907 0 0)
(105.17 0 0)
(103.819 0 0)
(102.829 0 0)
(102.166 0 0)
(101.79 0 0)
(101.663 0 0)
(101.748 0 0)
(102.014 0 0)
(102.432 0 0)
(102.977 0 0)
(103.631 0 0)
(104.376 0 0)
(105.196 0 0)
(106.081 0 0)
(107.021 0 0)
(108.007 0 0)
(109.032 0 0)
(110.09 0 0)
(111.176 0 0)
(112.285 0 0)
(113.415 0 0)
(114.562 0 0)
(115.724 0 0)
(116.898 0 0)
(118.081 0 0)
(119.273 0 0)
(120.472 0 0)
(121.677 0 0)
(122.885 0 0)
(124.097 0 0)
(125.312 0 0)
(126.528 0 0)
(127.745 0 0)
(128.963 0 0)
(130.18 0 0)
(131.396 0 0)
(132.611 0 0)
(133.825 0 0)
(135.037 0 0)
(136.246 0 0)
(137.453 0 0)
(138.657 0 0)
(139.858 0 0)
(141.056 0 0)
(142.25 0 0)
(143.441 0 0)
(144.628 0 0)
(145.811 0 0)
(146.99 0 0)
(148.164 0 0)
(149.335 0 0)
(150.501 0 0)
(151.663 0 0)
(152.82 0 0)
(153.973 0 0)
(155.121 0 0)
(156.264 0 0)
(157.402 0 0)
(158.536 0 0)
(159.664 0 0)
(160.792 0 0)
(161.899 0 0)
(163.05 0 0)
(164.047 0 0)
(165.495 0 0)
(146.294 0 0)
(142.922 0 0)
(139.476 0 0)
(135.965 0 0)
(132.407 0 0)
(128.829 0 0)
(125.268 0 0)
(121.776 0 0)
(118.416 0 0)
(115.255 0 0)
(112.36 0 0)
(109.788 0 0)
(107.576 0 0)
(105.741 0 0)
(104.28 0 0)
(103.174 0 0)
(102.393 0 0)
(101.903 0 0)
(101.667 0 0)
(101.65 0 0)
(101.82 0 0)
(102.148 0 0)
(102.612 0 0)
(103.188 0 0)
(103.861 0 0)
(104.615 0 0)
(105.438 0 0)
(106.318 0 0)
(107.249 0 0)
(108.221 0 0)
(109.229 0 0)
(110.267 0 0)
(111.331 0 0)
(112.418 0 0)
(113.523 0 0)
(114.644 0 0)
(115.778 0 0)
(116.924 0 0)
(118.08 0 0)
(119.243 0 0)
(120.413 0 0)
(121.588 0 0)
(122.768 0 0)
(123.95 0 0)
(125.135 0 0)
(126.322 0 0)
(127.509 0 0)
(128.697 0 0)
(129.885 0 0)
(131.072 0 0)
(132.257 0 0)
(133.442 0 0)
(134.624 0 0)
(135.805 0 0)
(136.983 0 0)
(138.158 0 0)
(139.33 0 0)
(140.5 0 0)
(141.666 0 0)
(142.828 0 0)
(143.987 0 0)
(145.142 0 0)
(146.293 0 0)
(147.44 0 0)
(148.583 0 0)
(149.722 0 0)
(150.857 0 0)
(151.987 0 0)
(153.113 0 0)
(154.234 0 0)
(155.35 0 0)
(156.462 0 0)
(157.57 0 0)
(158.671 0 0)
(159.772 0 0)
(160.854 0 0)
(161.977 0 0)
(162.952 0 0)
(164.364 0 0)
(143.032 0 0)
(139.683 0 0)
(136.272 0 0)
(132.813 0 0)
(129.331 0 0)
(125.858 0 0)
(122.44 0 0)
(119.133 0 0)
(116 0 0)
(113.103 0 0)
(110.498 0 0)
(108.227 0 0)
(106.312 0 0)
(104.756 0 0)
(103.545 0 0)
(102.657 0 0)
(102.06 0 0)
(101.721 0 0)
(101.605 0 0)
(101.682 0 0)
(101.923 0 0)
(102.305 0 0)
(102.806 0 0)
(103.408 0 0)
(104.096 0 0)
(104.856 0 0)
(105.678 0 0)
(106.553 0 0)
(107.473 0 0)
(108.431 0 0)
(109.422 0 0)
(110.44 0 0)
(111.483 0 0)
(112.547 0 0)
(113.627 0 0)
(114.723 0 0)
(115.832 0 0)
(116.951 0 0)
(118.079 0 0)
(119.214 0 0)
(120.356 0 0)
(121.503 0 0)
(122.654 0 0)
(123.808 0 0)
(124.964 0 0)
(126.122 0 0)
(127.28 0 0)
(128.44 0 0)
(129.598 0 0)
(130.757 0 0)
(131.914 0 0)
(133.07 0 0)
(134.224 0 0)
(135.376 0 0)
(136.526 0 0)
(137.674 0 0)
(138.818 0 0)
(139.96 0 0)
(141.098 0 0)
(142.233 0 0)
(143.365 0 0)
(144.492 0 0)
(145.617 0 0)
(146.737 0 0)
(147.853 0 0)
(148.965 0 0)
(150.073 0 0)
(151.177 0 0)
(152.276 0 0)
(153.371 0 0)
(154.462 0 0)
(155.547 0 0)
(156.629 0 0)
(157.705 0 0)
(158.78 0 0)
(159.837 0 0)
(160.933 0 0)
(161.886 0 0)
(163.263 0 0)
(139.803 0 0)
(136.487 0 0)
(133.126 0 0)
(129.738 0 0)
(126.353 0 0)
(123.013 0 0)
(119.766 0 0)
(116.671 0 0)
(113.786 0 0)
(111.166 0 0)
(108.853 0 0)
(106.874 0 0)
(105.237 0 0)
(103.935 0 0)
(102.95 0 0)
(102.254 0 0)
(101.817 0 0)
(101.607 0 0)
(101.594 0 0)
(101.752 0 0)
(102.054 0 0)
(102.481 0 0)
(103.013 0 0)
(103.635 0 0)
(104.333 0 0)
(105.097 0 0)
(105.917 0 0)
(106.785 0 0)
(107.693 0 0)
(108.637 0 0)
(109.61 0 0)
(110.61 0 0)
(111.632 0 0)
(112.672 0 0)
(113.73 0 0)
(114.801 0 0)
(115.884 0 0)
(116.977 0 0)
(118.078 0 0)
(119.187 0 0)
(120.301 0 0)
(121.42 0 0)
(122.543 0 0)
(123.67 0 0)
(124.798 0 0)
(125.928 0 0)
(127.059 0 0)
(128.19 0 0)
(129.321 0 0)
(130.451 0 0)
(131.581 0 0)
(132.709 0 0)
(133.836 0 0)
(134.961 0 0)
(136.083 0 0)
(137.203 0 0)
(138.321 0 0)
(139.435 0 0)
(140.547 0 0)
(141.655 0 0)
(142.76 0 0)
(143.861 0 0)
(144.959 0 0)
(146.053 0 0)
(147.143 0 0)
(148.229 0 0)
(149.311 0 0)
(150.389 0 0)
(151.463 0 0)
(152.532 0 0)
(153.597 0 0)
(154.658 0 0)
(155.714 0 0)
(156.765 0 0)
(157.815 0 0)
(158.847 0 0)
(159.918 0 0)
(160.849 0 0)
(162.191 0 0)
(136.616 0 0)
(133.348 0 0)
(130.053 0 0)
(126.757 0 0)
(123.496 0 0)
(120.315 0 0)
(117.267 0 0)
(114.406 0 0)
(111.784 0 0)
(109.445 0 0)
(107.417 0 0)
(105.714 0 0)
(104.334 0 0)
(103.262 0 0)
(102.476 0 0)
(101.948 0 0)
(101.65 0 0)
(101.552 0 0)
(101.628 0 0)
(101.853 0 0)
(102.207 0 0)
(102.671 0 0)
(103.228 0 0)
(103.866 0 0)
(104.573 0 0)
(105.338 0 0)
(106.154 0 0)
(107.013 0 0)
(107.91 0 0)
(108.839 0 0)
(109.795 0 0)
(110.776 0 0)
(111.777 0 0)
(112.795 0 0)
(113.829 0 0)
(114.876 0 0)
(115.934 0 0)
(117.002 0 0)
(118.077 0 0)
(119.16 0 0)
(120.248 0 0)
(121.34 0 0)
(122.437 0 0)
(123.536 0 0)
(124.637 0 0)
(125.74 0 0)
(126.844 0 0)
(127.948 0 0)
(129.052 0 0)
(130.155 0 0)
(131.258 0 0)
(132.359 0 0)
(133.459 0 0)
(134.557 0 0)
(135.653 0 0)
(136.747 0 0)
(137.838 0 0)
(138.926 0 0)
(140.012 0 0)
(141.094 0 0)
(142.173 0 0)
(143.248 0 0)
(144.32 0 0)
(145.389 0 0)
(146.453 0 0)
(147.514 0 0)
(148.571 0 0)
(149.624 0 0)
(150.672 0 0)
(151.717 0 0)
(152.757 0 0)
(153.793 0 0)
(154.824 0 0)
(155.85 0 0)
(156.876 0 0)
(157.884 0 0)
(158.929 0 0)
(159.84 0 0)
(161.147 0 0)
(133.485 0 0)
(130.28 0 0)
(127.072 0 0)
(123.893 0 0)
(120.782 0 0)
(117.787 0 0)
(114.959 0 0)
(112.349 0 0)
(109.997 0 0)
(107.936 0 0)
(106.18 0 0)
(104.734 0 0)
(103.587 0 0)
(102.72 0 0)
(102.109 0 0)
(101.728 0 0)
(101.55 0 0)
(101.548 0 0)
(101.699 0 0)
(101.982 0 0)
(102.379 0 0)
(102.873 0 0)
(103.451 0 0)
(104.101 0 0)
(104.813 0 0)
(105.578 0 0)
(106.388 0 0)
(107.238 0 0)
(108.123 0 0)
(109.037 0 0)
(109.976 0 0)
(110.937 0 0)
(111.918 0 0)
(112.915 0 0)
(113.926 0 0)
(114.95 0 0)
(115.984 0 0)
(117.027 0 0)
(118.077 0 0)
(119.134 0 0)
(120.196 0 0)
(121.263 0 0)
(122.333 0 0)
(123.406 0 0)
(124.481 0 0)
(125.558 0 0)
(126.635 0 0)
(127.713 0 0)
(128.791 0 0)
(129.868 0 0)
(130.945 0 0)
(132.02 0 0)
(133.094 0 0)
(134.166 0 0)
(135.236 0 0)
(136.304 0 0)
(137.369 0 0)
(138.432 0 0)
(139.492 0 0)
(140.549 0 0)
(141.603 0 0)
(142.653 0 0)
(143.7 0 0)
(144.744 0 0)
(145.783 0 0)
(146.819 0 0)
(147.852 0 0)
(148.88 0 0)
(149.904 0 0)
(150.924 0 0)
(151.94 0 0)
(152.952 0 0)
(153.959 0 0)
(154.961 0 0)
(155.963 0 0)
(156.947 0 0)
(157.968 0 0)
(158.858 0 0)
(160.132 0 0)
(130.424 0 0)
(127.303 0 0)
(124.205 0 0)
(121.167 0 0)
(118.231 0 0)
(115.445 0 0)
(112.856 0 0)
(110.504 0 0)
(108.422 0 0)
(106.628 0 0)
(105.128 0 0)
(103.916 0 0)
(102.978 0 0)
(102.292 0 0)
(101.835 0 0)
(101.581 0 0)
(101.505 0 0)
(101.586 0 0)
(101.801 0 0)
(102.133 0 0)
(102.566 0 0)
(103.086 0 0)
(103.68 0 0)
(104.339 0 0)
(105.053 0 0)
(105.816 0 0)
(106.62 0 0)
(107.46 0 0)
(108.332 0 0)
(109.23 0 0)
(110.153 0 0)
(111.095 0 0)
(112.056 0 0)
(113.032 0 0)
(114.021 0 0)
(115.021 0 0)
(116.032 0 0)
(117.051 0 0)
(118.077 0 0)
(119.109 0 0)
(120.147 0 0)
(121.188 0 0)
(122.233 0 0)
(123.281 0 0)
(124.33 0 0)
(125.381 0 0)
(126.433 0 0)
(127.486 0 0)
(128.538 0 0)
(129.59 0 0)
(130.641 0 0)
(131.691 0 0)
(132.739 0 0)
(133.786 0 0)
(134.831 0 0)
(135.874 0 0)
(136.915 0 0)
(137.953 0 0)
(138.988 0 0)
(140.02 0 0)
(141.049 0 0)
(142.075 0 0)
(143.098 0 0)
(144.117 0 0)
(145.132 0 0)
(146.144 0 0)
(147.153 0 0)
(148.157 0 0)
(149.157 0 0)
(150.154 0 0)
(151.146 0 0)
(152.134 0 0)
(153.118 0 0)
(154.097 0 0)
(155.075 0 0)
(156.036 0 0)
(157.033 0 0)
(157.903 0 0)
(159.144 0 0)
(127.453 0 0)
(124.436 0 0)
(121.472 0 0)
(118.6 0 0)
(115.863 0 0)
(113.304 0 0)
(110.963 0 0)
(108.872 0 0)
(107.051 0 0)
(105.509 0 0)
(104.244 0 0)
(103.244 0 0)
(102.492 0 0)
(101.965 0 0)
(101.641 0 0)
(101.496 0 0)
(101.509 0 0)
(101.66 0 0)
(101.93 0 0)
(102.303 0 0)
(102.765 0 0)
(103.305 0 0)
(103.912 0 0)
(104.577 0 0)
(105.293 0 0)
(106.051 0 0)
(106.848 0 0)
(107.678 0 0)
(108.536 0 0)
(109.42 0 0)
(110.325 0 0)
(111.25 0 0)
(112.19 0 0)
(113.145 0 0)
(114.113 0 0)
(115.092 0 0)
(116.079 0 0)
(117.075 0 0)
(118.077 0 0)
(119.086 0 0)
(120.099 0 0)
(121.116 0 0)
(122.136 0 0)
(123.159 0 0)
(124.184 0 0)
(125.21 0 0)
(126.237 0 0)
(127.265 0 0)
(128.293 0 0)
(129.32 0 0)
(130.346 0 0)
(131.372 0 0)
(132.396 0 0)
(133.418 0 0)
(134.439 0 0)
(135.457 0 0)
(136.473 0 0)
(137.487 0 0)
(138.498 0 0)
(139.506 0 0)
(140.512 0 0)
(141.514 0 0)
(142.513 0 0)
(143.508 0 0)
(144.5 0 0)
(145.489 0 0)
(146.473 0 0)
(147.454 0 0)
(148.432 0 0)
(149.405 0 0)
(150.374 0 0)
(151.339 0 0)
(152.3 0 0)
(153.256 0 0)
(154.211 0 0)
(155.15 0 0)
(156.123 0 0)
(156.974 0 0)
(158.183 0 0)
(124.59 0 0)
(121.702 0 0)
(118.896 0 0)
(116.212 0 0)
(113.691 0 0)
(111.37 0 0)
(109.281 0 0)
(107.445 0 0)
(105.872 0 0)
(104.564 0 0)
(103.512 0 0)
(102.701 0 0)
(102.112 0 0)
(101.724 0 0)
(101.516 0 0)
(101.465 0 0)
(101.554 0 0)
(101.764 0 0)
(102.08 0 0)
(102.487 0 0)
(102.975 0 0)
(103.531 0 0)
(104.148 0 0)
(104.816 0 0)
(105.531 0 0)
(106.285 0 0)
(107.073 0 0)
(107.892 0 0)
(108.737 0 0)
(109.605 0 0)
(110.494 0 0)
(111.4 0 0)
(112.322 0 0)
(113.256 0 0)
(114.203 0 0)
(115.16 0 0)
(116.125 0 0)
(117.098 0 0)
(118.078 0 0)
(119.063 0 0)
(120.053 0 0)
(121.046 0 0)
(122.043 0 0)
(123.042 0 0)
(124.043 0 0)
(125.045 0 0)
(126.048 0 0)
(127.051 0 0)
(128.055 0 0)
(129.058 0 0)
(130.06 0 0)
(131.062 0 0)
(132.062 0 0)
(133.061 0 0)
(134.058 0 0)
(135.052 0 0)
(136.045 0 0)
(137.035 0 0)
(138.023 0 0)
(139.008 0 0)
(139.99 0 0)
(140.969 0 0)
(141.945 0 0)
(142.917 0 0)
(143.886 0 0)
(144.852 0 0)
(145.814 0 0)
(146.772 0 0)
(147.726 0 0)
(148.677 0 0)
(149.624 0 0)
(150.566 0 0)
(151.505 0 0)
(152.439 0 0)
(153.372 0 0)
(154.289 0 0)
(155.238 0 0)
(156.07 0 0)
(157.248 0 0)
(121.857 0 0)
(119.12 0 0)
(116.494 0 0)
(114.017 0 0)
(111.725 0 0)
(109.647 0 0)
(107.805 0 0)
(106.213 0 0)
(104.872 0 0)
(103.777 0 0)
(102.915 0 0)
(102.272 0 0)
(101.826 0 0)
(101.558 0 0)
(101.449 0 0)
(101.48 0 0)
(101.633 0 0)
(101.894 0 0)
(102.248 0 0)
(102.684 0 0)
(103.192 0 0)
(103.761 0 0)
(104.384 0 0)
(105.055 0 0)
(105.767 0 0)
(106.515 0 0)
(107.294 0 0)
(108.102 0 0)
(108.934 0 0)
(109.787 0 0)
(110.659 0 0)
(111.547 0 0)
(112.449 0 0)
(113.365 0 0)
(114.291 0 0)
(115.226 0 0)
(116.17 0 0)
(117.121 0 0)
(118.079 0 0)
(119.041 0 0)
(120.008 0 0)
(120.978 0 0)
(121.952 0 0)
(122.928 0 0)
(123.905 0 0)
(124.884 0 0)
(125.864 0 0)
(126.844 0 0)
(127.824 0 0)
(128.804 0 0)
(129.783 0 0)
(130.762 0 0)
(131.739 0 0)
(132.714 0 0)
(133.688 0 0)
(134.66 0 0)
(135.63 0 0)
(136.597 0 0)
(137.562 0 0)
(138.524 0 0)
(139.483 0 0)
(140.44 0 0)
(141.393 0 0)
(142.343 0 0)
(143.29 0 0)
(144.233 0 0)
(145.173 0 0)
(146.109 0 0)
(147.041 0 0)
(147.97 0 0)
(148.895 0 0)
(149.815 0 0)
(150.732 0 0)
(151.644 0 0)
(152.555 0 0)
(153.451 0 0)
(154.378 0 0)
(155.191 0 0)
(156.339 0 0)
(119.275 0 0)
(116.71 0 0)
(114.283 0 0)
(112.026 0 0)
(109.967 0 0)
(108.13 0 0)
(106.526 0 0)
(105.162 0 0)
(104.033 0 0)
(103.13 0 0)
(102.438 0 0)
(101.941 0 0)
(101.62 0 0)
(101.456 0 0)
(101.433 0 0)
(101.533 0 0)
(101.741 0 0)
(102.045 0 0)
(102.431 0 0)
(102.891 0 0)
(103.414 0 0)
(103.994 0 0)
(104.621 0 0)
(105.292 0 0)
(106 0 0)
(106.742 0 0)
(107.512 0 0)
(108.308 0 0)
(109.126 0 0)
(109.964 0 0)
(110.819 0 0)
(111.69 0 0)
(112.574 0 0)
(113.47 0 0)
(114.376 0 0)
(115.291 0 0)
(116.214 0 0)
(117.144 0 0)
(118.08 0 0)
(119.02 0 0)
(119.965 0 0)
(120.913 0 0)
(121.864 0 0)
(122.817 0 0)
(123.773 0 0)
(124.729 0 0)
(125.686 0 0)
(126.643 0 0)
(127.601 0 0)
(128.558 0 0)
(129.515 0 0)
(130.471 0 0)
(131.425 0 0)
(132.378 0 0)
(133.329 0 0)
(134.279 0 0)
(135.226 0 0)
(136.172 0 0)
(137.114 0 0)
(138.054 0 0)
(138.992 0 0)
(139.926 0 0)
(140.857 0 0)
(141.786 0 0)
(142.711 0 0)
(143.632 0 0)
(144.55 0 0)
(145.465 0 0)
(146.376 0 0)
(147.283 0 0)
(148.186 0 0)
(149.085 0 0)
(149.981 0 0)
(150.872 0 0)
(151.762 0 0)
(152.637 0 0)
(153.541 0 0)
(154.337 0 0)
(155.455 0 0)
(116.863 0 0)
(114.489 0 0)
(112.272 0 0)
(110.241 0 0)
(108.415 0 0)
(106.81 0 0)
(105.431 0 0)
(104.277 0 0)
(103.34 0 0)
(102.608 0 0)
(102.065 0 0)
(101.696 0 0)
(101.483 0 0)
(101.409 0 0)
(101.459 0 0)
(101.618 0 0)
(101.873 0 0)
(102.213 0 0)
(102.627 0 0)
(103.106 0 0)
(103.642 0 0)
(104.228 0 0)
(104.858 0 0)
(105.528 0 0)
(106.231 0 0)
(106.965 0 0)
(107.725 0 0)
(108.509 0 0)
(109.314 0 0)
(110.137 0 0)
(110.976 0 0)
(111.83 0 0)
(112.696 0 0)
(113.573 0 0)
(114.459 0 0)
(115.355 0 0)
(116.257 0 0)
(117.166 0 0)
(118.081 0 0)
(119 0 0)
(119.923 0 0)
(120.85 0 0)
(121.779 0 0)
(122.711 0 0)
(123.644 0 0)
(124.578 0 0)
(125.513 0 0)
(126.449 0 0)
(127.385 0 0)
(128.32 0 0)
(129.254 0 0)
(130.188 0 0)
(131.121 0 0)
(132.052 0 0)
(132.982 0 0)
(133.909 0 0)
(134.835 0 0)
(135.759 0 0)
(136.68 0 0)
(137.598 0 0)
(138.514 0 0)
(139.427 0 0)
(140.337 0 0)
(141.244 0 0)
(142.148 0 0)
(143.049 0 0)
(143.946 0 0)
(144.839 0 0)
(145.729 0 0)
(146.615 0 0)
(147.498 0 0)
(148.376 0 0)
(149.251 0 0)
(150.121 0 0)
(150.99 0 0)
(151.845 0 0)
(152.728 0 0)
(153.506 0 0)
(154.595 0 0)
(114.636 0 0)
(112.465 0 0)
(110.467 0 0)
(108.661 0 0)
(107.062 0 0)
(105.676 0 0)
(104.505 0 0)
(103.541 0 0)
(102.776 0 0)
(102.195 0 0)
(101.783 0 0)
(101.525 0 0)
(101.406 0 0)
(101.409 0 0)
(101.522 0 0)
(101.731 0 0)
(102.025 0 0)
(102.395 0 0)
(102.831 0 0)
(103.326 0 0)
(103.872 0 0)
(104.463 0 0)
(105.094 0 0)
(105.761 0 0)
(106.459 0 0)
(107.185 0 0)
(107.935 0 0)
(108.707 0 0)
(109.498 0 0)
(110.306 0 0)
(111.129 0 0)
(111.966 0 0)
(112.814 0 0)
(113.673 0 0)
(114.54 0 0)
(115.416 0 0)
(116.299 0 0)
(117.188 0 0)
(118.082 0 0)
(118.981 0 0)
(119.883 0 0)
(120.789 0 0)
(121.697 0 0)
(122.607 0 0)
(123.519 0 0)
(124.432 0 0)
(125.346 0 0)
(126.26 0 0)
(127.175 0 0)
(128.089 0 0)
(129.002 0 0)
(129.914 0 0)
(130.826 0 0)
(131.736 0 0)
(132.644 0 0)
(133.551 0 0)
(134.456 0 0)
(135.358 0 0)
(136.258 0 0)
(137.156 0 0)
(138.051 0 0)
(138.943 0 0)
(139.833 0 0)
(140.719 0 0)
(141.602 0 0)
(142.482 0 0)
(143.358 0 0)
(144.231 0 0)
(145.101 0 0)
(145.967 0 0)
(146.829 0 0)
(147.687 0 0)
(148.542 0 0)
(149.392 0 0)
(150.241 0 0)
(151.076 0 0)
(151.938 0 0)
(152.698 0 0)
(153.759 0 0)
(112.605 0 0)
(110.645 0 0)
(108.866 0 0)
(107.28 0 0)
(105.895 0 0)
(104.714 0 0)
(103.732 0 0)
(102.939 0 0)
(102.326 0 0)
(101.878 0 0)
(101.58 0 0)
(101.418 0 0)
(101.379 0 0)
(101.448 0 0)
(101.614 0 0)
(101.866 0 0)
(102.194 0 0)
(102.589 0 0)
(103.044 0 0)
(103.55 0 0)
(104.104 0 0)
(104.698 0 0)
(105.329 0 0)
(105.992 0 0)
(106.683 0 0)
(107.4 0 0)
(108.14 0 0)
(108.9 0 0)
(109.677 0 0)
(110.471 0 0)
(111.278 0 0)
(112.098 0 0)
(112.929 0 0)
(113.77 0 0)
(114.619 0 0)
(115.476 0 0)
(116.34 0 0)
(117.209 0 0)
(118.083 0 0)
(118.962 0 0)
(119.844 0 0)
(120.73 0 0)
(121.617 0 0)
(122.507 0 0)
(123.398 0 0)
(124.291 0 0)
(125.184 0 0)
(126.078 0 0)
(126.971 0 0)
(127.864 0 0)
(128.757 0 0)
(129.649 0 0)
(130.54 0 0)
(131.429 0 0)
(132.317 0 0)
(133.203 0 0)
(134.087 0 0)
(134.97 0 0)
(135.849 0 0)
(136.727 0 0)
(137.601 0 0)
(138.473 0 0)
(139.343 0 0)
(140.209 0 0)
(141.072 0 0)
(141.932 0 0)
(142.788 0 0)
(143.641 0 0)
(144.491 0 0)
(145.337 0 0)
(146.179 0 0)
(147.018 0 0)
(147.853 0 0)
(148.683 0 0)
(149.512 0 0)
(150.328 0 0)
(151.169 0 0)
(151.913 0 0)
(152.946 0 0)
(110.777 0 0)
(109.029 0 0)
(107.462 0 0)
(106.086 0 0)
(104.902 0 0)
(103.907 0 0)
(103.095 0 0)
(102.455 0 0)
(101.975 0 0)
(101.643 0 0)
(101.444 0 0)
(101.365 0 0)
(101.395 0 0)
(101.521 0 0)
(101.733 0 0)
(102.021 0 0)
(102.377 0 0)
(102.792 0 0)
(103.262 0 0)
(103.778 0 0)
(104.336 0 0)
(104.932 0 0)
(105.561 0 0)
(106.219 0 0)
(106.904 0 0)
(107.612 0 0)
(108.341 0 0)
(109.089 0 0)
(109.853 0 0)
(110.632 0 0)
(111.424 0 0)
(112.227 0 0)
(113.041 0 0)
(113.865 0 0)
(114.696 0 0)
(115.535 0 0)
(116.38 0 0)
(117.23 0 0)
(118.085 0 0)
(118.944 0 0)
(119.807 0 0)
(120.672 0 0)
(121.54 0 0)
(122.41 0 0)
(123.282 0 0)
(124.154 0 0)
(125.027 0 0)
(125.9 0 0)
(126.774 0 0)
(127.647 0 0)
(128.52 0 0)
(129.392 0 0)
(130.262 0 0)
(131.132 0 0)
(132 0 0)
(132.866 0 0)
(133.73 0 0)
(134.592 0 0)
(135.452 0 0)
(136.31 0 0)
(137.165 0 0)
(138.017 0 0)
(138.867 0 0)
(139.714 0 0)
(140.557 0 0)
(141.397 0 0)
(142.234 0 0)
(143.068 0 0)
(143.898 0 0)
(144.725 0 0)
(145.548 0 0)
(146.367 0 0)
(147.183 0 0)
(147.994 0 0)
(148.804 0 0)
(149.601 0 0)
(150.423 0 0)
(151.149 0 0)
(152.156 0 0)
(109.15 0 0)
(107.609 0 0)
(106.247 0 0)
(105.067 0 0)
(104.066 0 0)
(103.24 0 0)
(102.58 0 0)
(102.074 0 0)
(101.711 0 0)
(101.479 0 0)
(101.365 0 0)
(101.359 0 0)
(101.447 0 0)
(101.622 0 0)
(101.872 0 0)
(102.191 0 0)
(102.57 0 0)
(103.003 0 0)
(103.484 0 0)
(104.007 0 0)
(104.569 0 0)
(105.165 0 0)
(105.791 0 0)
(106.444 0 0)
(107.121 0 0)
(107.82 0 0)
(108.538 0 0)
(109.273 0 0)
(110.024 0 0)
(110.788 0 0)
(111.565 0 0)
(112.353 0 0)
(113.151 0 0)
(113.957 0 0)
(114.771 0 0)
(115.592 0 0)
(116.418 0 0)
(117.25 0 0)
(118.087 0 0)
(118.927 0 0)
(119.771 0 0)
(120.617 0 0)
(121.466 0 0)
(122.316 0 0)
(123.168 0 0)
(124.021 0 0)
(124.875 0 0)
(125.729 0 0)
(126.583 0 0)
(127.436 0 0)
(128.29 0 0)
(129.142 0 0)
(129.993 0 0)
(130.843 0 0)
(131.692 0 0)
(132.539 0 0)
(133.384 0 0)
(134.227 0 0)
(135.067 0 0)
(135.906 0 0)
(136.742 0 0)
(137.575 0 0)
(138.405 0 0)
(139.233 0 0)
(140.057 0 0)
(140.879 0 0)
(141.697 0 0)
(142.512 0 0)
(143.323 0 0)
(144.131 0 0)
(144.935 0 0)
(145.736 0 0)
(146.533 0 0)
(147.325 0 0)
(148.116 0 0)
(148.894 0 0)
(149.697 0 0)
(150.408 0 0)
(151.388 0 0)
(107.721 0 0)
(106.378 0 0)
(105.207 0 0)
(104.207 0 0)
(103.373 0 0)
(102.697 0 0)
(102.17 0 0)
(101.782 0 0)
(101.522 0 0)
(101.377 0 0)
(101.337 0 0)
(101.391 0 0)
(101.531 0 0)
(101.746 0 0)
(102.029 0 0)
(102.373 0 0)
(102.772 0 0)
(103.219 0 0)
(103.709 0 0)
(104.237 0 0)
(104.801 0 0)
(105.395 0 0)
(106.017 0 0)
(106.664 0 0)
(107.334 0 0)
(108.023 0 0)
(108.73 0 0)
(109.453 0 0)
(110.191 0 0)
(110.941 0 0)
(111.703 0 0)
(112.476 0 0)
(113.257 0 0)
(114.047 0 0)
(114.844 0 0)
(115.647 0 0)
(116.456 0 0)
(117.27 0 0)
(118.088 0 0)
(118.911 0 0)
(119.736 0 0)
(120.564 0 0)
(121.394 0 0)
(122.225 0 0)
(123.058 0 0)
(123.893 0 0)
(124.727 0 0)
(125.562 0 0)
(126.397 0 0)
(127.232 0 0)
(128.067 0 0)
(128.9 0 0)
(129.732 0 0)
(130.563 0 0)
(131.393 0 0)
(132.221 0 0)
(133.047 0 0)
(133.872 0 0)
(134.694 0 0)
(135.513 0 0)
(136.331 0 0)
(137.145 0 0)
(137.957 0 0)
(138.766 0 0)
(139.572 0 0)
(140.375 0 0)
(141.175 0 0)
(141.971 0 0)
(142.764 0 0)
(143.554 0 0)
(144.34 0 0)
(145.122 0 0)
(145.901 0 0)
(146.675 0 0)
(147.448 0 0)
(148.208 0 0)
(148.991 0 0)
(149.687 0 0)
(150.641 0 0)
(106.478 0 0)
(105.322 0 0)
(104.327 0 0)
(103.49 0 0)
(102.805 0 0)
(102.263 0 0)
(101.854 0 0)
(101.569 0 0)
(101.396 0 0)
(101.327 0 0)
(101.35 0 0)
(101.457 0 0)
(101.64 0 0)
(101.89 0 0)
(102.201 0 0)
(102.566 0 0)
(102.98 0 0)
(103.438 0 0)
(103.935 0 0)
(104.468 0 0)
(105.031 0 0)
(105.623 0 0)
(106.241 0 0)
(106.881 0 0)
(107.542 0 0)
(108.222 0 0)
(108.918 0 0)
(109.629 0 0)
(110.354 0 0)
(111.09 0 0)
(111.838 0 0)
(112.595 0 0)
(113.361 0 0)
(114.134 0 0)
(114.915 0 0)
(115.701 0 0)
(116.493 0 0)
(117.29 0 0)
(118.09 0 0)
(118.895 0 0)
(119.702 0 0)
(120.512 0 0)
(121.324 0 0)
(122.137 0 0)
(122.952 0 0)
(123.768 0 0)
(124.584 0 0)
(125.401 0 0)
(126.218 0 0)
(127.034 0 0)
(127.85 0 0)
(128.665 0 0)
(129.479 0 0)
(130.292 0 0)
(131.104 0 0)
(131.913 0 0)
(132.721 0 0)
(133.527 0 0)
(134.331 0 0)
(135.133 0 0)
(135.932 0 0)
(136.728 0 0)
(137.522 0 0)
(138.313 0 0)
(139.101 0 0)
(139.886 0 0)
(140.668 0 0)
(141.446 0 0)
(142.222 0 0)
(142.993 0 0)
(143.761 0 0)
(144.526 0 0)
(145.287 0 0)
(146.043 0 0)
(146.798 0 0)
(147.541 0 0)
(148.306 0 0)
(148.986 0 0)
(149.916 0 0)
(105.411 0 0)
(104.427 0 0)
(103.592 0 0)
(102.902 0 0)
(102.349 0 0)
(101.924 0 0)
(101.618 0 0)
(101.422 0 0)
(101.326 0 0)
(101.321 0 0)
(101.399 0 0)
(101.551 0 0)
(101.77 0 0)
(102.05 0 0)
(102.384 0 0)
(102.767 0 0)
(103.194 0 0)
(103.661 0 0)
(104.163 0 0)
(104.697 0 0)
(105.26 0 0)
(105.849 0 0)
(106.461 0 0)
(107.095 0 0)
(107.747 0 0)
(108.417 0 0)
(109.102 0 0)
(109.801 0 0)
(110.513 0 0)
(111.236 0 0)
(111.969 0 0)
(112.711 0 0)
(113.461 0 0)
(114.219 0 0)
(114.984 0 0)
(115.754 0 0)
(116.529 0 0)
(117.309 0 0)
(118.092 0 0)
(118.879 0 0)
(119.669 0 0)
(120.462 0 0)
(121.256 0 0)
(122.052 0 0)
(122.849 0 0)
(123.647 0 0)
(124.446 0 0)
(125.245 0 0)
(126.044 0 0)
(126.842 0 0)
(127.64 0 0)
(128.438 0 0)
(129.234 0 0)
(130.029 0 0)
(130.823 0 0)
(131.615 0 0)
(132.405 0 0)
(133.193 0 0)
(133.979 0 0)
(134.763 0 0)
(135.545 0 0)
(136.324 0 0)
(137.1 0 0)
(137.874 0 0)
(138.644 0 0)
(139.412 0 0)
(140.176 0 0)
(140.937 0 0)
(141.695 0 0)
(142.449 0 0)
(143.2 0 0)
(143.947 0 0)
(144.691 0 0)
(145.43 0 0)
(146.168 0 0)
(146.894 0 0)
(147.64 0 0)
(148.305 0 0)
(149.211 0 0)
(104.505 0 0)
(103.677 0 0)
(102.987 0 0)
(102.427 0 0)
(101.99 0 0)
(101.668 0 0)
(101.451 0 0)
(101.332 0 0)
(101.303 0 0)
(101.353 0 0)
(101.478 0 0)
(101.668 0 0)
(101.919 0 0)
(102.224 0 0)
(102.577 0 0)
(102.975 0 0)
(103.412 0 0)
(103.885 0 0)
(104.39 0 0)
(104.925 0 0)
(105.486 0 0)
(106.071 0 0)
(106.678 0 0)
(107.304 0 0)
(107.947 0 0)
(108.607 0 0)
(109.281 0 0)
(109.968 0 0)
(110.667 0 0)
(111.377 0 0)
(112.096 0 0)
(112.824 0 0)
(113.56 0 0)
(114.302 0 0)
(115.051 0 0)
(115.805 0 0)
(116.564 0 0)
(117.327 0 0)
(118.094 0 0)
(118.865 0 0)
(119.638 0 0)
(120.413 0 0)