/*--------------------------------*- C++ -*----------------------------------*\
| =========                 |                                                 |
| \\      /  F ield         | OpenFOAM: The Open Source CFD Toolbox           |
|  \\    /   O peration     | Version:  2312                                  |
|   \\  /    A nd           | Website:  www.openfoam.com                      |
|    \\/     M anipulation  |                                                 |
\*---------------------------------------------------------------------------*/
FoamFile
{
    version     2.0;
    format      ascii;
    arch        "LSB;label=32;scalar=64";
    class       volScalarField;
    location    "2";
    object      wave;
}
// * * * * * * * * * * * * * * * * * * * * * * * * * * * * * * * * * * * * * //

dimensions      [0 0 0 0 0 0 0];

internalField   nonuniform List<scalar> 
100
(
0.873458
0.785555
0.677918
0.55325
0.414683
0.265698
0.110038
-0.0483856
-0.205594
-0.357638
-0.500697
-0.631177
-0.745801
-0.841688
-0.916431
-0.96815
-0.995548
-0.997935
-0.975252
-0.928069
-0.85757
-0.765527
-0.654252
-0.526542
-0.385603
-0.234977
-0.0784479
0.080052
0.236541
0.387087
0.527909
0.655469
0.766561
0.858396
0.928667
0.975607
0.998037
0.995395
0.967746
0.915786
0.840818
0.744728
0.629928
0.499303
0.356135
0.204019
0.0467783
-0.111638
-0.267249
-0.416147
-0.55459
-0.6791
-0.78655
-0.87424
-0.939967
-0.982081
-0.999522
-0.991853
-0.959266
-0.90258
-0.82322
-0.723179
-0.604969
-0.471562
-0.326308
-0.172856
-0.0150616
0.143111
0.297688
0.444787
0.580712
0.702048
0.805747
0.889204
0.950322
0.987566
1
0.987311
0.94982
0.888467
0.804793
0.700901
0.579401
0.443346
0.296152
0.141519
-0.0166703
-0.17444
-0.327828
-0.47298
-0.60625
-0.724289
-0.824132
-0.903272
-0.959719
-0.992056
-0.999471
-0.981776
-0.939417
-0.873458
)
;

boundaryField
{
    movingWall
    {
        type            calculated;
        value           uniform 0;
    }
    fixedWalls
    {
        type            calculated;
        value           uniform 0;
    }
    frontAndBack
    {
        type            empty;
    }
}


// ************************************************************************* //
