/*--------------------------------*- C++ -*----------------------------------*\
| =========                 |                                                 |
| \\      /  F ield         | OpenFOAM: The Open Source CFD Toolbox           |
|  \\    /   O peration     | Version:  2312                                  |
|   \\  /    A nd           | Website:  www.openfoam.com                      |
|    \\/     M anipulation  |                                                 |
\*---------------------------------------------------------------------------*/
FoamFile
{
    version     2.0;
    format      ascii;
    arch        "LSB;label=32;scalar=64";
    class       volVectorField;
    location    "0.238";
    object      U;
}
// * * * * * * * * * * * * * * * * * * * * * * * * * * * * * * * * * * * * * //

dimensions      [0 1 -1 0 0 0 0];

internalField   nonuniform List<vector> 
31205
(
(100.138 0 0)
(100.564 0 0)
(101.29 0 0)
(102.284 0 0)
(103.511 0 0)
(104.936 0 0)
(106.526 0 0)
(108.251 0 0)
(110.085 0 0)
(112.004 0 0)
(113.991 0 0)
(116.029 0 0)
(118.106 0 0)
(120.211 0 0)
(122.335 0 0)
(124.471 0 0)
(126.614 0 0)
(128.758 0 0)
(130.9 0 0)
(133.036 0 0)
(135.165 0 0)
(137.284 0 0)
(139.391 0 0)
(141.486 0 0)
(143.567 0 0)
(145.633 0 0)
(147.684 0 0)
(149.719 0 0)
(151.737 0 0)
(153.74 0 0)
(155.725 0 0)
(157.694 0 0)
(159.646 0 0)
(161.581 0 0)
(163.499 0 0)
(165.401 0 0)
(167.285 0 0)
(169.153 0 0)
(171.005 0 0)
(172.84 0 0)
(174.658 0 0)
(176.461 0 0)
(178.248 0 0)
(180.018 0 0)
(181.773 0 0)
(183.513 0 0)
(185.237 0 0)
(186.946 0 0)
(188.64 0 0)
(190.319 0 0)
(191.983 0 0)
(193.632 0 0)
(195.267 0 0)
(196.888 0 0)
(198.495 0 0)
(200.088 0 0)
(201.666 0 0)
(203.231 0 0)
(204.783 0 0)
(206.321 0 0)
(207.845 0 0)
(209.357 0 0)
(210.855 0 0)
(212.34 0 0)
(213.812 0 0)
(215.272 0 0)
(216.718 0 0)
(218.153 0 0)
(219.574 0 0)
(220.984 0 0)
(222.381 0 0)
(223.765 0 0)
(225.139 0 0)
(226.498 0 0)
(227.851 0 0)
(229.173 0 0)
(230.544 0 0)
(231.714 0 0)
(233.455 0 0)
(100.612 0 0)
(101.325 0 0)
(102.291 0 0)
(103.477 0 0)
(104.85 0 0)
(106.381 0 0)
(108.041 0 0)
(109.807 0 0)
(111.657 0 0)
(113.573 0 0)
(115.54 0 0)
(117.547 0 0)
(119.583 0 0)
(121.639 0 0)
(123.708 0 0)
(125.786 0 0)
(127.866 0 0)
(129.946 0 0)
(132.022 0 0)
(134.092 0 0)
(136.154 0 0)
(138.205 0 0)
(140.245 0 0)
(142.273 0 0)
(144.288 0 0)
(146.288 0 0)
(148.274 0 0)
(150.244 0 0)
(152.2 0 0)
(154.139 0 0)
(156.064 0 0)
(157.972 0 0)
(159.864 0 0)
(161.741 0 0)
(163.601 0 0)
(165.446 0 0)
(167.275 0 0)
(169.088 0 0)
(170.886 0 0)
(172.668 0 0)
(174.435 0 0)
(176.186 0 0)
(177.923 0 0)
(179.644 0 0)
(181.351 0 0)
(183.043 0 0)
(184.72 0 0)
(186.383 0 0)
(188.032 0 0)
(189.667 0 0)
(191.288 0 0)
(192.894 0 0)
(194.487 0 0)
(196.067 0 0)
(197.633 0 0)
(199.186 0 0)
(200.726 0 0)
(202.252 0 0)
(203.766 0 0)
(205.267 0 0)
(206.755 0 0)
(208.23 0 0)
(209.693 0 0)
(211.144 0 0)
(212.582 0 0)
(214.009 0 0)
(215.423 0 0)
(216.825 0 0)
(218.215 0 0)
(219.594 0 0)
(220.961 0 0)
(222.316 0 0)
(223.66 0 0)
(224.99 0 0)
(226.316 0 0)
(227.611 0 0)
(228.954 0 0)
(230.103 0 0)
(231.801 0 0)
(101.445 0 0)
(102.4 0 0)
(103.559 0 0)
(104.894 0 0)
(106.376 0 0)
(107.981 0 0)
(109.686 0 0)
(111.472 0 0)
(113.322 0 0)
(115.222 0 0)
(117.161 0 0)
(119.129 0 0)
(121.119 0 0)
(123.123 0 0)
(125.135 0 0)
(127.152 0 0)
(129.17 0 0)
(131.186 0 0)
(133.196 0 0)
(135.2 0 0)
(137.194 0 0)
(139.179 0 0)
(141.153 0 0)
(143.115 0 0)
(145.064 0 0)
(146.999 0 0)
(148.921 0 0)
(150.828 0 0)
(152.721 0 0)
(154.599 0 0)
(156.463 0 0)
(158.312 0 0)
(160.145 0 0)
(161.964 0 0)
(163.768 0 0)
(165.557 0 0)
(167.331 0 0)
(169.09 0 0)
(170.835 0 0)
(172.565 0 0)
(174.28 0 0)
(175.982 0 0)
(177.669 0 0)
(179.341 0 0)
(181 0 0)
(182.645 0 0)
(184.276 0 0)
(185.894 0 0)
(187.498 0 0)
(189.089 0 0)
(190.667 0 0)
(192.231 0 0)
(193.782 0 0)
(195.321 0 0)
(196.847 0 0)
(198.36 0 0)
(199.861 0 0)
(201.349 0 0)
(202.825 0 0)
(204.289 0 0)
(205.741 0 0)
(207.181 0 0)
(208.609 0 0)
(210.025 0 0)
(211.43 0 0)
(212.823 0 0)
(214.204 0 0)
(215.574 0 0)
(216.933 0 0)
(218.281 0 0)
(219.617 0 0)
(220.943 0 0)
(222.257 0 0)
(223.559 0 0)
(224.857 0 0)
(226.124 0 0)
(227.439 0 0)
(228.566 0 0)
(230.223 0 0)
(102.565 0 0)
(103.707 0 0)
(105.011 0 0)
(106.453 0 0)
(108.01 0 0)
(109.66 0 0)
(111.388 0 0)
(113.177 0 0)
(115.014 0 0)
(116.889 0 0)
(118.793 0 0)
(120.719 0 0)
(122.659 0 0)
(124.609 0 0)
(126.564 0 0)
(128.521 0 0)
(130.476 0 0)
(132.428 0 0)
(134.374 0 0)
(136.313 0 0)
(138.243 0 0)
(140.163 0 0)
(142.072 0 0)
(143.97 0 0)
(145.855 0 0)
(147.728 0 0)
(149.587 0 0)
(151.433 0 0)
(153.265 0 0)
(155.084 0 0)
(156.889 0 0)
(158.679 0 0)
(160.456 0 0)
(162.218 0 0)
(163.967 0 0)
(165.702 0 0)
(167.422 0 0)
(169.129 0 0)
(170.822 0 0)
(172.501 0 0)
(174.166 0 0)
(175.818 0 0)
(177.457 0 0)
(179.082 0 0)
(180.694 0 0)
(182.293 0 0)
(183.879 0 0)
(185.452 0 0)
(187.012 0 0)
(188.56 0 0)
(190.095 0 0)
(191.618 0 0)
(193.128 0 0)
(194.627 0 0)
(196.113 0 0)
(197.587 0 0)
(199.05 0 0)
(200.5 0 0)
(201.939 0 0)
(203.367 0 0)
(204.783 0 0)
(206.187 0 0)
(207.58 0 0)
(208.963 0 0)
(210.334 0 0)
(211.694 0 0)
(213.043 0 0)
(214.381 0 0)
(215.709 0 0)
(217.025 0 0)
(218.332 0 0)
(219.627 0 0)
(220.913 0 0)
(222.186 0 0)
(223.455 0 0)
(224.695 0 0)
(225.981 0 0)
(227.087 0 0)
(228.704 0 0)
(103.898 0 0)
(105.179 0 0)
(106.586 0 0)
(108.099 0 0)
(109.701 0 0)
(111.374 0 0)
(113.106 0 0)
(114.884 0 0)
(116.699 0 0)
(118.542 0 0)
(120.405 0 0)
(122.284 0 0)
(124.173 0 0)
(126.068 0 0)
(127.965 0 0)
(129.863 0 0)
(131.757 0 0)
(133.647 0 0)
(135.53 0 0)
(137.406 0 0)
(139.273 0 0)
(141.13 0 0)
(142.977 0 0)
(144.812 0 0)
(146.636 0 0)
(148.448 0 0)
(150.247 0 0)
(152.034 0 0)
(153.807 0 0)
(155.568 0 0)
(157.316 0 0)
(159.05 0 0)
(160.772 0 0)
(162.48 0 0)
(164.175 0 0)
(165.856 0 0)
(167.525 0 0)
(169.181 0 0)
(170.823 0 0)
(172.453 0 0)
(174.07 0 0)
(175.674 0 0)
(177.265 0 0)
(178.844 0 0)
(180.41 0 0)
(181.964 0 0)
(183.506 0 0)
(185.035 0 0)
(186.553 0 0)
(188.059 0 0)
(189.552 0 0)
(191.034 0 0)
(192.505 0 0)
(193.963 0 0)
(195.411 0 0)
(196.847 0 0)
(198.271 0 0)
(199.685 0 0)
(201.088 0 0)
(202.479 0 0)
(203.86 0 0)
(205.23 0 0)
(206.589 0 0)
(207.937 0 0)
(209.275 0 0)
(210.603 0 0)
(211.92 0 0)
(213.226 0 0)
(214.523 0 0)
(215.809 0 0)
(217.085 0 0)
(218.351 0 0)
(219.608 0 0)
(220.853 0 0)
(222.094 0 0)
(223.307 0 0)
(224.565 0 0)
(225.647 0 0)
(227.228 0 0)
(105.387 0 0)
(106.763 0 0)
(108.238 0 0)
(109.794 0 0)
(111.417 0 0)
(113.096 0 0)
(114.818 0 0)
(116.575 0 0)
(118.359 0 0)
(120.163 0 0)
(121.983 0 0)
(123.813 0 0)
(125.649 0 0)
(127.489 0 0)
(129.329 0 0)
(131.167 0 0)
(133.002 0 0)
(134.831 0 0)
(136.653 0 0)
(138.468 0 0)
(140.274 0 0)
(142.07 0 0)
(143.856 0 0)
(145.632 0 0)
(147.396 0 0)
(149.149 0 0)
(150.89 0 0)
(152.62 0 0)
(154.337 0 0)
(156.042 0 0)
(157.734 0 0)
(159.415 0 0)
(161.082 0 0)
(162.738 0 0)
(164.381 0 0)
(166.011 0 0)
(167.63 0 0)
(169.235 0 0)
(170.829 0 0)
(172.411 0 0)
(173.98 0 0)
(175.538 0 0)
(177.083 0 0)
(178.617 0 0)
(180.139 0 0)
(181.649 0 0)
(183.148 0 0)
(184.635 0 0)
(186.111 0 0)
(187.575 0 0)
(189.028 0 0)
(190.471 0 0)
(191.902 0 0)
(193.322 0 0)
(194.731 0 0)
(196.13 0 0)
(197.517 0 0)
(198.895 0 0)
(200.261 0 0)
(201.618 0 0)
(202.964 0 0)
(204.299 0 0)
(205.625 0 0)
(206.94 0 0)
(208.246 0 0)
(209.541 0 0)
(210.826 0 0)
(212.102 0 0)
(213.368 0 0)
(214.624 0 0)
(215.871 0 0)
(217.107 0 0)
(218.335 0 0)
(219.552 0 0)
(220.765 0 0)
(221.951 0 0)
(223.181 0 0)
(224.24 0 0)
(225.786 0 0)
(106.983 0 0)
(108.421 0 0)
(109.935 0 0)
(111.512 0 0)
(113.139 0 0)
(114.808 0 0)
(116.51 0 0)
(118.238 0 0)
(119.985 0 0)
(121.748 0 0)
(123.521 0 0)
(125.3 0 0)
(127.084 0 0)
(128.868 0 0)
(130.651 0 0)
(132.432 0 0)
(134.208 0 0)
(135.978 0 0)
(137.741 0 0)
(139.496 0 0)
(141.243 0 0)
(142.981 0 0)
(144.708 0 0)
(146.426 0 0)
(148.133 0 0)
(149.829 0 0)
(151.514 0 0)
(153.188 0 0)
(154.85 0 0)
(156.501 0 0)
(158.141 0 0)
(159.768 0 0)
(161.384 0 0)
(162.989 0 0)
(164.581 0 0)
(166.163 0 0)
(167.732 0 0)
(169.29 0 0)
(170.836 0 0)
(172.371 0 0)
(173.895 0 0)
(175.407 0 0)
(176.908 0 0)
(178.398 0 0)
(179.876 0 0)
(181.344 0 0)
(182.801 0 0)
(184.247 0 0)
(185.682 0 0)
(187.106 0 0)
(188.52 0 0)
(189.923 0 0)
(191.316 0 0)
(192.698 0 0)
(194.07 0 0)
(195.432 0 0)
(196.784 0 0)
(198.126 0 0)
(199.457 0 0)
(200.779 0 0)
(202.091 0 0)
(203.393 0 0)
(204.686 0 0)
(205.968 0 0)
(207.242 0 0)
(208.506 0 0)
(209.76 0 0)
(211.005 0 0)
(212.241 0 0)
(213.467 0 0)
(214.684 0 0)
(215.892 0 0)
(217.092 0 0)
(218.281 0 0)
(219.466 0 0)
(220.626 0 0)
(221.828 0 0)
(222.864 0 0)
(224.374 0 0)
(108.647 0 0)
(110.121 0 0)
(111.654 0 0)
(113.233 0 0)
(114.851 0 0)
(116.5 0 0)
(118.174 0 0)
(119.867 0 0)
(121.574 0 0)
(123.292 0 0)
(125.016 0 0)
(126.745 0 0)
(128.475 0 0)
(130.205 0 0)
(131.932 0 0)
(133.656 0 0)
(135.375 0 0)
(137.087 0 0)
(138.793 0 0)
(140.491 0 0)
(142.18 0 0)
(143.861 0 0)
(145.532 0 0)
(147.194 0 0)
(148.846 0 0)
(150.487 0 0)
(152.118 0 0)
(153.738 0 0)
(155.348 0 0)
(156.946 0 0)
(158.534 0 0)
(160.111 0 0)
(161.677 0 0)
(163.232 0 0)
(164.776 0 0)
(166.309 0 0)
(167.831 0 0)
(169.343 0 0)
(170.843 0 0)
(172.333 0 0)
(173.812 0 0)
(175.28 0 0)
(176.738 0 0)
(178.185 0 0)
(179.622 0 0)
(181.048 0 0)
(182.464 0 0)
(183.869 0 0)
(185.265 0 0)
(186.65 0 0)
(188.025 0 0)
(189.39 0 0)
(190.746 0 0)
(192.091 0 0)
(193.427 0 0)
(194.753 0 0)
(196.07 0 0)
(197.376 0 0)
(198.674 0 0)
(199.962 0 0)
(201.24 0 0)
(202.51 0 0)
(203.77 0 0)
(205.021 0 0)
(206.262 0 0)
(207.495 0 0)
(208.719 0 0)
(209.934 0 0)
(211.14 0 0)
(212.337 0 0)
(213.526 0 0)
(214.705 0 0)
(215.877 0 0)
(217.038 0 0)
(218.196 0 0)
(219.329 0 0)
(220.504 0 0)
(221.517 0 0)
(222.993 0 0)
(110.351 0 0)
(111.841 0 0)
(113.375 0 0)
(114.945 0 0)
(116.543 0 0)
(118.165 0 0)
(119.805 0 0)
(121.459 0 0)
(123.123 0 0)
(124.795 0 0)
(126.47 0 0)
(128.147 0 0)
(129.824 0 0)
(131.5 0 0)
(133.173 0 0)
(134.841 0 0)
(136.504 0 0)
(138.161 0 0)
(139.81 0 0)
(141.453 0 0)
(143.087 0 0)
(144.713 0 0)
(146.329 0 0)
(147.937 0 0)
(149.535 0 0)
(151.123 0 0)
(152.702 0 0)
(154.271 0 0)
(155.829 0 0)
(157.377 0 0)
(158.915 0 0)
(160.443 0 0)
(161.961 0 0)
(163.468 0 0)
(164.965 0 0)
(166.452 0 0)
(167.928 0 0)
(169.394 0 0)
(170.85 0 0)
(172.296 0 0)
(173.731 0 0)
(175.157 0 0)
(176.573 0 0)
(177.978 0 0)
(179.374 0 0)
(180.76 0 0)
(182.136 0 0)
(183.502 0 0)
(184.859 0 0)
(186.206 0 0)
(187.544 0 0)
(188.872 0 0)
(190.191 0 0)
(191.501 0 0)
(192.801 0 0)
(194.092 0 0)
(195.374 0 0)
(196.647 0 0)
(197.91 0 0)
(199.165 0 0)
(200.411 0 0)
(201.648 0 0)
(202.877 0 0)
(204.096 0 0)
(205.307 0 0)
(206.509 0 0)
(207.703 0 0)
(208.888 0 0)
(210.065 0 0)
(211.233 0 0)
(212.394 0 0)
(213.545 0 0)
(214.689 0 0)
(215.823 0 0)
(216.954 0 0)
(218.061 0 0)
(219.209 0 0)
(220.199 0 0)
(221.64 0 0)
(112.072 0 0)
(113.562 0 0)
(115.086 0 0)
(116.636 0 0)
(118.208 0 0)
(119.797 0 0)
(121.4 0 0)
(123.012 0 0)
(124.631 0 0)
(126.255 0 0)
(127.88 0 0)
(129.507 0 0)
(131.132 0 0)
(132.754 0 0)
(134.373 0 0)
(135.987 0 0)
(137.596 0 0)
(139.199 0 0)
(140.795 0 0)
(142.383 0 0)
(143.964 0 0)
(145.536 0 0)
(147.1 0 0)
(148.656 0 0)
(150.202 0 0)
(151.739 0 0)
(153.267 0 0)
(154.786 0 0)
(156.295 0 0)
(157.795 0 0)
(159.285 0 0)
(160.765 0 0)
(162.236 0 0)
(163.697 0 0)
(165.148 0 0)
(166.589 0 0)
(168.021 0 0)
(169.444 0 0)
(170.856 0 0)
(172.26 0 0)
(173.653 0 0)
(175.037 0 0)
(176.412 0 0)
(177.778 0 0)
(179.133 0 0)
(180.48 0 0)
(181.818 0 0)
(183.146 0 0)
(184.465 0 0)
(185.775 0 0)
(187.076 0 0)
(188.368 0 0)
(189.652 0 0)
(190.926 0 0)
(192.191 0 0)
(193.448 0 0)
(194.696 0 0)
(195.936 0 0)
(197.167 0 0)
(198.389 0 0)
(199.603 0 0)
(200.809 0 0)
(202.006 0 0)
(203.195 0 0)
(204.375 0 0)
(205.548 0 0)
(206.712 0 0)
(207.868 0 0)
(209.016 0 0)
(210.156 0 0)
(211.288 0 0)
(212.412 0 0)
(213.529 0 0)
(214.636 0 0)
(215.74 0 0)
(216.821 0 0)
(217.942 0 0)
(218.91 0 0)
(220.317 0 0)
(113.793 0 0)
(115.272 0 0)
(116.776 0 0)
(118.3 0 0)
(119.84 0 0)
(121.393 0 0)
(122.955 0 0)
(124.523 0 0)
(126.097 0 0)
(127.672 0 0)
(129.249 0 0)
(130.824 0 0)
(132.398 0 0)
(133.969 0 0)
(135.535 0 0)
(137.097 0 0)
(138.653 0 0)
(140.203 0 0)
(141.747 0 0)
(143.283 0 0)
(144.812 0 0)
(146.333 0 0)
(147.846 0 0)
(149.351 0 0)
(150.848 0 0)
(152.336 0 0)
(153.815 0 0)
(155.285 0 0)
(156.747 0 0)
(158.199 0 0)
(159.642 0 0)
(161.077 0 0)
(162.502 0 0)
(163.918 0 0)
(165.325 0 0)
(166.723 0 0)
(168.112 0 0)
(169.492 0 0)
(170.863 0 0)
(172.225 0 0)
(173.578 0 0)
(174.922 0 0)
(176.257 0 0)
(177.583 0 0)
(178.9 0 0)
(180.209 0 0)
(181.508 0 0)
(182.8 0 0)
(184.082 0 0)
(185.356 0 0)
(186.621 0 0)
(187.878 0 0)
(189.127 0 0)
(190.367 0 0)
(191.598 0 0)
(192.822 0 0)
(194.037 0 0)
(195.244 0 0)
(196.443 0 0)
(197.633 0 0)
(198.816 0 0)
(199.99 0 0)
(201.157 0 0)
(202.316 0 0)
(203.467 0 0)
(204.61 0 0)
(205.745 0 0)
(206.872 0 0)
(207.992 0 0)
(209.104 0 0)
(210.209 0 0)
(211.306 0 0)
(212.395 0 0)
(213.476 0 0)
(214.554 0 0)
(215.61 0 0)
(216.704 0 0)
(217.65 0 0)
(219.023 0 0)
(115.501 0 0)
(116.96 0 0)
(118.438 0 0)
(119.931 0 0)
(121.435 0 0)
(122.948 0 0)
(124.468 0 0)
(125.993 0 0)
(127.52 0 0)
(129.047 0 0)
(130.575 0 0)
(132.101 0 0)
(133.624 0 0)
(135.144 0 0)
(136.66 0 0)
(138.17 0 0)
(139.676 0 0)
(141.175 0 0)
(142.668 0 0)
(144.154 0 0)
(145.633 0 0)
(147.104 0 0)
(148.568 0 0)
(150.024 0 0)
(151.473 0 0)
(152.913 0 0)
(154.345 0 0)
(155.768 0 0)
(157.184 0 0)
(158.591 0 0)
(159.989 0 0)
(161.379 0 0)
(162.76 0 0)
(164.133 0 0)
(165.497 0 0)
(166.853 0 0)
(168.2 0 0)
(169.539 0 0)
(170.869 0 0)
(172.191 0 0)
(173.504 0 0)
(174.809 0 0)
(176.106 0 0)
(177.394 0 0)
(178.673 0 0)
(179.945 0 0)
(181.208 0 0)
(182.463 0 0)
(183.71 0 0)
(184.948 0 0)
(186.179 0 0)
(187.402 0 0)
(188.616 0 0)
(189.823 0 0)
(191.021 0 0)
(192.212 0 0)
(193.395 0 0)
(194.57 0 0)
(195.737 0 0)
(196.897 0 0)
(198.049 0 0)
(199.193 0 0)
(200.33 0 0)
(201.459 0 0)
(202.581 0 0)
(203.695 0 0)
(204.802 0 0)
(205.901 0 0)
(206.993 0 0)
(208.078 0 0)
(209.155 0 0)
(210.225 0 0)
(211.289 0 0)
(212.343 0 0)
(213.396 0 0)
(214.426 0 0)
(215.494 0 0)
(216.418 0 0)
(217.758 0 0)
(117.186 0 0)
(118.62 0 0)
(120.066 0 0)
(121.524 0 0)
(122.991 0 0)
(124.463 0 0)
(125.94 0 0)
(127.419 0 0)
(128.9 0 0)
(130.381 0 0)
(131.86 0 0)
(133.337 0 0)
(134.811 0 0)
(136.282 0 0)
(137.748 0 0)
(139.209 0 0)
(140.665 0 0)
(142.115 0 0)
(143.559 0 0)
(144.996 0 0)
(146.426 0 0)
(147.85 0 0)
(149.267 0 0)
(150.676 0 0)
(152.077 0 0)
(153.471 0 0)
(154.858 0 0)
(156.236 0 0)
(157.607 0 0)
(158.97 0 0)
(160.325 0 0)
(161.672 0 0)
(163.011 0 0)
(164.342 0 0)
(165.664 0 0)
(166.979 0 0)
(168.286 0 0)
(169.585 0 0)
(170.876 0 0)
(172.158 0 0)
(173.433 0 0)
(174.7 0 0)
(175.959 0 0)
(177.21 0 0)
(178.453 0 0)
(179.689 0 0)
(180.916 0 0)
(182.136 0 0)
(183.348 0 0)
(184.552 0 0)
(185.749 0 0)
(186.938 0 0)
(188.12 0 0)
(189.293 0 0)
(190.46 0 0)
(191.619 0 0)
(192.77 0 0)
(193.914 0 0)
(195.051 0 0)
(196.18 0 0)
(197.302 0 0)
(198.416 0 0)
(199.524 0 0)
(200.624 0 0)
(201.717 0 0)
(202.803 0 0)
(203.882 0 0)
(204.954 0 0)
(206.018 0 0)
(207.076 0 0)
(208.127 0 0)
(209.171 0 0)
(210.208 0 0)
(211.237 0 0)
(212.264 0 0)
(213.27 0 0)
(214.312 0 0)
(215.215 0 0)
(216.522 0 0)
(118.843 0 0)
(120.245 0 0)
(121.658 0 0)
(123.079 0 0)
(124.505 0 0)
(125.936 0 0)
(127.369 0 0)
(128.804 0 0)
(130.238 0 0)
(131.672 0 0)
(133.104 0 0)
(134.534 0 0)
(135.96 0 0)
(137.382 0 0)
(138.8 0 0)
(140.213 0 0)
(141.621 0 0)
(143.024 0 0)
(144.42 0 0)
(145.811 0 0)
(147.194 0 0)
(148.572 0 0)
(149.942 0 0)
(151.306 0 0)
(152.663 0 0)
(154.012 0 0)
(155.355 0 0)
(156.69 0 0)
(158.017 0 0)
(159.338 0 0)
(160.65 0 0)
(161.956 0 0)
(163.253 0 0)
(164.544 0 0)
(165.826 0 0)
(167.102 0 0)
(168.369 0 0)
(169.629 0 0)
(170.882 0 0)
(172.127 0 0)
(173.364 0 0)
(174.594 0 0)
(175.817 0 0)
(177.032 0 0)
(178.24 0 0)
(179.44 0 0)
(180.633 0 0)
(181.819 0 0)
(182.997 0 0)
(184.168 0 0)
(185.331 0 0)
(186.488 0 0)
(187.637 0 0)
(188.779 0 0)
(189.914 0 0)
(191.041 0 0)
(192.162 0 0)
(193.276 0 0)
(194.382 0 0)
(195.482 0 0)
(196.574 0 0)
(197.66 0 0)
(198.739 0 0)
(199.811 0 0)
(200.876 0 0)
(201.934 0 0)
(202.985 0 0)
(204.03 0 0)
(205.068 0 0)
(206.099 0 0)
(207.124 0 0)
(208.142 0 0)
(209.154 0 0)
(210.157 0 0)
(211.159 0 0)
(212.141 0 0)
(213.158 0 0)
(214.039 0 0)
(215.313 0 0)
(120.465 0 0)
(121.834 0 0)
(123.21 0 0)
(124.592 0 0)
(125.977 0 0)
(127.366 0 0)
(128.755 0 0)
(130.146 0 0)
(131.535 0 0)
(132.923 0 0)
(134.309 0 0)
(135.692 0 0)
(137.071 0 0)
(138.447 0 0)
(139.819 0 0)
(141.185 0 0)
(142.547 0 0)
(143.903 0 0)
(145.254 0 0)
(146.599 0 0)
(147.938 0 0)
(149.27 0 0)
(150.596 0 0)
(151.916 0 0)
(153.229 0 0)
(154.536 0 0)
(155.836 0 0)
(157.129 0 0)
(158.415 0 0)
(159.694 0 0)
(160.966 0 0)
(162.231 0 0)
(163.489 0 0)
(164.74 0 0)
(165.983 0 0)
(167.22 0 0)
(168.45 0 0)
(169.672 0 0)
(170.888 0 0)
(172.096 0 0)
(173.298 0 0)
(174.492 0 0)
(175.679 0 0)
(176.859 0 0)
(178.033 0 0)
(179.199 0 0)
(180.358 0 0)
(181.51 0 0)
(182.655 0 0)
(183.794 0 0)
(184.925 0 0)
(186.05 0 0)
(187.167 0 0)
(188.278 0 0)
(189.382 0 0)
(190.48 0 0)
(191.57 0 0)
(192.654 0 0)
(193.731 0 0)
(194.802 0 0)
(195.866 0 0)
(196.923 0 0)
(197.974 0 0)
(199.018 0 0)
(200.055 0 0)
(201.087 0 0)
(202.111 0 0)
(203.129 0 0)
(204.141 0 0)
(205.146 0 0)
(206.145 0 0)
(207.138 0 0)
(208.124 0 0)
(209.103 0 0)
(210.08 0 0)
(211.038 0 0)
(212.03 0 0)
(212.89 0 0)
(214.132 0 0)
(122.049 0 0)
(123.382 0 0)
(124.72 0 0)
(126.062 0 0)
(127.407 0 0)
(128.753 0 0)
(130.1 0 0)
(131.446 0 0)
(132.791 0 0)
(134.134 0 0)
(135.475 0 0)
(136.813 0 0)
(138.147 0 0)
(139.477 0 0)
(140.803 0 0)
(142.125 0 0)
(143.442 0 0)
(144.754 0 0)
(146.06 0 0)
(147.361 0 0)
(148.656 0 0)
(149.946 0 0)
(151.229 0 0)
(152.507 0 0)
(153.778 0 0)
(155.043 0 0)
(156.302 0 0)
(157.554 0 0)
(158.799 0 0)
(160.039 0 0)
(161.271 0 0)
(162.497 0 0)
(163.717 0 0)
(164.93 0 0)
(166.136 0 0)
(167.335 0 0)
(168.528 0 0)
(169.715 0 0)
(170.894 0 0)
(172.067 0 0)
(173.233 0 0)
(174.393 0 0)
(175.545 0 0)
(176.692 0 0)
(177.831 0 0)
(178.964 0 0)
(180.091 0 0)
(181.21 0 0)
(182.324 0 0)
(183.43 0 0)
(184.53 0 0)
(185.624 0 0)
(186.711 0 0)
(187.792 0 0)
(188.866 0 0)
(189.934 0 0)
(190.995 0 0)
(192.05 0 0)
(193.098 0 0)
(194.14 0 0)
(195.176 0 0)
(196.206 0 0)
(197.229 0 0)
(198.246 0 0)
(199.256 0 0)
(200.261 0 0)
(201.259 0 0)
(202.251 0 0)
(203.237 0 0)
(204.217 0 0)
(205.191 0 0)
(206.158 0 0)
(207.12 0 0)
(208.075 0 0)
(209.027 0 0)
(209.961 0 0)
(210.929 0 0)
(211.768 0 0)
(212.979 0 0)
(123.592 0 0)
(124.889 0 0)
(126.188 0 0)
(127.49 0 0)
(128.794 0 0)
(130.098 0 0)
(131.402 0 0)
(132.705 0 0)
(134.007 0 0)
(135.306 0 0)
(136.603 0 0)
(137.897 0 0)
(139.187 0 0)
(140.474 0 0)
(141.756 0 0)
(143.034 0 0)
(144.308 0 0)
(145.577 0 0)
(146.84 0 0)
(148.099 0 0)
(149.352 0 0)
(150.6 0 0)
(151.842 0 0)
(153.078 0 0)
(154.309 0 0)
(155.534 0 0)
(156.753 0 0)
(157.965 0 0)
(159.172 0 0)
(160.373 0 0)
(161.568 0 0)
(162.756 0 0)
(163.938 0 0)
(165.114 0 0)
(166.284 0 0)
(167.447 0 0)
(168.604 0 0)
(169.755 0 0)
(170.9 0 0)
(172.038 0 0)
(173.171 0 0)
(174.296 0 0)
(175.416 0 0)
(176.529 0 0)
(177.636 0 0)
(178.737 0 0)
(179.831 0 0)
(180.919 0 0)
(182.001 0 0)
(183.077 0 0)
(184.147 0 0)
(185.21 0 0)
(186.267 0 0)
(187.318 0 0)
(188.363 0 0)
(189.402 0 0)
(190.435 0 0)
(191.461 0 0)
(192.482 0 0)
(193.496 0 0)
(194.505 0 0)
(195.507 0 0)
(196.503 0 0)
(197.494 0 0)
(198.478 0 0)
(199.456 0 0)
(200.429 0 0)
(201.395 0 0)
(202.356 0 0)
(203.311 0 0)
(204.26 0 0)
(205.203 0 0)
(206.141 0 0)
(207.071 0 0)
(208 0 0)
(208.911 0 0)
(209.854 0 0)
(210.673 0 0)
(211.852 0 0)
(125.095 0 0)
(126.353 0 0)
(127.614 0 0)
(128.876 0 0)
(130.139 0 0)
(131.402 0 0)
(132.664 0 0)
(133.925 0 0)
(135.184 0 0)
(136.44 0 0)
(137.695 0 0)
(138.946 0 0)
(140.193 0 0)
(141.438 0 0)
(142.678 0 0)
(143.914 0 0)
(145.145 0 0)
(146.373 0 0)
(147.595 0 0)
(148.813 0 0)
(150.025 0 0)
(151.233 0 0)
(152.435 0 0)
(153.632 0 0)
(154.823 0 0)
(156.009 0 0)
(157.189 0 0)
(158.364 0 0)
(159.533 0 0)
(160.697 0 0)
(161.855 0 0)
(163.006 0 0)
(164.153 0 0)
(165.293 0 0)
(166.427 0 0)
(167.556 0 0)
(168.678 0 0)
(169.795 0 0)
(170.906 0 0)
(172.011 0 0)
(173.11 0 0)
(174.203 0 0)
(175.29 0 0)
(176.371 0 0)
(177.447 0 0)
(178.516 0 0)
(179.579 0 0)
(180.637 0 0)
(181.689 0 0)
(182.734 0 0)
(183.774 0 0)
(184.808 0 0)
(185.836 0 0)
(186.858 0 0)
(187.875 0 0)
(188.885 0 0)
(189.89 0 0)
(190.889 0 0)
(191.882 0 0)
(192.869 0 0)
(193.851 0 0)
(194.827 0 0)
(195.797 0 0)
(196.761 0 0)
(197.72 0 0)
(198.673 0 0)
(199.62 0 0)
(200.561 0 0)
(201.497 0 0)
(202.428 0 0)
(203.352 0 0)
(204.271 0 0)
(205.185 0 0)
(206.092 0 0)
(206.997 0 0)
(207.885 0 0)
(208.805 0 0)
(209.604 0 0)
(210.752 0 0)
(126.554 0 0)
(127.775 0 0)
(128.997 0 0)
(130.219 0 0)
(131.442 0 0)
(132.664 0 0)
(133.885 0 0)
(135.105 0 0)
(136.322 0 0)
(137.538 0 0)
(138.75 0 0)
(139.96 0 0)
(141.167 0 0)
(142.37 0 0)
(143.569 0 0)
(144.764 0 0)
(145.956 0 0)
(147.143 0 0)
(148.325 0 0)
(149.503 0 0)
(150.676 0 0)
(151.845 0 0)
(153.009 0 0)
(154.167 0 0)
(155.321 0 0)
(156.469 0 0)
(157.613 0 0)
(158.751 0 0)
(159.883 0 0)
(161.011 0 0)
(162.133 0 0)
(163.249 0 0)
(164.361 0 0)
(165.466 0 0)
(166.566 0 0)
(167.661 0 0)
(168.75 0 0)
(169.834 0 0)
(170.912 0 0)
(171.984 0 0)
(173.051 0 0)
(174.112 0 0)
(175.168 0 0)
(176.218 0 0)
(177.263 0 0)
(178.302 0 0)
(179.335 0 0)
(180.362 0 0)
(181.385 0 0)
(182.401 0 0)
(183.412 0 0)
(184.417 0 0)
(185.417 0 0)
(186.411 0 0)
(187.4 0 0)
(188.383 0 0)
(189.36 0 0)
(190.332 0 0)
(191.298 0 0)
(192.259 0 0)
(193.215 0 0)
(194.164 0 0)
(195.109 0 0)
(196.048 0 0)
(196.981 0 0)
(197.909 0 0)
(198.832 0 0)
(199.749 0 0)
(200.66 0 0)
(201.567 0 0)
(202.467 0 0)
(203.363 0 0)
(204.253 0 0)
(205.137 0 0)
(206.019 0 0)
(206.885 0 0)
(207.781 0 0)
(208.56 0 0)
(209.679 0 0)
(127.971 0 0)
(129.154 0 0)
(130.337 0 0)
(131.521 0 0)
(132.704 0 0)
(133.886 0 0)
(135.067 0 0)
(136.247 0 0)
(137.424 0 0)
(138.599 0 0)
(139.772 0 0)
(140.942 0 0)
(142.108 0 0)
(143.271 0 0)
(144.431 0 0)
(145.587 0 0)
(146.739 0 0)
(147.888 0 0)
(149.032 0 0)
(150.171 0 0)
(151.307 0 0)
(152.438 0 0)
(153.564 0 0)
(154.686 0 0)
(155.803 0 0)
(156.915 0 0)
(158.022 0 0)
(159.125 0 0)
(160.222 0 0)
(161.315 0 0)
(162.402 0 0)
(163.485 0 0)
(164.562 0 0)
(165.634 0 0)
(166.701 0 0)
(167.763 0 0)
(168.82 0 0)
(169.871 0 0)
(170.918 0 0)
(171.959 0 0)
(172.994 0 0)
(174.025 0 0)
(175.05 0 0)
(176.07 0 0)
(177.084 0 0)
(178.093 0 0)
(179.097 0 0)
(180.096 0 0)
(181.089 0 0)
(182.077 0 0)
(183.06 0 0)
(184.037 0 0)
(185.009 0 0)
(185.976 0 0)
(186.938 0 0)
(187.894 0 0)
(188.845 0 0)
(189.79 0 0)
(190.731 0 0)
(191.666 0 0)
(192.595 0 0)
(193.52 0 0)
(194.439 0 0)
(195.353 0 0)
(196.262 0 0)
(197.165 0 0)
(198.064 0 0)
(198.957 0 0)
(199.845 0 0)
(200.727 0 0)
(201.605 0 0)
(202.477 0 0)
(203.345 0 0)
(204.206 0 0)
(205.066 0 0)
(205.909 0 0)
(206.782 0 0)
(207.542 0 0)
(208.631 0 0)
(129.346 0 0)
(130.491 0 0)
(131.636 0 0)
(132.781 0 0)
(133.926 0 0)
(135.069 0 0)
(136.211 0 0)
(137.352 0 0)
(138.49 0 0)
(139.626 0 0)
(140.76 0 0)
(141.891 0 0)
(143.019 0 0)
(144.144 0 0)
(145.265 0 0)
(146.383 0 0)
(147.498 0 0)
(148.608 0 0)
(149.715 0 0)
(150.818 0 0)
(151.917 0 0)
(153.011 0 0)
(154.102 0 0)
(155.188 0 0)
(156.269 0 0)
(157.347 0 0)
(158.419 0 0)
(159.487 0 0)
(160.551 0 0)
(161.61 0 0)
(162.664 0 0)
(163.713 0 0)
(164.758 0 0)
(165.797 0 0)
(166.832 0 0)
(167.862 0 0)
(168.888 0 0)
(169.908 0 0)
(170.923 0 0)
(171.934 0 0)
(172.939 0 0)
(173.94 0 0)
(174.935 0 0)
(175.925 0 0)
(176.911 0 0)
(177.891 0 0)
(178.867 0 0)
(179.837 0 0)
(180.803 0 0)
(181.763 0 0)
(182.718 0 0)
(183.668 0 0)
(184.613 0 0)
(185.554 0 0)
(186.489 0 0)
(187.419 0 0)
(188.344 0 0)
(189.263 0 0)
(190.178 0 0)
(191.088 0 0)
(191.993 0 0)
(192.893 0 0)
(193.787 0 0)
(194.677 0 0)
(195.562 0 0)
(196.441 0 0)
(197.316 0 0)
(198.185 0 0)
(199.05 0 0)
(199.91 0 0)
(200.764 0 0)
(201.614 0 0)
(202.459 0 0)
(203.298 0 0)
(204.135 0 0)
(204.957 0 0)
(205.807 0 0)
(206.549 0 0)
(207.608 0 0)
(130.678 0 0)
(131.786 0 0)
(132.894 0 0)
(134.002 0 0)
(135.108 0 0)
(136.214 0 0)
(137.318 0 0)
(138.421 0 0)
(139.521 0 0)
(140.62 0 0)
(141.716 0 0)
(142.809 0 0)
(143.9 0 0)
(144.987 0 0)
(146.072 0 0)
(147.153 0 0)
(148.231 0 0)
(149.306 0 0)
(150.376 0 0)
(151.444 0 0)
(152.507 0 0)
(153.567 0 0)
(154.622 0 0)
(155.674 0 0)
(156.721 0 0)
(157.765 0 0)
(158.804 0 0)
(159.838 0 0)
(160.869 0 0)
(161.895 0 0)
(162.917 0 0)
(163.934 0 0)
(164.947 0 0)
(165.956 0 0)
(166.959 0 0)
(167.959 0 0)
(168.953 0 0)
(169.943 0 0)
(170.929 0 0)
(171.91 0 0)
(172.886 0 0)
(173.857 0 0)
(174.824 0 0)
(175.786 0 0)
(176.743 0 0)
(177.695 0 0)
(178.643 0 0)
(179.586 0 0)
(180.524 0 0)
(181.457 0 0)
(182.386 0 0)
(183.31 0 0)
(184.229 0 0)
(185.143 0 0)
(186.052 0 0)
(186.957 0 0)
(187.856 0 0)
(188.751 0 0)
(189.641 0 0)
(190.526 0 0)
(191.407 0 0)
(192.282 0 0)
(193.153 0 0)
(194.019 0 0)
(194.88 0 0)
(195.736 0 0)
(196.588 0 0)
(197.434 0 0)
(198.276 0 0)
(199.113 0 0)
(199.945 0 0)
(200.773 0 0)
(201.596 0 0)
(202.413 0 0)
(203.228 0 0)
(204.029 0 0)
(204.857 0 0)
(205.58 0 0)
(206.611 0 0)
(131.969 0 0)
(133.04 0 0)
(134.112 0 0)
(135.183 0 0)
(136.253 0 0)
(137.322 0 0)
(138.389 0 0)
(139.455 0 0)
(140.519 0 0)
(141.58 0 0)
(142.64 0 0)
(143.697 0 0)
(144.752 0 0)
(145.803 0 0)
(146.852 0 0)
(147.898 0 0)
(148.941 0 0)
(149.98 0 0)
(151.016 0 0)
(152.049 0 0)
(153.078 0 0)
(154.104 0 0)
(155.126 0 0)
(156.144 0 0)
(157.159 0 0)
(158.169 0 0)
(159.176 0 0)
(160.179 0 0)
(161.177 0 0)
(162.172 0 0)
(163.162 0 0)
(164.149 0 0)
(165.131 0 0)
(166.109 0 0)
(167.083 0 0)
(168.052 0 0)
(169.017 0 0)
(169.978 0 0)
(170.934 0 0)
(171.886 0 0)
(172.834 0 0)
(173.777 0 0)
(174.716 0 0)
(175.65 0 0)
(176.58 0 0)
(177.505 0 0)
(178.426 0 0)
(179.342 0 0)
(180.254 0 0)
(181.161 0 0)
(182.063 0 0)
(182.961 0 0)
(183.855 0 0)
(184.743 0 0)
(185.628 0 0)
(186.507 0 0)
(187.382 0 0)
(188.253 0 0)
(189.118 0 0)
(189.98 0 0)
(190.836 0 0)
(191.688 0 0)
(192.535 0 0)
(193.378 0 0)
(194.216 0 0)
(195.049 0 0)
(195.878 0 0)
(196.702 0 0)
(197.522 0 0)
(198.337 0 0)
(199.147 0 0)
(199.953 0 0)
(200.754 0 0)
(201.55 0 0)
(202.344 0 0)
(203.124 0 0)
(203.93 0 0)
(204.635 0 0)
(205.637 0 0)
(133.218 0 0)
(134.255 0 0)
(135.291 0 0)
(136.326 0 0)
(137.36 0 0)
(138.393 0 0)
(139.425 0 0)
(140.455 0 0)
(141.483 0 0)
(142.51 0 0)
(143.534 0 0)
(144.556 0 0)
(145.576 0 0)
(146.593 0 0)
(147.607 0 0)
(148.619 0 0)
(149.627 0 0)
(150.633 0 0)
(151.636 0 0)
(152.635 0 0)
(153.631 0 0)
(154.624 0 0)
(155.614 0 0)
(156.6 0 0)
(157.582 0 0)
(158.561 0 0)
(159.537 0 0)
(160.508 0 0)
(161.476 0 0)
(162.44 0 0)
(163.4 0 0)
(164.357 0 0)
(165.309 0 0)
(166.258 0 0)
(167.202 0 0)
(168.143 0 0)
(169.079 0 0)
(170.011 0 0)
(170.94 0 0)
(171.864 0 0)
(172.784 0 0)
(173.699 0 0)
(174.611 0 0)
(175.518 0 0)
(176.421 0 0)
(177.32 0 0)
(178.215 0 0)
(179.105 0 0)
(179.991 0 0)
(180.873 0 0)
(181.75 0 0)
(182.623 0 0)
(183.491 0 0)
(184.355 0 0)
(185.215 0 0)
(186.071 0 0)
(186.922 0 0)
(187.768 0 0)
(188.61 0 0)
(189.448 0 0)
(190.281 0 0)
(191.11 0 0)
(191.935 0 0)
(192.754 0 0)
(193.57 0 0)
(194.381 0 0)
(195.188 0 0)
(195.99 0 0)
(196.788 0 0)
(197.581 0 0)
(198.37 0 0)
(199.154 0 0)
(199.934 0 0)
(200.709 0 0)
(201.482 0 0)
(202.242 0 0)
(203.027 0 0)
(203.713 0 0)
(204.688 0 0)
(134.428 0 0)
(135.43 0 0)
(136.431 0 0)
(137.432 0 0)
(138.431 0 0)
(139.43 0 0)
(140.427 0 0)
(141.422 0 0)
(142.416 0 0)
(143.409 0 0)
(144.399 0 0)
(145.387 0 0)
(146.373 0 0)
(147.356 0 0)
(148.337 0 0)
(149.316 0 0)
(150.292 0 0)
(151.265 0 0)
(152.235 0 0)
(153.202 0 0)
(154.167 0 0)
(155.128 0 0)
(156.086 0 0)
(157.041 0 0)
(157.993 0 0)
(158.941 0 0)
(159.886 0 0)
(160.828 0 0)
(161.766 0 0)
(162.7 0 0)
(163.631 0 0)
(164.558 0 0)
(165.482 0 0)
(166.402 0 0)
(167.318 0 0)
(168.231 0 0)
(169.139 0 0)
(170.044 0 0)
(170.945 0 0)
(171.842 0 0)
(172.735 0 0)
(173.624 0 0)
(174.509 0 0)
(175.391 0 0)
(176.268 0 0)
(177.141 0 0)
(178.01 0 0)
(178.875 0 0)
(179.736 0 0)
(180.593 0 0)
(181.445 0 0)
(182.294 0 0)
(183.138 0 0)
(183.978 0 0)
(184.814 0 0)
(185.646 0 0)
(186.474 0 0)
(187.297 0 0)
(188.116 0 0)
(188.931 0 0)
(189.741 0 0)
(190.548 0 0)
(191.35 0 0)
(192.148 0 0)
(192.941 0 0)
(193.73 0 0)
(194.515 0 0)
(195.296 0 0)
(196.073 0 0)
(196.845 0 0)
(197.612 0 0)
(198.376 0 0)
(199.135 0 0)
(199.89 0 0)
(200.642 0 0)
(201.382 0 0)
(202.146 0 0)
(202.815 0 0)
(203.763 0 0)
(135.599 0 0)
(136.567 0 0)
(137.535 0 0)
(138.502 0 0)
(139.467 0 0)
(140.432 0 0)
(141.396 0 0)
(142.358 0 0)
(143.319 0 0)
(144.278 0 0)
(145.235 0 0)
(146.191 0 0)
(147.144 0 0)
(148.095 0 0)
(149.044 0 0)
(149.99 0 0)
(150.935 0 0)
(151.876 0 0)
(152.815 0 0)
(153.751 0 0)
(154.685 0 0)
(155.616 0 0)
(156.544 0 0)
(157.468 0 0)
(158.39 0 0)
(159.309 0 0)
(160.225 0 0)
(161.137 0 0)
(162.046 0 0)
(162.952 0 0)
(163.855 0 0)
(164.754 0 0)
(165.65 0 0)
(166.542 0 0)
(167.431 0 0)
(168.316 0 0)
(169.198 0 0)
(170.076 0 0)
(170.95 0 0)
(171.821 0 0)
(172.688 0 0)
(173.551 0 0)
(174.411 0 0)
(175.267 0 0)
(176.119 0 0)
(176.967 0 0)
(177.811 0 0)
(178.652 0 0)
(179.488 0 0)
(180.321 0 0)
(181.15 0 0)
(181.974 0 0)
(182.795 0 0)
(183.612 0 0)
(184.425 0 0)
(185.233 0 0)
(186.038 0 0)
(186.839 0 0)
(187.635 0 0)
(188.428 0 0)
(189.216 0 0)
(190.001 0 0)
(190.781 0 0)
(191.557 0 0)
(192.329 0 0)
(193.097 0 0)
(193.861 0 0)
(194.621 0 0)
(195.376 0 0)
(196.128 0 0)
(196.875 0 0)
(197.618 0 0)
(198.357 0 0)
(199.091 0 0)
(199.824 0 0)
(200.544 0 0)
(201.287 0 0)
(201.939 0 0)
(202.86 0 0)
(136.732 0 0)
(137.668 0 0)
(138.602 0 0)
(139.536 0 0)
(140.47 0 0)
(141.402 0 0)
(142.333 0 0)
(143.263 0 0)
(144.192 0 0)
(145.119 0 0)
(146.044 0 0)
(146.968 0 0)
(147.89 0 0)
(148.81 0 0)
(149.727 0 0)
(150.643 0 0)
(151.557 0 0)
(152.468 0 0)
(153.377 0 0)
(154.283 0 0)
(155.187 0 0)
(156.088 0 0)
(156.986 0 0)
(157.882 0 0)
(158.775 0 0)
(159.665 0 0)
(160.553 0 0)
(161.437 0 0)
(162.318 0 0)
(163.196 0 0)
(164.071 0 0)
(164.943 0 0)
(165.812 0 0)
(166.678 0 0)
(167.54 0 0)
(168.399 0 0)
(169.254 0 0)
(170.107 0 0)
(170.955 0 0)
(171.801 0 0)
(172.642 0 0)
(173.481 0 0)