/*--------------------------------*- C++ -*----------------------------------*\
| =========                 |                                                 |
| \\      /  F ield         | OpenFOAM: The Open Source CFD Toolbox           |
|  \\    /   O peration     | Version:  2206                                  |
|   \\  /    A nd           | Website:  www.openfoam.com                      |
|    \\/     M anipulation  |                                                 |
\*---------------------------------------------------------------------------*/
FoamFile
{
    version     2.0;
    format      ascii;
    arch        "LSB;label=32;scalar=64";
    class       volScalarField;
    location    "1.95";
    object      wave;
}
// * * * * * * * * * * * * * * * * * * * * * * * * * * * * * * * * * * * * * //

dimensions      [0 0 0 0 0 0 0];

internalField   nonuniform List<scalar> 
100
(
0.896701
0.8155
0.713812
0.594192
0.459644
0.313549
0.159577
0.00159546
-0.156426
-0.310517
-0.456808
-0.591622
-0.711574
-0.813649
-0.895284
-0.954427
-0.989593
-0.999898
-0.985084
-0.945521
-0.882206
-0.796727
-0.691233
-0.568373
-0.431235
-0.283263
-0.128175
0.0301332
0.187684
0.34052
0.484802
0.616904
0.733508
0.831685
0.908968
0.963416
0.99366
0.998942
0.979128
0.934716
0.866822
0.777152
0.667957
0.541982
0.402392
0.252692
0.0966443
-0.0618315
-0.218754
-0.370181
-0.512308
-0.641565
-0.754704
-0.848883
-0.921737
-0.971434
-0.996727
-0.99698
-0.972187
-0.92297
-0.850566
-0.756794
-0.644009
-0.515046
-0.373143
-0.221867
-0.0650162
0.0934675
0.249603
0.399468
0.539298
0.665579
0.775139
0.865226
0.933577
0.978474
0.99879
0.994014
0.964266
0.910294
0.833453
0.735673
0.619412
0.48759
0.343519
0.190818
0.0333228
-0.125009
-0.280201
-0.428354
-0.565745
-0.688923
-0.794794
-0.880699
-0.944478
-0.984529
-0.999848
-0.990047
-0.955375
-0.896701
)
;

boundaryField
{
    movingWall
    {
        type            calculated;
        value           uniform 0;
    }
    fixedWalls
    {
        type            calculated;
        value           uniform 0;
    }
    frontAndBack
    {
        type            empty;
    }
}


// ************************************************************************* //
