/*--------------------------------*- C++ -*----------------------------------*\
| =========                 |                                                 |
| \\      /  F ield         | OpenFOAM: The Open Source CFD Toolbox           |
|  \\    /   O peration     | Version:  2206                                  |
|   \\  /    A nd           | Website:  www.openfoam.com                      |
|    \\/     M anipulation  |                                                 |
\*---------------------------------------------------------------------------*/
FoamFile
{
    version     2.0;
    format      ascii;
    arch        "LSB;label=32;scalar=64";
    class       volScalarField;
    location    "1.5";
    object      wave;
}
// * * * * * * * * * * * * * * * * * * * * * * * * * * * * * * * * * * * * * //

dimensions      [0 0 0 0 0 0 0];

internalField   nonuniform List<scalar> 
100
(
0.999964
0.986054
0.947373
0.884891
0.800179
0.695365
0.573082
0.436402
0.288758
0.13386
-0.024401
-0.182049
-0.335123
-0.479779
-0.612381
-0.729599
-0.828487
-0.906563
-0.961863
-0.992999
-0.999189
-0.980277
-0.936739
-0.869667
-0.780747
-0.672214
-0.546793
-0.407635
-0.258236
-0.10235
0.0561071
0.213155
0.364848
0.507375
0.637155
0.750929
0.845838
0.919498
0.970057
0.996247
0.997409
0.973514
0.925161
0.853567
0.760529
0.648385
0.519952
0.378457
0.227454
0.0707373
-0.0877568
-0.244046
-0.394205
-0.53446
-0.661288
-0.771504
-0.862337
-0.931507
-0.977275
-0.998492
-0.994624
-0.965769
-0.912653
-0.836608
-0.739545
-0.623904
-0.492589
-0.348899
-0.196444
-0.0390533
0.119318
0.274692
0.423165
0.561007
0.684756
0.791301
0.877968
0.942578
0.983508
0.999731
0.990838
0.957053
0.899225
0.818806
0.717817
0.598795
0.464729
0.318989
0.165235
0.00732999
-0.150759
-0.305061
-0.451699
-0.586989
-0.707533
-0.810302
-0.892715
-0.9527
-0.988752
-0.999964
)
;

boundaryField
{
    movingWall
    {
        type            calculated;
        value           uniform 0;
    }
    fixedWalls
    {
        type            calculated;
        value           uniform 0;
    }
    frontAndBack
    {
        type            empty;
    }
}


// ************************************************************************* //
