/*--------------------------------*- C++ -*----------------------------------*\
| =========                 |                                                 |
| \\      /  F ield         | OpenFOAM: The Open Source CFD Toolbox           |
|  \\    /   O peration     | Version:  2312                                  |
|   \\  /    A nd           | Website:  www.openfoam.com                      |
|    \\/     M anipulation  |                                                 |
\*---------------------------------------------------------------------------*/
FoamFile
{
    version     2.0;
    format      ascii;
    arch        "LSB;label=32;scalar=64";
    class       surfaceScalarField;
    location    "0.624";
    object      phi;
}
// * * * * * * * * * * * * * * * * * * * * * * * * * * * * * * * * * * * * * //

dimensions      [0 3 -1 0 0 0 0];

oriented        oriented;

internalField   nonuniform List<scalar> 
62015
(
41.8846
0.0817774
-41.0166
42.7368
0.0818589
43.5717
0.0818059
44.3893
0.0816182
45.1897
0.0812964
45.9731
0.0808411
46.7399
0.0802538
47.4905
0.0795357
48.2256
0.0786888
48.9457
0.0777146
49.6514
0.0766152
50.3432
0.0753924
51.0217
0.0740483
51.6876
0.072585
52.3413
0.0710046
52.9835
0.069309
53.6146
0.0675008
54.2351
0.0655819
54.8457
0.0635543
55.4467
0.0614205
56.0385
0.0591829
56.6218
0.0568431
57.1968
0.0544039
57.764
0.0518676
58.3238
0.0492361
58.8765
0.0465121
59.4225
0.0436976
59.9623
0.0407955
60.496
0.0378078
61.024
0.0347368
61.5466
0.031585
62.0641
0.0283551
62.5769
0.0250496
63.0851
0.0216704
63.589
0.0182209
64.0889
0.0147027
64.585
0.0111191
65.0775
0.00747252
65.5666
0.00376502
66.0526
0
66.5357
-0.00382025
67.0159
-0.00769344
67.4936
-0.0116161
67.9689
-0.0155861
68.4418
-0.0196009
68.9127
-0.0236569
69.3816
-0.0277524
69.8486
-0.0318837
70.314
-0.0360488
70.7777
-0.0402447
71.24
-0.0444683
71.7009
-0.0487169
72.1605
-0.0529878
72.619
-0.0572785
73.0763
-0.0615855
73.5326
-0.0659065
73.988
-0.0702382
74.4425
-0.0745781
74.8961
-0.0789234
75.349
-0.0832708
75.8011
-0.0876179
76.2526
-0.0919619
76.7033
-0.0962994
77.1534
-0.100628
77.6028
-0.104945
78.0517
-0.109247
78.4999
-0.113532
78.9475
-0.117796
79.3944
-0.122038
79.8408
-0.126253
80.2864
-0.13044
80.7314
-0.134595
81.1755
-0.138717
81.6193
-0.1428
82.0609
-0.146847
82.5059
-0.150843
82.9367
-0.154818
83.4076
-0.158673
-0.162707
83.7504
41.577
0.164942
-40.7802
42.3595
0.16486
43.1261
0.16452
43.8769
0.163924
44.6121
0.163073
45.3321
0.161968
46.0373
0.160613
46.7281
0.15901
47.4052
0.157162
48.0689
0.155073
48.72
0.152747
49.3587
0.150186
49.9858
0.147395
50.6016
0.144377
51.2067
0.141136
51.8017
0.137677
52.3868
0.134002
52.9627
0.130117
53.5298
0.126025
54.0884
0.12173
54.6389
0.117236
55.1819
0.112548
55.7176
0.107671
56.2465
0.102607
56.7688
0.0973615
57.2849
0.0919393
57.7952
0.0863442
58.2999
0.0805811
58.7993
0.0746541
59.2938
0.0685685
59.7835
0.062328
60.2688
0.0559379
60.75
0.0494025
61.2272
0.0427272
61.7007
0.0359161
62.1707
0.0289745
62.6375
0.021907
63.1012
0.0147187
63.562
0.00741474
64.0201
0
64.4758
-0.00752046
64.9291
-0.0151415
65.3802
-0.0228582
65.8293
-0.0306651
66.2766
-0.0385569
66.7221
-0.0465287
67.166
-0.0545746
67.6084
-0.0626902
68.0495
-0.0708695
68.4893
-0.0791074
68.928
-0.087398
69.3656
-0.0957367
69.8022
-0.104117
70.238
-0.112535
70.673
-0.120984
71.1073
-0.129459
71.5409
-0.137954
71.9739
-0.146465
72.4063
-0.154984
72.8382
-0.163508
73.2697
-0.17203
73.7007
-0.180544
74.1314
-0.189047
74.5616
-0.197531
74.9915
-0.205992
75.421
-0.214423
75.8502
-0.222821
76.2791
-0.231178
76.7075
-0.23949
77.1357
-0.247751
77.5634
-0.255957
77.9908
-0.264101
78.4175
-0.272178
78.8443
-0.280183
79.2692
-0.288115
79.6976
-0.29595
80.1129
-0.303742
80.5662
-0.311301
-0.319206
80.8996
41.249
0.249305
-40.519
41.9659
0.248833
42.6683
0.247993
43.3564
0.246787
44.0307
0.245217
44.6914
0.243287
45.3391
0.241001
45.9741
0.238362
46.5969
0.235375
47.208
0.232045
47.8078
0.228376
48.3969
0.224373
48.9758
0.220041
49.5447
0.215387
50.1043
0.210414
50.6548
0.205129
51.1969
0.199536
51.7307
0.193642
52.2568
0.187453
52.7755
0.180973
53.2872
0.174209
53.7922
0.167166
54.2908
0.159851
54.7834
0.15227
55.2703
0.144429
55.7518
0.136334
56.2282
0.127991
56.6998
0.119406
57.1667
0.110588
57.6294
0.10154
58.088
0.0922711
58.5427
0.0827872
58.9939
0.0730948
59.4417
0.0632013
59.8862
0.0531128
60.3279
0.042837
60.7667
0.0323809
61.203
0.0217509
61.6368
0.0109549
62.0684
0
62.4979
-0.0111066
62.9254
-0.0223575
63.3512
-0.0337456
63.7754
-0.0452626
64.198
-0.0569016
64.6193
-0.0686552
65.0393
-0.0805151
65.4581
-0.0924741
65.8759
-0.104524
66.2927
-0.116658
66.7087
-0.128868
67.124
-0.141145
67.5386
-0.153482
67.9526
-0.165872
68.366
-0.178305
68.779
-0.190775
69.1916
-0.203273
69.6038
-0.215792
70.0158
-0.228324
70.4274
-0.240859
70.8389
-0.253391
71.2502
-0.265912
71.6613
-0.278413
72.0723
-0.290887
72.4832
-0.303326
72.8939
-0.315722
73.3045
-0.328066
73.7151
-0.340351
74.1255
-0.352571
74.5358
-0.364714
74.946
-0.376777
75.356
-0.388748
75.7657
-0.400622
76.1757
-0.41239
76.5841
-0.424051
76.996
-0.43557
77.3958
-0.447026
77.8319
-0.458144
-0.469761
78.1548
40.8767
0.334542
-40.2086
41.5329
0.333481
42.1762
0.331953
42.8067
0.329962
43.4249
0.32751
44.0311
0.324603
44.6257
0.321243
45.2092
0.317438
45.782
0.313192
46.3446
0.308511
46.8972
0.303401
47.4404
0.297867
47.9746
0.291916
48.5001
0.285555
49.0174
0.27879
49.5268
0.271628
50.0287
0.264075
50.5235
0.25614
51.0115
0.247827
51.493
0.239145
51.9683
0.230101
52.4379
0.220703
52.9019
0.210957
53.3606
0.200873
53.8144
0.190456
54.2635
0.179715
54.7081
0.168659
55.1486
0.157295
55.5851
0.145631
56.0178
0.133676
56.4471
0.121438
56.8731
0.108925
57.296
0.096147
57.716
0.0831118
58.1333
0.0698278
58.5481
0.0563047
58.9606
0.0425511
59.3709
0.0285765
59.7792
0.0143896
60.1857
0
60.5904
-0.0145831
60.9936
-0.0293501
61.3954
-0.0442917
61.7958
-0.0593976
62.1951
-0.0746595
62.5933
-0.0900661
62.9905
-0.105609
63.3869
-0.121277
63.7825
-0.137061
64.1775
-0.152951
64.5718
-0.168936
64.9657
-0.185007
65.3592
-0.201154
65.7523
-0.217367
66.1452
-0.233634
66.5378
-0.249947
66.9302
-0.266295
67.3226
-0.282667
67.7148
-0.299054
68.1071
-0.315444
68.4993
-0.331829
68.8915
-0.348197
69.2838
-0.364539
69.6762
-0.380843
70.0687
-0.397101
70.4613
-0.413301
70.854
-0.429434
71.2467
-0.445489
71.6396
-0.461456
72.0326
-0.477326
72.4257
-0.493088
72.8188
-0.508732
73.2119
-0.52425
73.6053
-0.539627
73.9976
-0.554865
74.3935
-0.569921
74.7779
-0.584893
75.1971
-0.599426
-0.614603
75.509
40.4547
0.420325
-39.8435
41.0553
0.418504
41.6442
0.416127
42.2219
0.413199
42.7887
0.409724
43.345
0.405708
43.891
0.401155
44.4273
0.396072
44.9542
0.390466
45.472
0.384341
45.9812
0.377706
46.4821
0.370567
46.9751
0.362932
47.4606
0.354808
47.9388
0.346202
48.4102
0.337122
48.875
0.327577
49.3335
0.317574
49.7862
0.307121
50.2331
0.296227
50.6748
0.284901
51.1113
0.273151
51.543
0.260986
51.9702
0.248415
52.3931
0.235448
52.8119
0.222093
53.2269
0.20836
53.6383
0.194259
54.0462
0.179799
54.451
0.16499
54.8528
0.149843
55.2518
0.134368
55.6482
0.118573
56.0422
0.102472
56.4338
0.0860731
56.8234
0.0693877
57.2111
0.052427
57.597
0.0352013
57.9812
0.0177218
58.364
0
58.7453
-0.017953
59.1255
-0.0361261
59.5045
-0.0545076
59.8825
-0.0730855
60.2596
-0.0918489
60.636
-0.110786
61.0117
-0.129884
61.3867
-0.149132
61.7613
-0.168518
62.1355
-0.188029
62.5093
-0.207654
62.8829
-0.22738
63.2562
-0.247196
63.6295
-0.267088
64.0027
-0.287045
64.3758
-0.307054
64.7491
-0.327103
65.1223
-0.34718
65.4958
-0.367272
65.8693
-0.387367
66.2431
-0.407452
66.6171
-0.427516
66.9914
-0.447545
67.3659
-0.467527
67.7406
-0.48745
68.1157
-0.507302
68.491
-0.52707
68.8667
-0.546742
69.2426
-0.566306
69.6188
-0.585749
69.9953
-0.605061
70.3721
-0.624227
70.749
-0.643239
71.1264
-0.662078
71.5029
-0.680748
71.883
-0.699195
72.2525
-0.717538
72.6554
-0.735348
-0.753938
72.9558
39.9853
0.506361
-39.4263
40.535
0.503631
41.0743
0.500266
41.6037
0.496272
42.1234
0.491655
42.6339
0.486418
43.1355
0.48057
43.6284
0.474115
44.1131
0.467063
44.59
0.459418
45.0592
0.451189
45.5212
0.442384
45.9763
0.43301
46.4248
0.423077
46.8669
0.412592
47.3031
0.401564
47.7336
0.390001
48.1586
0.377914
48.5785
0.365311
48.9934
0.352202
49.4037
0.338597
49.8096
0.324504
50.2114
0.309936
50.6092
0.294901
51.0033
0.27941
51.3939
0.263474
51.7812
0.247103
52.1654
0.23031
52.5467
0.213104
52.9253
0.195497
53.3014
0.177501
53.6751
0.159127
54.0466
0.140388
54.4161
0.121295
54.7838
0.10186
55.1497
0.082096
55.514
0.0620154
55.8769
0.0416307
56.2385
0.0209545
56.5989
0
56.9582
-0.0212199
57.3166
-0.0426923
57.6742
-0.0644033
58.031
-0.0863403
58.3872
-0.108489
58.7429
-0.130837
59.0981
-0.153369
59.453
-0.176072
59.8076
-0.198932
60.1621
-0.221935
60.5164
-0.245068
60.8706
-0.268315
61.2249
-0.291663
61.5792
-0.315098
61.9337
-0.338605
62.2883
-0.36217
62.6432
-0.385779
62.9983
-0.409418
63.3537
-0.433071
63.7094
-0.456725
64.0656
-0.480365
64.4221
-0.503977
64.779
-0.527547
65.1363
-0.551059
65.4941
-0.5745
65.8523
-0.597856
66.211
-0.621112
66.5702
-0.644254
66.9297
-0.667268
67.2898
-0.690139
67.6502
-0.712855
68.0111
-0.735399
68.3723
-0.75776
68.7342
-0.77992
69.0954
-0.80188
69.4603
-0.823577
69.8151
-0.845154
70.202
-0.866106
-0.887966
70.4913
39.4738
0.592397
-38.9625
39.9768
0.588631
40.4707
0.58416
40.9559
0.578991
41.4326
0.573128
41.9012
0.566577
42.362
0.559346
42.8152
0.551442
43.2612
0.542871
43.7003
0.533642
44.1328
0.523763
44.559
0.513241
44.9791
0.502087
45.3935
0.490308
45.8024
0.477914
46.2061
0.464914
46.6048
0.451319
46.9987
0.437138
47.3882
0.42238
47.7735
0.407058
48.1547
0.391181
48.5321
0.374761
48.906
0.357807
49.2765
0.340333
49.6437
0.322349
50.008
0.303868
50.3695
0.284901
50.7284
0.265461
51.0848
0.24556
51.4389
0.225211
51.7909
0.204426
52.141
0.18322
52.4892
0.161604
52.8358
0.139593
53.1808
0.1172
53.5245
0.0944392
53.8669
0.0713247
54.2082
0.0478703
54.5484
0.0240907
54.8878
0
55.2263
-0.0243869
55.5642
-0.0490549
55.9015
-0.0739896
56.2384
-0.0991754
56.5748
-0.124598
56.9109
-0.150241
57.2469
-0.176088
57.5826
-0.202127
57.9183
-0.228339
58.254
-0.254709
58.5898
-0.281223
58.9257
-0.307863
59.2618
-0.334613
59.5982
-0.361458
59.9348
-0.388382
60.2718
-0.415368
60.6092
-0.442401
60.947
-0.469463
61.2852
-0.496539
61.6239
-0.523613
61.9632
-0.550667
62.3029
-0.577688
62.6433
-0.604656
62.9842
-0.631558
63.3256
-0.658376
63.6677
-0.685094
64.0104
-0.711696
64.3536
-0.738166
64.6975
-0.764489
65.0419
-0.790647
65.3869
-0.816626
65.7325
-0.842409
66.0785
-0.867982
66.4254
-0.893324
66.7717
-0.918437
67.1217
-0.94325
67.4623
-0.967924
67.8337
-0.99189
-1.01688
68.1121
38.9257
0.678213
-38.458
39.3861
0.673304
39.8385
0.667627
40.2832
0.661188
40.7205
0.653994
41.1507
0.64605
41.574
0.637364
41.9908
0.627944
42.4012
0.617797
42.8057
0.606931
43.2044
0.595355
43.5975
0.583077
43.9854
0.570108
44.3683
0.556456
44.7465
0.542132
45.1201
0.527146
45.4894
0.511507
45.8546
0.495227
46.216
0.478317
46.5737
0.460788
46.9279
0.442653
47.2789
0.423921
47.6268
0.404607
47.9718
0.384721
48.3141
0.364277
48.6539
0.343288
48.9913
0.321767
49.3264
0.299728
49.6596
0.277183
49.9908
0.254147
50.3203
0.230634
50.6482
0.206659
50.9746
0.182236
51.2997
0.157379
51.6235
0.132105
51.9463
0.106427
52.2681
0.0803623
52.589
0.0539254
52.9092
0.0271327
53.2288
0
53.5478
-0.0274565
53.8663
-0.0552206
54.1845
-0.0832757
54.5025
-0.111605
54.8202
-0.140192
55.1379
-0.169019
55.4555
-0.198071
55.7732
-0.227328
56.091
-0.256774
56.409
-0.286392
56.7272
-0.316164
57.0457
-0.346073
57.3645
-0.3761
57.6838
-0.406229
58.0035
-0.43644
58.3236
-0.466718
58.6443
-0.497042
58.9656
-0.527397
59.2874
-0.557763
59.6099
-0.588122
59.933
-0.618458
60.2568
-0.64875
60.5813
-0.678983
60.9064
-0.709137
61.2323
-0.739195
61.5588
-0.76914
61.8861
-0.798952
62.2141
-0.828614
62.5428
-0.85811
62.8722
-0.887419
63.2023
-0.916527
63.5331
-0.945414
63.8645
-0.974065
64.1968
-1.00246
64.5288
-1.03059
64.8644
-1.05839
65.1912
-1.08603
65.5476
-1.11289
-1.14087
65.8153
38.3464
0.76362
-37.9186
38.7678
0.757477
39.1822
0.750509
39.5899
0.742723
39.9911
0.734125
40.3861
0.724722
40.775
0.714522
41.1583
0.703531
41.5361
0.691759
41.9086
0.679214
42.2762
0.665905
42.6389
0.65184
42.9971
0.637031
43.3509
0.621487
43.7007
0.605217
44.0465
0.588235
44.3886
0.570549
44.7272
0.552172
45.0624
0.533115
45.3945
0.513391
45.7237
0.493013
46.0501
0.471991
46.3738
0.450341
46.6951
0.428074
47.0142
0.405205
47.3311
0.381748
47.646
0.357716
47.9591
0.333125
48.2704
0.307988
48.5803
0.282322
48.8887
0.256141
49.1958
0.229461
49.5018
0.202298
49.8067
0.174667
50.1107
0.146585
50.4138
0.11807
50.7162
0.0891359
51.0181
0.0598018
51.3194
0.0300839
51.6203
0
51.9208
-0.0304324
52.2212
-0.0611957
52.5213
-0.0922715
52.8214
-0.123642
53.1216
-0.155289
53.4217
-0.187195
53.7221
-0.219339
54.0226
-0.251704
54.3234
-0.284271
54.6246
-0.317021
54.9261
-0.349935
55.2281
-0.382993
55.5306
-0.416177
55.8336
-0.449467
56.1371
-0.482843
56.4413
-0.516287
56.7462
-0.549778
57.0517
-0.583298
57.3579
-0.616826
57.6649
-0.650343
57.9726
-0.683829
58.281
-0.717265
58.5903
-0.750632
58.9004
-0.783908
59.2113
-0.817076
59.523
-0.850115
59.8355
-0.883007
60.1488
-0.915731
60.463
-0.948268
60.7779
-0.9806
61.0937
-1.01271
61.4103
-1.04457
61.7275
-1.07617
62.0458
-1.10748
62.3639
-1.13851
62.6856
-1.16917
62.999
-1.19965
63.3408
-1.22927
-1.26012
63.5982
37.7408
0.848453
-37.3495
38.1265
0.840999
38.5061
0.832669
38.8799
0.82347
39.248
0.81341
39.6106
0.802493
39.9681
0.790729
40.3206
0.778125
40.6683
0.76469
41.0115
0.750433
41.3503
0.735362
41.685
0.719487
42.0157
0.70282
42.3427
0.685369
42.6662
0.667147
42.9863
0.648164
43.3032
0.628433
43.6171
0.607964
43.9281
0.586772
44.2365
0.564868
44.5423
0.542265
44.8458
0.518978
45.1471
0.495019
45.4464
0.470404
45.7437
0.445146
46.0393
0.419261
46.3332
0.392763
46.6257
0.365669
46.9167
0.337993
47.2065
0.309752
47.4952
0.280962
47.7829
0.251641
48.0697
0.221804
48.3557
0.191469
48.641
0.160654
48.9257
0.129376
49.2099
0.0976532
49.4938
0.065504
49.7773
0.0329466
50.0607
0
50.3439
-0.0333171
50.627
-0.0669859
50.9102
-0.100987
51.1934
-0.1353
51.4769
-0.169907
51.7606
-0.204786
52.0445
-0.239919
52.3289
-0.275285
52.6136
-0.310863
52.8988
-0.346634
53.1846
-0.382577
53.4709
-0.418671
53.7578
-0.454895
54.0453
-0.491229
54.3336
-0.527652
54.6226
-0.564142
54.9123
-0.600679
55.2028
-0.637243
55.4941
-0.67381
55.7863
-0.710361
56.0793
-0.746875
56.3732
-0.783329
56.6679
-0.819704
56.9636
-0.855978
57.2601
-0.89213
57.5576
-0.928138
57.8559
-0.963983
58.1552
-0.999643
58.4554
-1.0351
58.7564
-1.07032
59.0584
-1.10531
59.3613
-1.14002
59.6649
-1.17444
59.9696
-1.20856
60.2743
-1.24236
60.5826
-1.27576
60.8831
-1.30896
61.2107
-1.34123
-1.37481
61.4581
37.1132
0.932566
-36.7553
37.4663
0.923738
37.814
0.913989
38.1567
0.903324
38.4944
0.891752
38.8274
0.879278
39.1559
0.865912
39.4801
0.85166
39.8001
0.836532
40.1163
0.820536
40.4286
0.803683
40.7374
0.785982
41.0429
0.767445
41.3451
0.748081
41.6442
0.727903
41.9405
0.706922
42.234
0.68515
42.525
0.662601
42.8136
0.639286
43.0999
0.61522
43.3841
0.590416
43.6663
0.564889
43.9467
0.538653
44.2254
0.511723
44.5025
0.484114
44.7782
0.455843
45.0525
0.426924
45.3257
0.397375
45.5978
0.367212
45.8688
0.336453
46.1391
0.305114
46.4085
0.273213
46.6774
0.240768
46.9456
0.207798
47.2134
0.174321
47.4808
0.140356
47.7479
0.105921
48.0149
0.0710377
48.2817
0.0357239
48.5485
0
48.8153
-0.0361139
49.0823
-0.0725974
49.3494
-0.10943
49.6168
-0.146591
49.8845
-0.184059
50.1525
-0.221814
50.421
-0.259833
50.69
-0.298096
50.9596
-0.336581
51.2297
-0.375266
51.5004
-0.41413
51.7718
-0.453149
52.044
-0.492303
52.3169
-0.531568
52.5906
-0.570924
52.8651
-0.610346
53.1404
-0.649813
53.4166
-0.689303
53.6938
-0.728792
53.9718
-0.768259
54.2508
-0.80768
54.5307
-0.847034
54.8116
-0.886298
55.0934
-0.925449
55.3763
-0.964464
55.6601
-1.00332
55.9449
-1.042
56.2307
-1.08047
56.5174
-1.11872
56.8052
-1.15673
57.0939
-1.19446
57.3835
-1.23191
57.6741
-1.26904
57.9658
-1.30583
58.2575
-1.34229
58.5528
-1.37831
58.8408
-1.41412
59.1547
-1.44893
-1.48512
59.3925
36.4675
1.01584
-36.1402
36.7907
1.00558
37.1093
0.994365
37.4234
0.982192
37.7333
0.969069
38.039
0.955003
38.3409
0.940004
38.639
0.924077
38.9336
0.907234
39.2248
0.889483
39.5128
0.870834
39.7977
0.851297
40.0797
0.830884
40.359
0.809605
40.6356
0.787473
40.9098
0.764499
41.1817
0.740697
41.4515
0.71608
41.7192
0.690661
41.985
0.664454
42.2491
0.637474
42.5115
0.609735
42.7725
0.581254
43.032
0.552044
43.2903
0.522124
43.5474
0.491509
43.8035
0.460215
44.0586
0.428261
44.3129
0.395663
44.5665
0.36244
44.8194
0.32861
45.0718
0.294192
45.3238
0.259204
45.5754
0.223666
45.8267
0.187597
46.0779
0.151018
46.329
0.113947
46.58
0.0764073
46.8311
0.0384179
47.0823
0
47.3337
-0.038825
47.5854
-0.0780356
47.8374
-0.11761
48.0898
-0.157527
48.3426
-0.197763
48.5959
-0.238297
48.8498
-0.279105
49.1042
-0.320166
49.3594
-0.361456
49.6152
-0.402953
49.8717
-0.444633
50.129
-0.486472
50.3871
-0.528448
50.6461
-0.570537
50.9059
-0.612715
51.1667
-0.654959
51.4284
-0.697245
51.691
-0.739549
51.9546
-0.781848
52.2192
-0.824116
52.4847
-0.866332
52.7514
-0.90847
53.019
-0.950507
53.2877
-0.992419
53.5574
-1.03418
53.8282
-1.07577
54.1
-1.11717
54.3728
-1.15834
54.6467
-1.19927
54.9217
-1.23994
55.1976
-1.28031
55.4746
-1.32037
55.7525
-1.3601
56.0316
-1.39946
56.311
-1.43846
56.5937
-1.47699
56.8697
-1.51529
57.1704
-1.55252
-1.59122
57.3987
35.8073
1.09815
-35.5079
36.1031
1.08643
36.3949
1.07371
36.6828
1.05999
36.9671
1.04529
37.2479
1.02961
37.5252
1.01295
37.7994
0.99533
38.0705
0.976756
38.3387
0.957238
38.6042
0.936784
38.867
0.915407
39.1274
0.893117
39.3854
0.869926
39.6413
0.845846
39.8951
0.82089
40.1469
0.795071
40.3969
0.768403
40.6453
0.7409
40.8921
0.712576
41.1375
0.683446
41.3815
0.653527
41.6243
0.622834
41.866
0.591382
42.1067
0.55919
42.3465
0.526274
42.5855
0.492652
42.8238
0.458342
43.0614
0.423362
43.2986
0.387731
43.5354
0.351468
43.7718
0.314593
44.008
0.277125
44.244
0.239085
44.4799
0.200493
44.7158
0.161371
44.9518
0.121739
45.1878
0.0816181
45.4241
0.0410312
45.6607
0
45.8976
-0.0414533
46.1348
-0.0833062
46.3726
-0.125536
46.6108
-0.168119
46.8496
-0.211032
47.0889
-0.254253
47.329
-0.297756
47.5697
-0.341519
47.8112
-0.385517
48.0534
-0.429726
48.2965
-0.474122
48.5404
-0.51868
48.7852
-0.563376
49.031
-0.608184
49.2777
-0.653081
49.5253
-0.69804
49.774
-0.743038
50.0237
-0.788049
50.2744
-0.833048
50.5261
-0.87801
50.7789
-0.92291
51.0329
-0.967722
51.2878
-1.01242
51.5439
-1.05699
51.8011
-1.10138
52.0594
-1.1456
52.3188
-1.1896
52.5792
-1.23336
52.8408
-1.27686
53.1034
-1.32008
53.3672
-1.36298
53.632
-1.40554
53.8978
-1.44775
54.1648
-1.48957
54.4321
-1.531
54.7028
-1.57194
54.9671
-1.61262
55.2551
-1.65218
-1.69326
55.4744
35.1356
1.17942
-34.8619
35.4063
1.1662
35.6735
1.15195
35.9375
1.13666
36.1982
1.12035
36.4559
1.10303
36.7108
1.08471
36.9629
1.06538
37.2124
1.04507
37.4594
1.02377
37.7041
1.00151
37.9465
0.978295
38.1869
0.954132
38.4253
0.929036
38.6619
0.903018
38.8967
0.876093
39.13
0.848274
39.3617
0.819575
39.5921
0.79001
39.8212
0.759595
40.0492
0.728346
40.276
0.696277
40.502
0.663407
40.727
0.629752
40.9513
0.595329
41.175
0.560156
41.398
0.524252
41.6206
0.487634
41.8427
0.450324
42.0646
0.41234
42.2862
0.373701
42.5077
0.334429
42.729
0.294544
42.9504
0.254067
43.1718
0.21302
43.3934
0.171424
43.6151
0.129301
43.8372
0.0866745
44.0595
0.0435664
44.2823
0
44.5055
-0.0440015
44.7292
-0.0884143
44.9534
-0.133215
45.1783
-0.178379
45.4038
-0.223882
45.63
-0.2697
45.8569
-0.315807
46.0847
-0.36218
46.3132
-0.408792
46.5426
-0.455619
46.7729
-0.502634
47.0042
-0.549814
47.2364
-0.59713
47.4696
-0.644558
47.7037
-0.692072
47.939
-0.739645
48.1752
-0.787252
48.4126
-0.834867
48.651
-0.882462
48.8906
-0.930013
49.1312
-0.977492
49.373
-1.02487
49.6159
-1.07213
49.86
-1.11924
50.1052
-1.16617
50.3515
-1.2129
50.599
-1.25939
50.8476
-1.30564
51.0973
-1.3516
51.3482
-1.39726
51.6002
-1.44259
51.8533
-1.48755
52.1075
-1.53214
52.3629
-1.57631
52.6187
-1.62007
52.8778
-1.6633
53.1309
-1.70627
53.4066
-1.74806
-1.79141
53.6171
34.4552
1.25957
-34.205
34.7029
1.24483
34.9476
1.22901
35.1895
1.21214
35.4286
1.19421
35.6652
1.17524
35.8993
1.15523
36.131
1.13419
36.3606
1.11213
36.5881
1.08907
36.8135
1.065
37.0372
1.03995
37.259
1.01392
37.4793
0.986928
37.698
0.958987
37.9153
0.930109
38.1313
0.900309
38.3461
0.869601
38.5598
0.838
38.7724
0.805522
38.9842
0.772183
39.1951
0.737999
39.4053
0.702988
39.6149
0.667167
39.8239
0.630555
40.0324
0.59317
40.2406
0.55503
40.4485
0.516156
40.6561
0.476566
40.8636
0.436283
41.071
0.395325
41.2784
0.353715
41.4859
0.311474
41.6936
0.268624
41.9014
0.225186
42.1095
0.181185
42.3179
0.136642
42.5267
0.0915809
42.736
0.0460257
42.9457
0
43.156
-0.0464719
43.3669
-0.0933654
43.5784
-0.140656
43.7907
-0.188318
44.0037
-0.236326
44.2174
-0.284655
44.432
-0.333279
44.6475
-0.382172
44.8638
-0.431309
45.081
-0.480661
45.2993
-0.530204
45.5185
-0.57991
45.7387
-0.629752
45.9599
-0.679704
46.1823
-0.729738
46.4057
-0.779828
46.6302
-0.829946
46.8558
-0.880065
47.0825
-0.930157
47.3105
-0.980195
47.5395
-1.03015
47.7697
-1.08
48.0011
-1.12971
48.2337
-1.17926
48.4674
-1.22862
48.7024
-1.27776
48.9384
-1.32666
49.1757
-1.37528
49.4142
-1.42361
49.6538
-1.47161
49.8945
-1.51925
50.1364
-1.56652
50.3794
-1.61338
50.6236
-1.65981
50.8683
-1.70579
51.1162
-1.75123
51.3586
-1.79637
51.6224
-1.84029
-1.88581
51.8246
33.7687
1.33853
-33.54
33.9953
1.32224
34.2193
1.30485
34.4409
1.28638
34.6601
1.26682
34.8772
1.24619
35.0922
1.2245
35.3052
1.20174
35.5164
1.17794
35.7258
1.1531
35.9336
1.12724
36.1398
1.10036
36.3445
1.07247
36.548
1.0436
36.7501
1.01375
36.9512
0.982941
37.1512
0.951182
37.3502
0.918489
37.5484
0.884879
37.7457
0.850367
37.9424
0.814971
38.1385
0.778706
38.3341
0.741592
38.5292
0.703645
38.7239
0.664886
38.9184
0.625332
39.1127
0.585004
39.3068
0.543921
39.5009
0.502105
39.6949
0.459576
39.8891
0.416355
40.0833
0.372465
40.2778
0.327928
40.4725
0.282767
40.6676
0.237003
40.8631
0.190663
41.0589
0.143767
41.2553
0.096342
41.4522
0.0484114
41.6497
0
41.8479
-0.048867
42.0467
-0.0981639
42.2463
-0.147865
42.4466
-0.197945
42.6478
-0.248377
42.8498
-0.299135
43.0527
-0.350191
43.2565
-0.401519
43.4612
-0.453092
43.667
-0.504883
43.8737
-0.556863
44.0815
-0.609006
44.2904
-0.661283
44.5003
-0.713666
44.7114
-0.766128
44.9235
-0.81864
45.1369
-0.871174
45.3513
-0.923702
45.567
-0.976196
45.7838
-1.02863
46.0018
-1.08096
46.221
-1.13318
46.4414
-1.18525
46.663
-1.23715
46.8858
-1.28884
47.1098
-1.34029
47.335
-1.39149
47.5614
-1.44239
47.7891
-1.49298
48.0178
-1.54322
48.2478
-1.59309
48.479
-1.64256
48.7112
-1.6916
48.9448
-1.74018
49.1788
-1.7883
49.416
-1.83584
49.648
-1.88307
49.9004
-1.92903
-1.97662
50.0944
33.0782
1.41623
-32.8693
33.2854
1.39839
33.4904
1.37942
33.6934
1.35934
33.8944
1.33815
34.0935
1.31586
34.2909
1.29248
34.4867
1.26801
34.6809
1.24247
34.8736
1.21586
35.065
1.18821
35.2551
1.15951
35.444
1.12979
35.6319
1.09906
35.8187
1.06732
36.0047
1.0346
36.1898
1.0009
36.3742
0.96625
36.5579
0.930659
36.7411
0.894145
36.9238
0.856724
37.1061
0.818414
37.288
0.779234
37.4696
0.739202
37.6511
0.698337
37.8324
0.65666
38.0137
0.61419
38.195
0.570948
38.3763
0.526955
38.5578
0.482233
38.7395
0.436805
38.9215
0.390692
39.1037
0.343918
39.2864
0.296506
39.4695
0.24848
39.653
0.199864
39.8371
0.150683
40.0218
0.100962
40.2071
0.0507258
40.3931
0
40.5798
-0.0511891
40.7672
-0.102815
40.9555
-0.154852
41.1446
-0.207272
41.3346
-0.260048
41.5255
-0.313154
41.7173
-0.366562
41.9101
-0.420242
42.1039
-0.474168
42.2988
-0.528312
42.4947
-0.582644
42.6917
-0.637137
42.8897
-0.69176
43.0889
-0.746487
43.2893
-0.801287
43.4908
-0.856132
43.6935
-0.910991
43.8973
-0.965837
44.1024
-1.02064
44.3086
-1.07537
44.5161
-1.13
44.7248
-1.18449
44.9347
-1.23883
45.1459
-1.29297
45.3583
-1.3469
45.5719
-1.40058
45.7867
-1.45398
46.0027
-1.50707
46.22
-1.55983
46.4384
-1.61222
46.658
-1.66422
46.8789
-1.71579
47.1008
-1.76692
47.3241
-1.81757
47.5479
-1.86772
47.7748
-1.91728
47.9968
-1.96649
48.2383
-2.01441
-2.06397
48.4245
32.3858
1.49264
-32.195
32.5752
1.47324
32.7628
1.45269
32.9486
1.431
33.1328
1.40817
33.3154
1.38422
33.4966
1.35915
33.6764
1.33298
33.8549
1.30571
34.0322
1.27735
34.2085
1.24791
34.3837
1.21742
34.558
1.18588
34.7314
1.15329
34.9041
1.11969
35.076
1.08508
35.2474
1.04947
35.4182
1.01289
35.5885
0.975352
35.7585
0.936867
35.9281
0.897456
36.0975
0.857138
36.2667
0.81593
36.4358
0.773853
36.6048
0.730926
36.7739
0.687169
36.943
0.642604
37.1123
0.597251
37.2818
0.551133
37.4515
0.504271
37.6216
0.456689
37.792
0.408409
37.9628
0.359456
38.1341
0.309854
38.306
0.259626
38.4784
0.208798
38.6514
0.157396
38.8251
0.105445
38.9994
0.0529707
39.1746
0
39.3505
-0.0534404
39.5272
-0.107323
39.7048
-0.161622
39.8833
-0.216307
40.0628
-0.271353
40.2432
-0.326729
40.4245
-0.382409
40.6069
-0.438362
40.7904
-0.494561
40.9749
-0.550976
41.1605
-0.607578
41.3472
-0.664337
41.5351
-0.721223
41.7241
-0.778208
41.9143
-0.83526
42.1057
-0.89235
42.2982
-0.949448
42.492
-1.00652
42.687
-1.06355
42.8832
-1.12049
43.0807
-1.17732
43.2794
-1.234
43.4793
-1.29051
43.6805
-1.34682
43.8829
-1.40289
44.0865
-1.4587
44.2914
-1.51421
44.4975
-1.5694
44.7049
-1.62424
44.9134
-1.67869
45.1232
-1.73273
45.3341
-1.78632
45.5462
-1.83945
45.7597
-1.89207
45.9737
-1.94418
46.1906
-1.99566
46.4031
-2.04678
46.634
-2.09656
-2.148
46.8127
31.6933
1.56772
-31.5191
31.8663
1.54675
32.0378
1.52461
32.2079
1.50131
32.3766
1.47686
32.544
1.45125
32.7102
1.42451
32.8753
1.39664
33.0394
1.36765
33.2025
1.33755
33.3647
1.30635
33.5262
1.27408
33.6869
1.24073
33.8469
1.20632
34.0064
1.17088
34.1654
1.1344
34.324
1.09691
34.4822
1.05843
34.6401
1.01897
34.7977
0.978549
34.9552
0.937183
35.1126
0.894893
35.27
0.851698
35.4273
0.807616
35.5848
0.76267
35.7424
0.716878
35.9002
0.670264
36.0583
0.622848
36.2166
0.574654
36.3754
0.525704
36.5345
0.476021
36.6941
0.42563
36.8542
0.374555
37.0149
0.322819
37.1761
0.27045
37.338
0.217472
37.5007
0.163911
37.664
0.109795
37.8281
0.0551484
37.993
0
38.1588
-0.0556231
38.3254
-0.111693
38.493
-0.168182
38.6615
-0.225061
38.8309
-0.282302
39.0014
-0.339874
39.1729
-0.397751
39.3455
-0.4559
39.5191
-0.514294
39.6939
-0.572902
39.8697
-0.631694
40.0467
-0.690639
40.2249
-0.749707
40.4043
-0.808867
40.5848
-0.868089
40.7665
-0.927343
40.9495
-0.986595
41.1337
-1.04582
41.3191
-1.10498
41.5057
-1.16404
41.6937
-1.22298
41.8828
-1.28177
42.0732
-1.34037
42.2649
-1.39875
42.4578
-1.45689
42.6519
-1.51474
42.8473
-1.57228
43.044
-1.62948
43.2418
-1.68631
43.4409
-1.74274
43.6412
-1.79873
43.8427
-1.85426
44.0454
-1.9093
44.2494
-1.9638
44.454
-2.01778
44.6614
-2.0711
44.8647
-2.12404
45.0855
-2.17561
-2.22884
45.2569
31.0022
1.64143
-30.8432
31.1602
1.6189
31.3169
1.59518
31.4724
1.57028
31.6269
1.5442
31.7802
1.51695
31.9327
1.48854
32.0842
1.45898
32.2349
1.42829
32.3849
1.39646
32.5342
1.36353
32.6829
1.32949
32.8311
1.29436
32.9787
1.25815
33.126
1.22088
33.273
1.18257
33.4197
1.14323
33.5661
1.10288
33.7124
1.06153
33.8587
1.01921
34.0049
0.975921
34.1511
0.931697
34.2974
0.886552
34.4439
0.840508
34.5905
0.793584
34.7374
0.745803
34.8846
0.697185
35.0322
0.647755
35.1802
0.597534
35.3286
0.546546
35.4775
0.494815
35.627
0.442367
35.777
0.389224
35.9277
0.335414
36.079
0.280961
36.2311
0.225893
36.3839
0.170235
36.5375
0.114015
36.692
0.057261
36.8473
0
37.0035
-0.0577395
37.1606
-0.115929
37.3186
-0.174539
37.4777
-0.233542
37.6378
-0.292907
37.7989
-0.352604
37.961
-0.412604
38.1243
-0.472876
38.2887
-0.53339
38.4542
-0.594115
38.6208
-0.65502
38.7886
-0.716073
38.9576
-0.777245
39.1278
-0.838503
39.2991
-0.899816
39.4717
-0.961152
39.6456
-1.02248
39.8206
-1.08377
39.997
-1.14498
40.1745
-1.20609
40.3533
-1.26707
40.5334
-1.32787
40.7147
-1.38848
40.8973
-1.44885
41.0811
-1.50896
41.2662
-1.56878
41.4526
-1.62827
41.6402
-1.6874
41.829
-1.74613
42.019
-1.80445
42.2103
-1.86232
42.4027
-1.9197
42.5963
-1.97656
42.7913
-2.03288
42.9868
-2.08864
43.1852
-2.14372
43.3797
-2.19841
43.5907
-2.25168
-2.30662
43.7552
30.3138
1.71374
-30.169
30.458
1.68966
30.6012
1.66437
30.7434
1.63787
30.8846
1.61018
31.0251
1.5813
31.1648
1.55124
31.3038
1.52001
31.4422
1.48763
31.58
1.4541
31.7174
1.41944
31.8543
1.38365
31.9908
1.34677
32.127
1.30878
32.263
1.26973
32.3988
1.22961
32.5344
1.18844
32.67
1.14625
32.8055
1.10305
32.9411
1.05885
33.0768
1.01369
33.2126
0.967566
33.3487
0.920512
33.4849
0.872545
33.6215
0.823687
33.7584
0.773959
33.8957
0.723385
34.0335
0.671987
34.1717
0.619788
34.3105
0.566812
34.4499
0.513086
34.5898
0.458632
34.7304
0.403477
34.8717
0.347647
35.0138
0.291168
35.1566
0.234067
35.3002
0.176373
35.4447
0.118111
35.59
0.0593104
35.7363
0
35.8834
-0.0597916
36.0316
-0.120035
36.1807
-0.180701
36.3309
-0.241759
36.482
-0.303179
36.6343
-0.364931
36.7876
-0.426985
36.9421
-0.489308
37.0977
-0.551869
37.2544
-0.614639
37.4123
-0.677583
37.5714
-0.740672
37.7317
-0.803872
37.8931
-0.867152
38.0558
-0.93048
38.2198
-0.993822
38.3849
-1.05715
38.5513
-1.12042
38.719
-1.18361
38.8879
-1.24669
39.058
-1.30962
39.2295
-1.37237
39.4021
-1.4349
39.5761
-1.49719
39.7513
-1.5592
39.9277
-1.62089
40.1054
-1.68225
40.2843
-1.74323
40.4645
-1.8038
40.6459
-1.86393
40.8285
-1.92358
41.0123
-1.98274
41.1972
-2.04136
41.3835
-2.0994
41.5705
-2.15687
41.7601
-2.21364
41.9461
-2.26998
42.1478
-2.32488
-2.38145
42.3057
29.6296
1.78465
-29.4976
29.7611
1.75903
29.8917
1.73217
30.0216
1.70409
30.1508
1.6748
30.2793
1.6443
30.4073
1.6126
30.5347
1.57972
30.6617
1.54567
30.7883
1.51046
30.9146
1.47409
31.0406
1.43659
31.1663
1.39797
31.2919
1.35824
31.4174
1.31742
31.5428
1.27552
31.6682
1.23256
31.7937
1.18856
31.9192
1.14354
32.0449
1.09751
32.1708
1.0505
32.2969
1.00252
32.4234
0.953593
32.5502
0.903745
32.6773
0.852995
32.8049
0.801365
32.933
0.748879
33.0616
0.695559
33.1907
0.641431
33.3204
0.586517
33.4508
0.530844
33.5819
0.474438
33.7137
0.417324
33.8462
0.359528