/*--------------------------------*- C++ -*----------------------------------*\
| =========                 |                                                 |
| \\      /  F ield         | OpenFOAM: The Open Source CFD Toolbox           |
|  \\    /   O peration     | Version:  2312                                  |
|   \\  /    A nd           | Website:  www.openfoam.com                      |
|    \\/     M anipulation  |                                                 |
\*---------------------------------------------------------------------------*/
FoamFile
{
    version     2.0;
    format      ascii;
    arch        "LSB;label=32;scalar=64";
    class       surfaceScalarField;
    location    "0.431";
    object      phi;
}
// * * * * * * * * * * * * * * * * * * * * * * * * * * * * * * * * * * * * * //

dimensions      [0 3 -1 0 0 0 0];

oriented        oriented;

internalField   nonuniform List<scalar> 
62015
(
87.1616
0.169998
-87.5766
86.7385
0.166032
86.3072
0.161999
85.8676
0.157899
85.4195
0.153738
84.9627
0.149518
84.4969
0.145242
84.0218
0.140914
83.5373
0.136537
83.0428
0.132114
82.538
0.127649
82.0225
0.123145
81.4958
0.118607
80.9574
0.114038
80.4066
0.109441
79.8427
0.104821
79.2651
0.100182
78.6728
0.0955273
78.0649
0.0908615
77.4404
0.0861891
76.798
0.0815146
76.1364
0.076842
75.454
0.0721763
74.7492
0.0675225
74.0199
0.0628853
73.2638
0.0582703
72.4782
0.0536824
71.66
0.049128
70.8054
0.0446129
69.9101
0.0401434
68.9686
0.0357263
67.9743
0.0313694
66.9188
0.0270812
65.7913
0.02287
64.5768
0.0187472
63.2555
0.0147237
61.8045
0.0108151
60.1886
0.00704107
58.3005
0.00342466
55.8516
0
52.4012
-0.00315219
47.7754
-0.00585197
42.5581
-0.0078977
37.8449
-0.00931009
34.3943
-0.0103923
32.2498
-0.0114699
31.0591
-0.0126959
30.4553
-0.0140826
30.19
-0.0155963
30.1205
-0.0172019
30.1688
-0.018875
30.292
-0.0206006
30.4659
-0.0223692
30.6757
-0.0241753
30.9125
-0.0260146
31.1701
-0.0278844
31.4445
-0.0297824
31.7326
-0.031707
32.0323
-0.0336564
32.3419
-0.035629
32.6601
-0.0376236
32.9859
-0.0396388
33.3185
-0.0416729
33.6572
-0.0437248
34.0015
-0.0457933
34.351
-0.0478767
34.7052
-0.0499738
35.0639
-0.0520831
35.4267
-0.0542034
35.7934
-0.0563331
36.1639
-0.058471
36.5381
-0.0606154
36.9154
-0.0627654
37.2966
-0.0649182
37.6793
-0.0670763
38.0702
-0.0692263
38.4483
-0.0714035
38.8779
-0.0734919
-0.0758491
39.1614
84.2852
0.333832
-84.6924
83.8706
0.326022
83.4486
0.318081
83.0189
0.310015
82.5815
0.301829
82.1361
0.293529
81.6825
0.285122
81.2204
0.276615
80.7496
0.268013
80.2696
0.259324
79.7802
0.250554
79.2809
0.24171
78.7712
0.232799
78.2507
0.223829
77.7187
0.214806
77.1747
0.20574
76.6178
0.196637
76.0473
0.187504
75.4624
0.178351
74.862
0.169186
74.2449
0.160016
73.61
0.150852
72.9557
0.141701
72.2806
0.132574
71.5826
0.12348
70.8596
0.11443
70.1092
0.105432
69.3285
0.0965003
68.5139
0.0876444
67.6615
0.0788778
66.7661
0.0702131
65.8218
0.0616653
64.8209
0.0532496
63.7536
0.0449845
62.6064
0.036889
61.3612
0.0289862
59.9968
0.0213041
58.4837
0.0138794
56.7393
0.00675779
54.527
0
51.4372
-0.00625475
47.209
-0.0116822
42.2419
-0.0158671
37.5392
-0.0187527
33.9453
-0.0208723
31.6348
-0.0229058
30.3174
-0.0252174
29.6289
-0.0278639
29.3072
-0.0307801
29.1973
-0.0338916
29.2137
-0.0371443
29.3097
-0.0405046
29.4587
-0.0439513
29.6451
-0.0474718
29.8593
-0.0510572
30.0948
-0.0547017
30.3473
-0.0584007
30.6138
-0.0621502
30.8919
-0.0659471
31.18
-0.0697884
31.4768
-0.0736712
31.7812
-0.0775928
32.0924
-0.0815507
32.4097
-0.085542
32.7325
-0.0895641
33.0605
-0.0936145
33.3932
-0.0976904
33.7303
-0.101789
34.0716
-0.105908
34.4167
-0.110045
34.7655
-0.114196
35.1179
-0.118359
35.4735
-0.122532
35.8328
-0.12671
36.1937
-0.130896
36.5624
-0.135068
36.9193
-0.139288
37.3242
-0.143342
-0.1479
37.5948
81.4847
0.491614
-81.884
81.0785
0.480082
80.6657
0.46836
80.2459
0.456457
79.8189
0.444381
79.3847
0.432141
78.943
0.419746
78.4935
0.407206
78.0359
0.39453
77.57
0.381727
77.0953
0.368809
76.6115
0.355783
76.1181
0.342662
75.6146
0.329456
75.1005
0.316175
74.5752
0.30283
74.038
0.289433
73.4881
0.275995
72.9248
0.262528
72.347
0.249043
71.7537
0.235554
71.1437
0.222074
70.5157
0.208614
69.8682
0.195189
69.1993
0.181814
68.5072
0.168502
67.7894
0.155269
67.0432
0.142131
66.2655
0.129105
65.4524
0.116209
64.5993
0.103462
63.7006
0.0908852
62.7493
0.0785009
61.7364
0.0663351
60.6496
0.0544156
59.4724
0.0427758
58.1849
0.0314553
56.7612
0.0205057
55.1354
0.00999224
53.1116
0
50.3177
-0.00928854
46.4471
-0.0174363
41.7525
-0.0238215
37.1276
-0.0282454
33.4553
-0.0313913
31.0191
-0.034291
29.5953
-0.0375695
28.8326
-0.0413604
28.4602
-0.0455766
28.3134
-0.0501013
28.3006
-0.0548467
28.3714
-0.0597569
28.4974
-0.0647973
28.662
-0.0699469
28.855
-0.0751917
29.0698
-0.0805221
29.3019
-0.0859311
29.548
-0.0914127
29.8059
-0.0969622
30.0738
-0.102575
30.3503
-0.108247
30.6345
-0.113973
30.9255
-0.119751
31.2226
-0.125577
31.5252
-0.131445
31.8328
-0.137354
32.1452
-0.143298
32.462
-0.149273
32.7828
-0.155278
33.1075
-0.161305
33.4358
-0.167354
33.7677
-0.173418
34.1027
-0.179494
34.4413
-0.185577
34.7816
-0.191671
35.1292
-0.197742
35.4661
-0.203882
35.8476
-0.209784
-0.216397
36.105
78.7661
0.643503
-79.1572
78.3687
0.62837
77.9652
0.612993
77.5553
0.597383
77.139
0.58155
76.716
0.565507
76.286
0.549265
75.8489
0.532836
75.4044
0.516233
74.9522
0.499467
74.4919
0.482553
74.0231
0.465502
73.5455
0.448329
73.0586
0.431046
72.5617
0.413668
72.0545
0.39621
71.5362
0.378684
71.0061
0.361108
70.4634
0.343494
69.9072
0.32586
69.3366
0.308221
68.7504
0.290594
68.1473
0.272995
67.5259
0.255443
66.8846
0.237956
66.2215
0.220551
65.5344
0.20325
64.8207
0.186072
64.0776
0.16904
63.3013
0.152177
62.4877
0.135507
61.6315
0.119058
60.7262
0.102858
59.7635
0.0869401
58.7323
0.0713405
57.6174
0.0561017
56.4001
0.0412736
55.0572
0.0269219
53.5345
0.0131285
51.6687
0
49.1257
-0.0122483
45.5775
-0.0230934
41.1595
-0.0317249
36.6516
-0.0377561
32.9442
-0.0419384
30.4104
-0.0456338
28.8946
-0.0497701
28.0647
-0.0545948
27.6457
-0.0600114
27.4649
-0.0658598
27.425
-0.0720145
27.4725
-0.0783939
27.5771
-0.0849483
27.7215
-0.0916465
27.8948
-0.0984689
28.0903
-0.105402
28.3032
-0.112435
28.5302
-0.119562
28.7691
-0.126774
29.018
-0.134067
29.2756
-0.141434
29.5408
-0.148871
29.8127
-0.156372
30.0907
-0.163932
30.3742
-0.171547
30.6628
-0.17921
30.956
-0.186919
31.2535
-0.194666
31.5551
-0.202448
31.8604
-0.210259
32.1694
-0.218094
32.4818
-0.225949
32.7973
-0.233818
33.1164
-0.241693
33.4372
-0.24958
33.7649
-0.257437
34.0829
-0.265379
34.4424
-0.273019
-0.281554
34.6865
76.1311
0.789668
-76.5137
75.7428
0.771056
75.3488
0.752149
74.9491
0.73296
74.5435
0.713503
74.1317
0.693792
73.7136
0.673842
73.2889
0.653666
72.8574
0.63328
72.4188
0.612699
71.9727
0.591939
71.5188
0.571014
71.0566
0.549943
70.5858
0.528741
70.1058
0.507424
69.6162
0.486011
69.1162
0.464518
68.6052
0.442964
68.0825
0.421368
67.5473
0.399747
66.9985
0.378122
66.4351
0.356513
65.856
0.334939
65.2597
0.313423
64.6448
0.291987
64.0095
0.270652
63.3517
0.249444
62.669
0.228387
61.9587
0.207508
61.2174
0.186833
60.4412
0.166394
59.6252
0.146223
58.7634
0.126354
57.8481
0.106827
56.8691
0.087686
55.8125
0.0689807
54.6609
0.0507716
53.3931
0.0331352
51.964
0.0161695
50.2375
0
47.9168
-0.0151345
44.6669
-0.0286496
40.5262
-0.0395701
36.1592
-0.0472871
32.4423
-0.0525339
29.8255
-0.056968
28.2233
-0.0618551
27.3281
-0.0676002
26.8634
-0.0741151
26.6496
-0.081197
26.5838
-0.0886784
26.6091
-0.0964486
26.6936
-0.10444
26.8188
-0.112609
26.9737
-0.120931
27.1509
-0.129387
27.3458
-0.137964
27.5549
-0.146653
27.7759
-0.155443
28.007
-0.164329
28.2466
-0.173303
28.4939
-0.18236
28.7479
-0.191492
29.008
-0.200693
29.2735
-0.209958
29.544
-0.219281
29.8191
-0.228655
30.0984
-0.238074
30.3818
-0.247533
30.6689
-0.257025
30.9596
-0.266544
31.2536
-0.276084
31.5508
-0.28564
31.8514
-0.2952
32.1537
-0.304774
32.4626
-0.314309
32.7626
-0.323942
33.1014
-0.333215
-0.343547
33.3326
73.579
0.930281
-73.9528
73.2
0.90831
72.8159
0.885997
72.4266
0.863357
72.0318
0.840406
71.6314
0.817162
71.2251
0.793638
70.8128
0.769855
70.3943
0.745828
69.9691
0.721576
69.537
0.697116
69.0977
0.672467
68.6508
0.647647
68.1959
0.622677
67.7324
0.597575
67.2599
0.572362
66.7778
0.547058
66.2855
0.521684
65.7822
0.496262
65.2672
0.470813
64.7396
0.445361
64.1983
0.419928
63.6423
0.394538
63.0703
0.369217
62.4807
0.343989
61.8721
0.318881
61.2424
0.293922
60.5895
0.269139
59.9107
0.244564
59.2029
0.220229
58.4624
0.196169
57.6847
0.17242
56.8643
0.149024
55.994
0.126025
55.0645
0.103475
54.0631
0.0814306
52.9736
0.059961
51.7764
0.0391536
50.4338
0.0191193
48.8329
0
46.7132
-0.0179485
43.7429
-0.0341033
39.8795
-0.0473521
35.6717
-0.0568435
31.9646
-0.0632046
29.2739
-0.0683347
27.5865
-0.0738674
26.6249
-0.0804156
26.1138
-0.0879223
25.8668
-0.0961448
25.7754
-0.10487
25.7792
-0.113953
25.8443
-0.123306
25.9514
-0.132873
26.0888
-0.142619
26.2488
-0.152522
26.4267
-0.162565
26.6189
-0.172736
26.823
-0.183025
27.0372
-0.193422
27.26
-0.20392
27.4904
-0.21451
27.7275
-0.225186
27.9705
-0.23594
28.219
-0.246765
28.4725
-0.257655
28.7305
-0.268602
28.9927
-0.279599
29.2589
-0.290639
29.5287
-0.301715
29.8021
-0.31282
30.0788
-0.323947
30.3585
-0.335089
30.6416
-0.346234
30.9265
-0.357392
31.2176
-0.368504
31.5005
-0.379724
31.8199
-0.390532
-0.402544
32.0386
71.1083
1.06551
-71.4729
70.7389
1.0403
70.3648
1.0147
69.9859
0.988738
69.6021
0.962423
69.213
0.935775
68.8187
0.908814
68.4188
0.881559
68.013
0.85403
67.6012
0.826246
67.1831
0.798229
66.7582
0.77
66.3263
0.741578
65.8869
0.712988
65.4396
0.68425
64.9839
0.655387
64.5192
0.626423
64.0451
0.597381
63.5607
0.568286
63.0653
0.539162
62.5582
0.510036
62.0383
0.480933
61.5046
0.45188
60.956
0.422906
60.3909
0.394038
59.808
0.365309
59.2054
0.336748
58.581
0.308388
57.9323
0.280264
57.2566
0.252413
56.5504
0.224872
55.8093
0.197686
55.0284
0.170898
54.201
0.144559
53.3186
0.118728
52.3696
0.0934671
51.3389
0.0688539
50.2084
0.0449839
48.9464
0.0219808
47.4598
0
45.5226
-0.0206914
42.8146
-0.0394511
39.2272
-0.0550628
35.1951
-0.0664234
31.5159
-0.0739716
28.7592
-0.0797744
26.9866
-0.0858529
25.9563
-0.0930828
25.3969
-0.10147
25.116
-0.110737
24.9989
-0.120622
24.9815
-0.130941
25.0279
-0.141582
25.1176
-0.152474
25.2383
-0.163573
25.382
-0.17485
25.5438
-0.186286
25.72
-0.197865
25.9082
-0.209574
26.1064
-0.221404
26.3133
-0.233346
26.5277
-0.245389
26.7488
-0.257526
26.9759
-0.269749
27.2083
-0.282049
27.4456
-0.294419
27.6875
-0.306851
27.9335
-0.319336
28.1834
-0.331868
28.437
-0.344436
28.694
-0.357035
28.9543
-0.369655
29.2175
-0.382289
29.4841
-0.394925
29.7524
-0.407571
30.0267
-0.420163
30.2935
-0.432872
30.5944
-0.445121
-0.458701
30.8013
68.7169
1.19552
-69.0723
68.3573
1.16719
67.9933
1.13843
67.625
1.10926
67.2521
1.07971
66.8745
1.04979
66.492
1.01952
66.1044
0.988926
65.7114
0.95803
65.3128
0.926854
64.9084
0.895419
64.4977
0.863749
64.0805
0.831869
63.6563
0.799801
63.2248
0.767572
62.7856
0.735205
62.3379
0.702727
61.8814
0.670165
61.4154
0.637544
60.9391
0.604894
60.4519
0.572241
59.9527
0.539616
59.4406
0.507048
58.9145
0.474568
58.3731
0.442208
57.8149
0.410002
57.2383
0.377983
56.6413
0.346189
56.0217
0.314658
55.3767
0.283429
54.7032
0.252546
53.9972
0.222055
53.254
0.192006
52.4675
0.162455
51.63
0.133465
50.7307
0.105105
49.7557
0.0774598
48.6885
0.0506325
47.5017
0.0247565
46.1193
0
44.3476
-0.0233635
41.8846
-0.0446894
38.5698
-0.06269
34.7282
-0.0760182
31.0955
-0.0848476
28.282
-0.0913243
26.4243
-0.0978584
25.3226
-0.105646
24.7125
-0.114795
24.3963
-0.125008
24.2532
-0.135966
24.2149
-0.147445
24.2431
-0.159302
24.3161
-0.171449
24.4208
-0.183831
24.549
-0.196413
24.6955
-0.20917
24.8566
-0.222085
25.0297
-0.235144
25.2129
-0.248333
25.4047
-0.261642
25.604
-0.275062
25.81
-0.288582
26.0219
-0.302194
26.2392
-0.315889
26.4613
-0.329657
26.6879
-0.34349
26.9186
-0.35738
27.1531
-0.371316
27.3913
-0.385291
27.6328
-0.399296
27.8776
-0.413321
28.1253
-0.427359
28.3762
-0.441395
28.6289
-0.455439
28.8873
-0.469421
29.1388
-0.483526
29.4223
-0.497129
-0.51217
29.6179
66.4029
1.32047
-66.7488
66.0531
1.28914
65.6994
1.25734
65.3417
1.22509
64.9798
1.19242
64.6136
1.15935
64.2428
1.12591
63.8674
1.09211
63.487
1.05797
63.1015
1.02354
62.7105
0.98882
62.3138
0.953848
61.911
0.918645
61.5018
0.883241
61.0857
0.84766
60.6624
0.811931
60.2314
0.776081
59.7921
0.74014
59.3439
0.704137
58.8861
0.668103
58.4181
0.632067
57.9389
0.596062
57.4477
0.560121
56.9433
0.524278
56.4247
0.488567
55.8904
0.453024
55.3388
0.417688
54.7682
0.382597
54.1763
0.347794
53.5608
0.313321
52.9186
0.279227
52.2461
0.24556
51.5389
0.212376
50.7915
0.179735
49.9966
0.147703
49.1445
0.116358
48.2225
0.0857887
47.215
0.0561055
46.0987
0.0274496
44.8116
0
43.1896
-0.025966
40.9536
-0.0498145
37.9057
-0.0702201
34.2675
-0.0856127
30.7008
-0.0958384
27.8415
-0.103018
25.8998
-0.109931
24.7237
-0.118151
24.0603
-0.127941
23.7074
-0.138993
23.5376
-0.150937
23.4784
-0.163498
23.4887
-0.176499
23.5455
-0.189833
23.6349
-0.203431
23.7484
-0.217251
23.8803
-0.231263
24.0271
-0.245446
24.1859
-0.259784
24.3549
-0.274261
24.5324
-0.288867
24.7176
-0.30359
24.9093
-0.31842
25.1069
-0.333346
25.3098
-0.348358
25.5175
-0.363447
25.7297
-0.378604
25.9459
-0.393817
26.1659
-0.409079
26.3895
-0.424379
26.6164
-0.439708
26.8465
-0.455055
27.0795
-0.470412
27.3156
-0.485764
27.5535
-0.50112
27.7969
-0.516407
28.0339
-0.53182
28.3009
-0.546694
-0.563098
28.4859
64.1642
1.44054
-64.5005
63.8243
1.40631
63.4808
1.37158
63.1337
1.33638
62.7827
1.30071
62.4278
1.26462
62.0688
1.22812
61.7054
1.19124
61.3374
1.154
60.9647
1.11643
60.587
1.07856
60.2039
1.04042
59.8153
1.00203
59.4207
0.963426
59.0197
0.92463
58.612
0.885674
58.1971
0.84659
57.7745
0.807409
57.3436
0.768162
56.9037
0.728881
56.4543
0.689601
55.9945
0.650355
55.5234
0.611178
55.0401
0.572108
54.5433
0.533182
54.032
0.494438
53.5044
0.455917
52.9591
0.417663
52.3939
0.379718
51.8067
0.342131
51.1945
0.304951
50.554
0.268233
49.8812
0.232035
49.1709
0.19642
48.4166
0.161462
47.6094
0.12724
46.7375
0.0938498
45.7867
0.061408
44.7364
0.030062
43.5363
0
42.0493
-0.0284994
40.0223
-0.054823
37.2329
-0.0776395
33.8088
-0.0951876
30.3281
-0.106942
27.4359
-0.114884
25.4127
-0.122117
24.1597
-0.130647
23.44
-0.140948
23.0484
-0.15273
22.8512
-0.165567
22.7709
-0.179132
22.7636
-0.193207
22.8047
-0.207661
22.8794
-0.22241
22.9788
-0.237404
23.097
-0.252606
23.2301
-0.267992
23.3754
-0.283543
23.5309
-0.299242
23.695
-0.315077
23.8666
-0.331034
24.0449
-0.347103
24.229
-0.363271
24.4183
-0.379529
24.6125
-0.395866
24.811
-0.412271
25.0136
-0.428734
25.2199
-0.445245
25.4297
-0.461793
25.6427
-0.478367
25.859
-0.494958
26.078
-0.511555
26.3001
-0.528143
26.5241
-0.544731
26.7532
-0.561242
26.9765
-0.577881
27.228
-0.593947
-0.61162
27.4028
61.9987
1.55586
-62.3254
61.6687
1.51886
61.3355
1.48132
60.9989
1.44327
60.6588
1.40473
60.3151
1.36573
59.9675
1.3263
59.616
1.28646
59.2604
1.24624
58.9003
1.20567
58.5355
1.16478
58.1659
1.1236
57.791
1.08215
57.4107
1.04047
57.0244
0.998593
56.6319
0.956544
56.2326
0.914359
55.8262
0.87207
55.4121
0.829711
54.9896
0.787319
54.5582
0.744927
54.117
0.702572
53.6654
0.660293
53.2023
0.618128
52.7267
0.576118
52.2374
0.534303
51.733
0.492727
51.2119
0.451436
50.6723
0.410476
50.1121
0.369898
49.5285
0.329755
48.9187
0.290104
48.2787
0.251008
47.6038
0.212533
46.8881
0.174756
46.1235
0.137762
45.2992
0.101652
44.4019
0.0665457
43.4136
0.0325967
42.2933
0
40.9278
-0.0309654
39.0917
-0.059713
36.5501
-0.0849343
33.3482
-0.10472
29.9733
-0.118149
27.0634
-0.126946
24.9625
-0.134466
23.6304
-0.143188
22.8513
-0.153866
22.4189
-0.166258
22.1932
-0.179893
22.0915
-0.194379
22.0668
-0.209457
22.0925
-0.224965
22.1531
-0.240803
22.2389
-0.256908
22.344
-0.273239
22.4642
-0.289766
22.5967
-0.306467
22.7394
-0.323325
22.8908
-0.340324
23.0498
-0.35745
23.2152
-0.374691
23.3866
-0.392035
23.5631
-0.40947
23.7444
-0.426985
23.9301
-0.444569
24.1197
-0.462211
24.313
-0.479898
24.5098
-0.497621
24.7098
-0.515369
24.9129
-0.533128
25.1188
-0.550891
25.3277
-0.56864
25.5384
-0.586384
25.7541
-0.604043
25.9644
-0.621829
26.2012
-0.639015
-0.657869
26.3665
59.9044
1.66661
-60.2215
59.5843
1.62694
59.2612
1.5867
58.9351
1.54592
58.6058
1.50462
58.2731
1.46284
57.937
1.42059
57.5972
1.37791
57.2535
1.33484
56.9058
1.29139
56.5538
1.2476
56.1972
1.2035
55.8359
1.15912
55.4694
1.1145
55.0974
1.06966
54.7196
1.02464
54.3356
0.979486
53.9449
0.934218
53.547
0.888878
53.1413
0.843501
52.7273
0.798126
52.3042
0.752792
51.8713
0.707538
51.4277
0.662405
50.9724
0.617437
50.5043
0.572676
50.0221
0.528169
49.5243
0.483964
49.0093
0.44011
48.4749
0.39666
47.9188
0.353671
47.3382
0.311202
46.7295
0.269319
46.0884
0.228093
45.4094
0.187603
44.6852
0.147939
43.9059
0.109204
43.0593
0.0715235
42.1292
0.0350555
41.0823
0
39.826
-0.0333646
38.1631
-0.0644827
35.8566
-0.092093
32.8817
-0.114186
29.632
-0.129443
26.7213
-0.139221
24.5488
-0.147024
23.1359
-0.155828
22.2941
-0.166743
21.8184
-0.179621
21.5629
-0.19395
21.4393
-0.209275
21.3971
-0.225283
21.4078
-0.241779
21.4547
-0.258644
21.5276
-0.275801
21.6202
-0.2932
21.7281
-0.310809
21.8485
-0.328601
21.9791
-0.346557
22.1185
-0.364659
22.2654
-0.382892
22.4188
-0.401243
22.5781
-0.419698
22.7425
-0.438246
22.9117
-0.456874
23.0852
-0.47557
23.2626
-0.494322
23.4436
-0.513119
23.6281
-0.531949
23.8158
-0.550799
24.0065
-0.569659
24.1999
-0.588517
24.3963
-0.607355
24.5945
-0.626184
24.7974
-0.644919
24.9955
-0.66378
25.2184
-0.682016
-0.701968
25.3746
57.8793
1.77293
-58.1868
57.569
1.7307
57.256
1.68787
56.9403
1.64447
56.6216
1.60053
56.2998
1.55607
55.9749
1.51113
55.6465
1.46573
55.3147
1.41991
54.9791
1.3737
54.6395
1.32713
54.2958
1.28024
53.9475
1.23305
53.5946
1.1856
53.2365
1.13793
52.8731
1.09008
52.5038
1.04207
52.1283
0.993947
51.7461
0.945748
51.3567
0.897512
50.9595
0.849278
50.5538
0.801087
50.139
0.752981
49.7142
0.705004
49.2784
0.657199
48.8307
0.609613
48.3698
0.562295
47.8944
0.515293
47.4028
0.468662
46.8932
0.422455
46.3634
0.376732
45.8107
0.331555
45.2318
0.286993
44.6229
0.24312
43.9788
0.200018
43.2929
0.15778
42.5563
0.116514
41.7575
0.0763468
40.8822
0.0374408
39.903
0
38.7447
-0.0356986
37.2381
-0.0691322
35.1523
-0.0991052
32.4062
-0.123558
29.2997
-0.140799
26.407
-0.151716
24.1707
-0.159836
22.6763
-0.168628
21.7684
-0.179636
21.2466
-0.192865
20.9597
-0.207778
20.8135
-0.223852
20.7538
-0.240717
20.7497
-0.258136
20.7832
-0.275966
20.8437
-0.294116
20.9243
-0.312528
21.0206
-0.331161
21.1294
-0.349987
21.2486
-0.368983
21.3766
-0.388129
21.5121
-0.407411
21.6541
-0.426811
21.802
-0.446318
21.955
-0.465917
22.1127
-0.485596
22.2747
-0.505342
22.4405
-0.525142
22.61
-0.544984
22.7829
-0.564855
22.9589
-0.584744
23.1378
-0.604637
23.3195
-0.624524
23.5041
-0.644385
23.6904
-0.664231
23.8813
-0.683975
24.0678
-0.703841
24.2775
-0.723061
-0.744034
24.4251
55.9214
1.87498
-56.2194
55.6208
1.83029
55.3178
1.78498
55.0123
1.73907
54.704
1.69259
54.393
1.64557
54.0791
1.59804
53.762
1.55004
53.4417
1.50159
53.118
1.45273
52.7905
1.4035
52.4592
1.35393
52.1238
1.30405
51.784
1.2539
51.4395
1.20352
51.0899
1.15294
50.735
1.1022
50.3742
1.05134
50.0072
1.00041
49.6335
0.949432
49.2525
0.898458
48.8637
0.84753
48.4662
0.796691
48.0595
0.745986
47.6425
0.695463
47.2144
0.645168
46.774
0.595153
46.32
0.545469
45.8509
0.496171
45.365
0.447318
44.8603
0.398969
44.3342
0.351191
43.7838
0.304053
43.2055
0.257633
42.5946
0.212016
41.9451
0.167298
41.2488
0.123589
40.4954
0.0810202
39.6717
0.0397549
38.7549
0
37.6849
-0.037969
36.3184
-0.0736617
34.4376
-0.105962
31.9187
-0.132812
28.9718
-0.152186
26.117
-0.16443
23.8272
-0.172942
22.2517
-0.181648
21.2743
-0.192606
20.7034
-0.206041
20.3832
-0.221419
20.2135
-0.238149
20.1359
-0.255792
20.1171
-0.274068
20.1376
-0.292804
20.1861
-0.31189
20.2553
-0.331258
20.3404
-0.350861
20.4383
-0.370665
20.5466
-0.390646
20.6638
-0.410782
20.7885
-0.431055
20.9198
-0.45145
21.0568
-0.47195
21.1991
-0.492543
21.3459
-0.513214
21.497
-0.53395
21.652
-0.554738
21.8105
-0.575565
21.9724
-0.596417
22.1373
-0.617282
22.3052
-0.638146
22.4758
-0.658999
22.6492
-0.67982
22.8243
-0.700619
23.0039
-0.721309
23.1794
-0.742116
23.3766
-0.762259
-0.784179
23.5161
54.0287
1.9729
-54.3173
53.7377
1.92586
53.4446
1.87817
53.1491
1.82985
52.8512
1.78094
52.5507
1.73146
52.2475
1.68146
51.9415
1.63096
51.6325
1.58
51.3203
1.52861
51.0047
1.47683
50.6856
1.42469
50.3626
1.37223
50.0356
1.31949
49.7042
1.26651
49.3681
1.21333
49.027
1.15997
48.6805
1.1065
48.3282
1.05294
47.9697
0.999339
47.6044
0.945741
47.2317
0.892191
46.851
0.838732
46.4616
0.785414
46.0627
0.732284
45.6534
0.679392
45.2326
0.62679
44.7992
0.574533
44.3517
0.522678
43.8885
0.471283
43.4077
0.420413
42.9071
0.370135
42.3839
0.320521
41.8347
0.271651
41.2553
0.223612
40.6403
0.176504
39.9822
0.130439
39.2716
0.0855485
38.4964
0.0419997
37.6376
0
36.6471
-0.0401773
35.4057
-0.0780724
33.7135
-0.112657
31.4171
-0.14192
28.6435
-0.163568
25.8475
-0.177348
23.5167
-0.186374
21.8621
-0.194952
20.8122
-0.205719
20.1887
-0.219206
19.8329
-0.23492
19.6386
-0.252202
19.5427
-0.270544
19.5091
-0.289608
19.5169
-0.309188
19.5537
-0.329154
19.6119
-0.349424
19.6864
-0.369944
19.7738
-0.390675
19.8719
-0.411589
19.9789
-0.432661
20.0934
-0.453873
20.2145
-0.475208
20.3413
-0.496648
20.4733
-0.518179
20.61
-0.539787
20.7508
-0.561457
20.8954
-0.583176
21.0436
-0.60493
21.1951
-0.626706
21.3496
-0.648489
21.507
-0.670266
21.6671
-0.692026
21.8299
-0.713747
21.9945
-0.73544
22.1633
-0.757016
22.3284
-0.778702
22.5139
-0.79971
-0.822509
22.6457
52.1993
2.06683
-52.4786
51.9178
2.01754
51.6343
1.96757
51.3488
1.91695
51.0609
1.86571
50.7708
1.81388
50.4782
1.76151
50.1829
1.70862
49.8849
1.65525
49.584
1.60143
49.28
1.54721
48.9727
1.49262
48.6618
1.4377
48.3472
1.38248
48.0285
1.32701
47.7055
1.27133
47.3778
1.21548
47.0451
1.15949
46.707
1.10342
46.3631
1.04731
46.0129
0.991197
45.6558
0.935134
45.2913
0.879167
44.9186
0.823345
44.5371
0.767716
44.1459
0.712334
43.7439
0.657253
43.3301
0.602528
42.9032
0.548218
42.4617
0.494384
42.0039
0.441093
41.5275
0.388412
41.0302
0.336418
40.5088
0.28519
39.9594
0.234821
39.377
0.185409
38.7552
0.137069
38.085
0.0899366
37.3555
0.0441774
36.5506
0
35.6319
-0.0423249
34.5017
-0.0823657
32.9812
-0.119185
30.8998
-0.150861
28.3104
-0.174901
25.5942
-0.190446
23.2375
-0.200155
21.5073
-0.208601
20.3823
-0.219045
19.7027
-0.232422
19.3086
-0.24833
19.0882
-0.266055
18.9734
-0.285007
18.925
-0.304789
18.9202
-0.325152
18.9457
-0.345942
18.9932
-0.367062
19.0575
-0.388447
19.1351
-0.410054
19.2234
-0.43185
19.3206
-0.453809
19.4255
-0.475909
19.5369
-0.498132
19.6541
-0.52046
19.7765
-0.542878
19.9034
-0.56537
20.0345
-0.587922
20.1694
-0.610519
20.3079
-0.633147
20.4495
-0.655791
20.5942
-0.678437
20.7417
-0.701072
20.8918
-0.723683
21.0446
-0.746249
21.1992
-0.768779
21.3578
-0.791184
21.5132
-0.813692
21.6875
-0.83551
-0.859123
21.812
50.4312
2.15692
-50.7014
50.1591
2.10547
49.8852
2.05332
49.6093
2.00049
49.3314
1.94703
49.0513
1.89295
48.769
1.83831
48.4843
1.78314
48.1971
1.72746
47.9071
1.67133
47.6144
1.61477
47.3185
1.55783
47.0194
1.50055
46.7168
1.44296
46.4104
1.38511
46.1001
1.32704
45.7854
1.26879
45.466
1.21041
45.1417
1.15193
44.8119
1.09341
44.4762
1.0349
44.1342
0.976427
43.7851
0.918057
43.4286
0.859834
43.0637
0.801813
42.6898
0.744044
42.3059
0.686586
41.911
0.629493
41.5039
0.572828
41.0831
0.516653
40.6471
0.461036
40.194
0.406048
39.7213
0.351764
39.2263
0.298269
38.7054
0.245655
38.1541
0.194022
37.5664
0.143488
36.9344
0.0941886
36.248
0.0462899
35.4933
0
34.6397
-0.0444134
33.6082
-0.0865442
32.2426
-0.125545
30.3657
-0.159614
27.9679
-0.186143
25.3523
-0.203685
22.987
-0.214295
21.1871
-0.222654
19.9851
-0.232661
19.2455
-0.24576
18.8103
-0.261707
18.5621
-0.279752
18.4275
-0.299221
18.3639
-0.319646
18.3466
-0.340729
18.361
-0.362287
18.3983
-0.384203
18.4528
-0.406405
18.5209
-0.428839
18.5999
-0.451468
18.6879
-0.474265
18.7836
-0.497206
18.8859
-0.520269
18.994
-0.543436
19.1072
-0.566691
19.225
-0.590018
19.3469
-0.613401
19.4726
-0.636825
19.6018
-0.660275
19.7342
-0.683737
19.8696
-0.707195
20.0077
-0.730635
20.1484
-0.754045
20.2918
-0.777403
20.4369
-0.800717
20.5859
-0.823898
20.732
-0.847174
20.8958
-0.86975
-0.894116
21.0134
48.7227
2.2433
-48.9838
48.4597
2.18979
48.1951
2.13555
47.9287
2.08062
47.6605
2.02502
47.3904
1.9688
47.1181
1.91199
46.8437
1.85463
46.5669
1.79675
46.2877
1.7384
46.0058
1.67961
45.7211
1.62042
45.4334
1.56088
45.1425
1.50102
44.8481
1.4409
44.55
1.38054
44.2478
1.32
43.9414
1.25932
43.6302
1.19854
43.314
1.13772
42.9924
1.0769
42.6648
1.01613
42.3307
0.955458
41.9896
0.894938
41.6408
0.834623
41.2835
0.774567
40.9169
0.714829
40.54
0.655467
40.1518
0.596542
39.7509
0.53812
39.3358
0.48027
38.9048
0.423064
38.4556
0.36658
37.9857
0.310904
37.4919
0.256127
36.97
0.202354
36.4146
0.149702
35.8187
0.0983087
35.1729
0.0483391
34.4651
0
33.6707
-0.0464443
32.7268
-0.0906101
31.4997
-0.131735
29.8148
-0.168162
27.6124
-0.197248
25.1165
-0.217014
22.762
-0.228789
20.9007
-0.237164
19.6209
-0.246647
18.8176
-0.259295
18.338
-0.275112
18.0598
-0.293343
17.9044
-0.313227
17.8252
-0.334214
17.7953
-0.355952
17.7988
-0.37822
17.8261
-0.400882
17.8712
-0.42385
17.9302
-0.447064
18.0003
-0.470481
18.0796
-0.49407
18.1667
-0.517804
18.2603
-0.541661
18.3598
-0.565621
18.4643
-0.589667
18.5735
-0.613782
18.6867
-0.637948
18.8037
-0.662151
18.9242
-0.686376
19.0478
-0.710606
19.1744
-0.734827
19.3037
-0.759024
19.4355
-0.783183
19.5699
-0.807282
19.7062
-0.831331
19.846
-0.855238
19.9834
-0.87923
20.1372
-0.902516
-0.927579
20.2482
47.0718
2.3261
-47.3241
46.8178
2.27062
46.5623
2.21439
46.3053
2.15744
46.0465
2.09981
45.786
2.04154
45.5236
1.98265
45.2592
1.9232
44.9926
1.86322
44.7238
1.80274
44.4525
1.74182
44.1786
1.68048
43.902
1.61878
43.6223
1.55676
43.3395
1.49446
43.0532
1.43191
42.7632
1.36918
42.4692
1.30631
42.1708
1.24333
41.8677
1.18031
41.5596
1.11728
41.2459
1.0543
40.9262
0.991428
40.5999
0.928707
40.2665
0.866195
39.9252
0.803948
39.5752
0.742025
39.2156
0.680486
38.8454
0.619394
38.4635
0.558816
38.0684
0.498821
37.6584
0.439484
37.2316
0.380885
36.7856
0.323109
36.3175
0.26625
35.8235
0.210414
35.2988
0.155719
34.7368
0.102301
34.1293
0.0503268
33.4653
0
32.7251
-0.048419
31.8588
-0.0945663
30.7547
-0.137757
29.2475
-0.176493
27.2405
-0.208173
24.8816
-0.230373
22.5587
-0.243613
20.647
-0.252171
19.2901
-0.261085
18.4195
-0.273113
17.8917
-0.288619
17.5812
-0.306884
17.4037
-0.327068
17.3083
-0.348532
17.2656
-0.370855
17.2582
-0.393776
17.2758
-0.417131
17.3119
-0.440817
17.3622
-0.464764
17.4239
-0.488924
17.4948
-0.51326
17.5736
-0.537744
17.6591
-0.56235
17.7503
-0.587059
17.8467
-0.611851
17.9477
-0.636709
18.0527
-0.661614
18.1615
-0.686551
18.2737
-0.711505
18.389
-0.736458
18.5073
-0.761396
18.6282
-0.786302
18.7517
-0.811164
18.8776
-0.835958
19.0054
-0.860694
19.1367
-0.88528
19.2657
-0.909941
19.4102
-0.933891
-0.959598
19.515
45.4767
2.40546
-45.7204
45.2316
2.3481
44.985
2.28996
44.7371
2.23109
44.4876
2.17152
44.2364
2.11128
43.9836
2.05041
43.7289
1.98896
43.4722
1.92697
43.2135
1.86447
42.9525
1.8015
42.6891
1.73812
42.4232
1.67436
42.1545
1.61026
41.8828
1.54587
41.608
1.48124
41.3297
1.41642
41.0477
1.35144
40.7616
1.28636
40.4712
1.22123
40.176
1.15609
39.8758
1.091
39.5699
1.02602
39.2578
0.961193
38.9391
0.896577
38.6131
0.83223
38.279
0.768213
37.936
0.704586
37.5832
0.641416
37.2193
0.578768
36.8433
0.516714
36.4534
0.45533
36.0479
0.394697
35.6247
0.334901
35.181
0.276037
34.7134
0.218212
34.2176
0.161544
33.6877
0.10617
33.1162
0.052255
32.4933
0
31.8028
-0.0503391
31.0056
-0.0984151
30.01
-0.143614
28.665
-0.184598
26.8497
-0.218878
24.6422
-0.243694
22.3726
-0.258722
20.4243
-0.267704
18.9929
-0.276054
18.0518
-0.287307
17.472
-0.302306
17.1264
-0.320439
16.925
-0.340795
16.8127
-0.362639
16.7569
-0.385473
16.7386
-0.408986
16.7467
-0.432981
16.7739
-0.457338
16.8159
-0.481973
16.8694
-0.506831
16.9325
-0.531872
17.0034
-0.557063
17.0811
-0.582377
17.1646
-0.607793
17.2533
-0.633289
17.3465
-0.658846
17.4438
-0.684448
17.5448
-0.710077
17.6492
-0.735715
17.7566
-0.761348
17.867
-0.786959
17.9801
-0.812532
18.0956
-0.838052
18.2136
-0.863498
18.3334
-0.888876
18.4565
-0.914097
18.5777
-0.939382
18.7133
-0.963953
-0.990253
18.8122
43.9358
2.4815
-44.171
43.6992
2.42234
43.4614
2.36239
43.2223
2.30168
42.9818
2.24025
42.7398
2.17814
42.4963
2.11538
42.2511
2.05203
42.004
1.98811
41.7551
1.92367
41.5041
1.85876
41.2509
1.79342
40.9953
1.72769
40.7372
1.66161
40.4764
1.59523
40.2126
1.52861
39.9455
1.46178
39.6751
1.39479
39.4009
1.3277
39.1227
1.26055
38.84
1.1934
38.5526
1.12629
38.26
1.05929
37.9617
0.992443
37.6571
0.925812
37.3458
0.859454
37.0269
0.79343
36.6997
0.727803
36.3634
0.662638
36.0169
0.598004
35.659
0.533974
35.2883
0.470622
34.9032
0.408033
34.5016
0.346293
34.081
0.285499
33.6385
0.225756
33.1701
0.167184
32.6704
0.109919
32.1328
0.0541253
31.5484
0
30.9036
-0.052206
30.1681
-0.10216
29.2678
-0.149309
28.0692
-0.192473
26.4383
-0.22933
24.3932
-0.256905
22.1986
-0.274054
20.2303
-0.283767
18.7292
-0.29163
17.7152
-0.301977
17.0793
-0.316265
16.6953
-0.334078
16.4681
-0.354464
16.3378
-0.376581
16.2685
-0.399846
16.2393
-0.423885
16.2379
-0.448467
16.2565
-0.473445
16.2904
-0.498723
16.3362
-0.524238
16.3917
-0.549941
16.4552
-0.575798
16.5255
-0.60178
16.6016
-0.627862
16.683
-0.654021
16.7688
-0.680239
16.8588
-0.706496
16.9524
-0.732776
17.0494
-0.759059
17.1495
-0.785331
17.2524
-0.811574
17.358
-0.837771
17.466
-0.863909
17.5765
-0.889964
17.6887
-0.915943
17.8042
-0.941757
17.918
-0.967624
18.0452
-0.992775
-1.01962
18.1385
42.4472
2.55434
-42.6741
42.219
2.49346
41.9898
2.43178
41.7593
2.36932
41.5276
2.30612
41.2945
2.24222
41.06
2.17766
40.8239
2.11249
40.5863
2.04673
40.3468
1.98045
40.1055
1.91368
39.8621
1.84647
39.6166
1.77885
39.3687
1.71088
39.1183
1.64261
38.8652
1.57408
38.6091
1.50533
38.3498
1.43643
38.087
1.36741
37.8205
1.29833
37.5499
1.22925
37.2748