/*--------------------------------*- C++ -*----------------------------------*\
| =========                 |                                                 |
| \\      /  F ield         | OpenFOAM: The Open Source CFD Toolbox           |
|  \\    /   O peration     | Version:  2312                                  |
|   \\  /    A nd           | Website:  www.openfoam.com                      |
|    \\/     M anipulation  |                                                 |
\*---------------------------------------------------------------------------*/
FoamFile
{
    version     2.0;
    format      ascii;
    arch        "LSB;label=32;scalar=64";
    class       surfaceScalarField;
    location    "0.667";
    object      phi;
}
// * * * * * * * * * * * * * * * * * * * * * * * * * * * * * * * * * * * * * //

dimensions      [0 3 -1 0 0 0 0];

oriented        oriented;

internalField   nonuniform List<scalar> 
62015
(
39.7533
0.209296
-40.8654
38.6316
0.200331
37.5011
0.191373
36.3626
0.182439
35.218
0.17355
34.0708
0.164737
32.9265
0.156036
31.7938
0.147494
30.6852
0.139174
29.6176
0.131148
28.611
0.123498
27.6871
0.116306
26.8654
0.109634
26.1599
0.103519
25.5779
0.0979605
25.1188
0.0929244
24.7758
0.0883513
24.538
0.0841672
24.3927
0.0802934
24.3265
0.0766547
24.3273
0.0731833
24.3839
0.0698211
24.4869
0.0665194
24.6285
0.0632384
24.8021
0.0599464
25.0024
0.0566176
25.2252
0.0532316
25.4669
0.0497726
25.7247
0.0462283
25.9965
0.0425887
26.2803
0.0388465
26.5746
0.0349957
26.8784
0.0310329
27.1906
0.0269543
27.5105
0.0227586
27.8375
0.0184441
28.171
0.0140108
28.5108
0.00945842
28.8565
0.00478782
29.2078
0
29.5647
-0.00490381
29.9269
-0.00992145
30.2945
-0.0150517
30.6673
-0.0202916
31.0454
-0.0256392
31.4286
-0.0310915
31.8172
-0.0366462
32.211
-0.0422996
32.6102
-0.0480494
33.0147
-0.0538918
33.4247
-0.0598236
33.8402
-0.0658413
34.2613
-0.0719415
34.688
-0.0781204
35.1205
-0.0843742
35.5589
-0.090699
36.0031
-0.0970913
36.4533
-0.103547
36.9096
-0.110061
37.372
-0.116631
37.8406
-0.123252
38.3155
-0.129919
38.7968
-0.136628
39.2844
-0.143376
39.7786
-0.150158
40.2793
-0.156969
40.7865
-0.163805
41.3005
-0.170661
41.8211
-0.177533
42.3484
-0.184417
42.8825
-0.191308
43.4234
-0.198201
43.971
-0.205092
44.526
-0.211975
45.086
-0.218854
45.6584
-0.225691
46.2208
-0.232588
46.8421
-0.239208
-0.246588
47.3107
37.764
0.40358
-38.8343
36.6848
0.386146
35.5984
0.368741
34.5063
0.351407
33.4114
0.334193
32.318
0.317167
31.2333
0.300414
30.1675
0.28404
29.1347
0.268179
28.1522
0.252981
27.2395
0.2386
26.4152
0.225169
25.6946
0.212779
25.0869
0.201457
24.5946
0.191166
24.2138
0.181813
23.9362
0.17327
23.7508
0.165393
23.6454
0.158035
23.6084
0.151062
23.629
0.144355
23.6977
0.137814
23.8066
0.131354
23.9491
0.124906
24.1195
0.118417
24.3135
0.111841
24.5273
0.105143
24.7581
0.0982959
25.0034
0.0912776
25.2612
0.0840713
25.53
0.0766638
25.8086
0.0690453
26.0959
0.0612084
26.391
0.0531483
26.6934
0.0448613
27.0024
0.0363458
27.3177
0.027601
27.6389
0.0186274
27.9658
0.00942641
28.2982
0
28.6359
-0.009649
28.9788
-0.0195171
29.3268
-0.0296007
29.6799
-0.0398954
30.0382
-0.050396
30.4015
-0.061098
30.7699
-0.0719957
31.1435
-0.083083
31.5223
-0.0943546
31.9063
-0.105804
32.2956
-0.117424
32.6902
-0.129208
33.0903
-0.14115
33.4959
-0.153243
33.907
-0.165478
34.3238
-0.17785
34.7463
-0.190349
35.1746
-0.202969
35.6088
-0.215701
36.0489
-0.228538
36.4951
-0.241471
36.9473
-0.254493
37.4056
-0.267595
37.8701
-0.280768
38.3409
-0.294005
38.818
-0.307296
39.3014
-0.320634
39.7913
-0.334009
40.2875
-0.347412
40.7903
-0.360836
41.2996
-0.374272
41.8154
-0.387709
42.3376
-0.401141
42.867
-0.414553
43.4013
-0.427956
43.9473
-0.441278
44.4841
-0.454709
45.0758
-0.467613
-0.481945
45.5276
35.8229
0.583039
-36.8525
34.7859
0.557637
33.7439
0.532313
32.6992
0.507135
31.6556
0.482193
30.6189
0.457604
29.5977
0.43351
28.6038
0.410092
27.6522
0.387554
26.76
0.366115
25.9446
0.345975
25.2211
0.327283
24.5998
0.31011
24.0854
0.294439
23.6765
0.280167
23.3671
0.267134
23.148
0.255143
23.0085
0.243989
22.9379
0.233476
22.9257
0.223425
22.9629
0.213682
23.0415
0.204117
23.1547
0.194621
23.2969
0.185106
23.4636
0.175502
23.651
0.165752
23.856
0.15581
24.076
0.14564
24.3091
0.135213
24.5536
0.124508
24.8081
0.113508
25.0716
0.1022
25.3432
0.0905737
25.6221
0.0786233
25.9078
0.0663444
26.1999
0.0537348
26.4978
0.0407942
26.8015
0.027523
27.1106
0.0139241
27.4249
0
27.7444
-0.0142448
28.069
-0.0288052
28.3985
-0.0436756
28.733
-0.0588497
29.0724
-0.0743207
29.4168
-0.0900805
29.7662
-0.106122
30.1205
-0.122436
30.48
-0.139015
30.8445
-0.155848
31.2141
-0.172927
31.589
-0.190242
31.9691
-0.207783
32.3546
-0.225539
32.7455
-0.2435
33.1418
-0.261655
33.5437
-0.279992
33.9512
-0.298502
34.3644
-0.317173
34.7834
-0.335991
35.2081
-0.354947
35.6388
-0.374029
36.0753
-0.393223
36.5179
-0.412518
36.9664
-0.431902
37.4211
-0.451363
37.8819
-0.470887
38.3488
-0.490462
38.822
-0.510076
39.3014
-0.529716
39.7871
-0.549369
40.2791
-0.569021
40.7772
-0.588663
41.2822
-0.608273
41.792
-0.627865
42.3129
-0.647338
42.8255
-0.666961
43.3892
-0.685832
-0.706721
43.8232
33.9525
0.748244
-34.9419
32.9577
0.715384
31.9605
0.682681
30.9642
0.650242
29.9738
0.618208
28.9966
0.586754
28.0425
0.556095
27.1246
0.526482
26.2577
0.498186
25.4579
0.471467
24.7395
0.446533
24.1133
0.423508
23.5854
0.402405
23.1563
0.383135
22.8221
0.365521
22.5754
0.349334
22.4069
0.334321
22.3068
0.32023
22.2654
0.306827
22.274
0.293906
22.3247
0.28129
22.4108
0.268829
22.5268
0.256401
22.668
0.243905
22.8305
0.231261
23.0112
0.218403
23.2075
0.20528
23.4172
0.191848
23.6387
0.178077
23.8705
0.16394
24.1115
0.149418
24.3607
0.134495
24.6175
0.119161
24.8811
0.103409
25.1511
0.087234
25.4271
0.0706335
25.7087
0.0536075
25.9958
0.0361577
26.288
0.0182871
26.5854
0
26.8877
-0.0186979
27.1949
-0.0378001
27.507
-0.0572991
27.8238
-0.0771865
28.1455
-0.0974534
28.472
-0.11809
28.8033
-0.139086
29.1395
-0.160431
29.4805
-0.182113
29.8266
-0.20412
30.1776
-0.226441
30.5337
-0.249062
30.8949
-0.271971
31.2614
-0.295154
31.633
-0.318598
32.01
-0.342288
32.3923
-0.366211
32.7801
-0.390351
33.1734
-0.414694
33.5722
-0.439226
33.9767
-0.46393
34.3868
-0.488792
34.8027
-0.513796
35.2243
-0.538926
35.6518
-0.564166
36.0851
-0.589501
36.5243
-0.614914
36.9695
-0.640388
37.4207
-0.665908
37.8779
-0.691457
38.3411
-0.717019
38.8104
-0.742575
39.2857
-0.768114
39.7675
-0.793606
40.2539
-0.819071
40.7508
-0.844379
41.2403
-0.869871
41.7776
-0.894404
-0.921487
42.1939
32.163
0.89991
-33.1121
31.2107
0.86012
30.2593
0.820606
29.3132
0.781529
28.3785
0.743089
27.4638
0.70553
26.5804
0.669139
25.7415
0.634232
24.9613
0.60112
24.2533
0.570068
23.6284
0.54125
23.0934
0.514725
22.6504
0.490426
22.2971
0.46818
22.0278
0.447739
21.8347
0.428814
21.7088
0.41111
21.6414
0.394344
21.624
0.378259
21.6492
0.362632
21.7104
0.347272
21.802
0.332021
21.9193
0.316748
22.0586
0.301346
22.2164
0.285728
22.3903
0.269825
22.578
0.253579
22.7778
0.236947
22.9881
0.219893
23.2078
0.202389
23.436
0.184414
23.6717
0.165952
23.9145
0.146991
24.1637
0.127525
24.4188
0.107547
24.6797
0.087056
24.9459
0.0660528
25.2173
0.0445395
25.4938
0.0225199
25.7751
0
26.0612
-0.0230134
26.352
-0.0465124
26.6476
-0.0704874
26.9478
-0.0949284
27.2526
-0.119825
27.5622
-0.145164
27.8764
-0.170934
28.1954
-0.197121
28.5191
-0.223712
28.8477
-0.250693
29.1811
-0.278048
29.5194
-0.305762
29.8627
-0.333819
30.211
-0.362204
30.5644
-0.390899
30.923
-0.419888
31.2867
-0.449153
31.6558
-0.478677
32.0301
-0.508442
32.4099
-0.53843
32.795
-0.568622
33.1857
-0.598999
33.5819
-0.629543
33.9836
-0.660235
34.391
-0.691055
34.8041
-0.721984
35.2228
-0.753002
35.6473
-0.784089
36.0775
-0.815227
36.5136
-0.846394
36.9554
-0.87757
37.4031
-0.908735
37.8565
-0.939873
38.3162
-0.970949
38.7804
-1.00199
39.2546
-1.03283
39.7219
-1.06388
40.2343
-1.09379
-1.12672
40.6331
30.4579
1.0388
-31.3664
29.5491
0.99264
28.6451
0.946927
27.7514
0.901885
26.8753
0.857784
26.0265
0.81494
25.2168
0.773703
24.4587
0.734427
23.7649
0.697428
23.1458
0.662932
22.6088
0.631044
22.1569
0.601733
21.7894
0.57484
21.5019
0.550114
21.2879
0.527245
21.1397
0.505903
21.0491
0.485761
21.0083
0.466519
21.0102
0.44791
21.0484
0.429704
21.1173
0.411704
21.2125
0.393749
21.3299
0.375706
21.4664
0.357463
21.6192
0.338931
21.7861
0.32004
21.9654
0.30073
22.1555
0.280956
22.3552
0.260679
22.5634
0.239873
22.7793
0.218515
23.0023
0.196588
23.2318
0.17408
23.4674
0.150984
23.7086
0.127296
23.9551
0.103014
24.2068
0.0781396
24.4635
0.0526753
24.725
0.0266264
24.9912
0
25.262
-0.0271957
25.5374
-0.0549509
25.8173
-0.0832549
26.1017
-0.112096
26.3907
-0.14146
26.6842
-0.171335
26.9823
-0.201705
27.285
-0.232555
27.5923
-0.263868
27.9043
-0.295629
28.221
-0.32782
28.5425
-0.360423
28.8688
-0.393419
29.1999
-0.42679
29.5361
-0.460517
29.8772
-0.494579
30.2233
-0.528956
30.5745
-0.563628
30.9309
-0.598575
31.2925
-0.633774
31.6593
-0.669205
32.0315
-0.704845
32.4089
-0.740673
32.7918
-0.776667
33.1801
-0.812803
33.5738
-0.84906
33.9731
-0.885414
34.3779
-0.921843
34.7882
-0.958323
35.2041
-0.99483
35.6255
-1.03134
36.0526
-1.06784
36.4852
-1.10429
36.9239
-1.14066
37.3669
-1.17699
37.8194
-1.21308
38.2656
-1.2494
38.7542
-1.2844
-1.32287
39.1361
28.8379
1.16572
-29.705
27.9742
1.11378
27.1198
1.06253
26.281
1.01226
25.4666
0.963306
24.6865
0.916047
23.9523
0.870874
23.2753
0.828143
22.6657
0.788131
22.1307
0.75099
21.6743
0.716729
21.2967
0.685215
20.9949
0.656205
20.7637
0.62938
20.5962
0.604385
20.4852
0.580862
20.4234
0.55847
20.4041
0.536903
20.4211
0.515892
20.4691
0.495205
20.5436
0.474649
20.6407
0.454062
20.7571
0.43331
20.8901
0.412285
21.0375
0.390896
21.1975
0.369071
21.3685
0.346752
21.5492
0.323892
21.7387
0.300454
21.9359
0.27641
22.1403
0.251737
22.3512
0.226418
22.5682
0.200443
22.7908
0.173804
23.0188
0.146496
23.2519
0.11852
23.4899
0.0898773
23.7326
0.0605717
23.98
0.0306101
24.2319
0
24.4883
-0.0312486
24.749
-0.0631243
25.0142
-0.095615
25.2838
-0.128707
25.5578
-0.162385
25.8361
-0.196634
26.119
-0.231437
26.4062
-0.266777
26.698
-0.302634
26.9943
-0.338991
27.2952
-0.375828
27.6007
-0.413124
27.9109
-0.450859
28.2258
-0.48901
28.5455
-0.527557
28.87
-0.566477
29.1994
-0.605746
29.5337
-0.645342
29.873
-0.685242
30.2174
-0.72542
30.5668
-0.765853
30.9214
-0.806516
31.281
-0.847384
31.6459
-0.888432
32.0161
-0.929635
32.3914
-0.970966
32.7721
-1.0124
33.1581
-1.05391
33.5495
-1.09547
33.9462
-1.13706
34.3483
-1.17864
34.7558
-1.22019
35.1686
-1.26169
35.5871
-1.3031
36.0099
-1.34444
36.4418
-1.38551
36.8678
-1.42683
37.3339
-1.46666
-1.51034
37.6996
27.303
1.28149
-28.1271
26.4862
1.22443
25.6837
1.16837
24.9028
1.11366
24.1527
1.06071
23.4434
1.00994
22.7853
0.961731
22.1878
0.916408
21.6582
0.874169
21.2009
0.835064
20.817
0.798995
20.5046
0.765736
20.2593
0.73497
20.0756
0.706329
19.9468
0.679429
19.8663
0.653899
19.8279
0.629396
19.8256
0.605616
19.8543
0.582294
19.9096
0.559206
19.9877
0.53616
20.0854
0.513001
20.1999
0.489596
20.329
0.46584
20.4708
0.441645
20.6238
0.416939
20.7867
0.391665
20.9584
0.365776
21.138
0.339237
21.3248
0.312018
21.5181
0.284098
21.7176
0.255461
21.9227
0.226096
22.1331
0.195997
22.3486
0.16516
22.569
0.133585
22.7941
0.101275
23.0237
0.0682358
23.2577
0.0344743
23.4961
0
23.7389
-0.035176
23.9859
-0.071041
24.2371
-0.107581
24.4926
-0.144781
24.7524
-0.182624
25.0165
-0.221092
25.2848
-0.260168
25.5575
-0.299831
25.8345
-0.340061
26.116
-0.380838
26.4019
-0.422139
26.6923
-0.463941
26.9872
-0.506222
27.2867
-0.548958
27.5908
-0.592124
27.8996
-0.635695
28.2131
-0.679647
28.5314
-0.723953
28.8545
-0.768588
29.1825
-0.813523
29.5154
-0.858733
29.8532
-0.90419
30.196
-0.949866
30.5438
-0.995734
30.8966
-1.04176
31.2545
-1.08793
31.6176
-1.1342
31.9857
-1.18055
32.359
-1.22694
32.7375
-1.27335
33.1211
-1.31976
33.5099
-1.36611
33.9038
-1.41241
34.3033
-1.45859
34.7069
-1.50468
35.1191
-1.55047
35.5259
-1.59652
35.9704
-1.64094
-1.68955
36.3206
25.8524
1.38699
-26.632
25.0849
1.32553
24.3369
1.26545
23.6165
1.20716
22.9327
1.1511
22.2949
1.0977
21.7119
1.04731
21.1905
1.00017
20.7356
0.956367
20.3486
0.91585
20.0288
0.878413
19.7726
0.843751
19.5754
0.811492
19.4314
0.781236
19.3345
0.752588
19.2789
0.725175
19.2591
0.698662
19.2702
0.672752
19.3078
0.647191
19.3683
0.621761
19.4485
0.596282
19.5456
0.570602
19.6576
0.544594
19.7824
0.518156
19.9185
0.491204
20.0645
0.463667
20.2195
0.43549
20.3824
0.406628
20.5526
0.377046
20.7294
0.346716
20.9123
0.315617
21.1009
0.283734
21.2948
0.251057
21.4937
0.21758
21.6975
0.183301
21.9059
0.14822
22.1187
0.112343
22.3359
0.0756738
22.5574
0.0382228
22.783
0
23.0129
-0.0389821
23.2469
-0.0787092
23.485
-0.119166
23.7272
-0.160336
23.9736
-0.2022
24.2241
-0.244739
24.4787
-0.287933
24.7376
-0.331761
25.0007
-0.376199
25.2681
-0.421226
25.5398
-0.466817
25.8158
-0.512947
26.0963
-0.559591
26.3811
-0.606723
26.6705
-0.654317
26.9644
-0.702344
27.2628
-0.750778
27.5659
-0.79959
27.8736
-0.848752
28.186
-0.898234
28.5032
-0.948006
28.8251
-0.998039
29.1518
-1.0483
29.4834
-1.09877
29.8198
-1.1494
30.1611
-1.20017
30.5073
-1.25104
30.8585
-1.30199
31.2146
-1.35298
31.5757
-1.40399
31.9417
-1.45497
32.3128
-1.50589
32.6888
-1.55674
33.0701
-1.60744
33.4553
-1.65805
33.8487
-1.70832
34.2372
-1.75885
34.6613
-1.80762
-1.86087
34.9967
24.4861
1.48319
-25.2189
23.7702
1.41811
23.0792
1.35484
22.4212
1.29384
21.8048
1.23555
21.2378
1.18037
20.727
1.12855
20.277
1.08025
19.89
1.03543
19.5656
0.993923
19.3015
0.955441
19.0934
0.919618
18.9366
0.886046
18.8255
0.854314
18.7547
0.824025
18.7191
0.794817
18.7142
0.766365
18.7356
0.738386
18.7799
0.71064
18.8438
0.68292
18.9248
0.655054
19.0207
0.626898
19.1295
0.598332
19.2497
0.569258
19.38
0.539595
19.5192
0.509276
19.6665
0.478248
19.8211
0.446468
19.9823
0.413901
20.1496
0.380522
20.3226
0.346311
20.5008
0.311254
20.6841
0.275341
20.8722
0.238567
21.0648
0.200932
21.2618
0.162438
21.4631
0.123089
21.6686
0.0828924
21.8782
0.0418589
22.0918
0
22.3095
-0.0426705
22.5312
-0.0861372
22.7569
-0.130383
22.9865
-0.175389
23.2202
-0.221136
23.4579
-0.267603
23.6996
-0.314768
23.9455
-0.362607
24.1954
-0.411096
24.4494
-0.460211
24.7076
-0.509926
24.9701
-0.560213
25.2368
-0.611045
25.5078
-0.662394
25.7832
-0.714232
26.0629
-0.766529
26.347
-0.819254
26.6356
-0.872378
26.9288
-0.925869
27.2264
-0.979696
27.5286
-1.03383
27.8354
-1.08823
28.1469
-1.14287
28.463
-1.19771
28.7838
-1.25273
29.1093
-1.30789
29.4396
-1.36315
29.7746
-1.41848
30.1143
-1.47385
30.4589
-1.52921
30.8082
-1.58455
31.1624
-1.63981
31.5212
-1.69497
31.8852
-1.74998
32.253
-1.80487
32.6285
-1.85938
32.9996
-1.91416
33.4042
-1.96705
-2.02469
33.7255
23.2038
1.57111
-23.8876
22.5417
1.50323
21.9096
1.43765
21.3151
1.37481
20.7655
1.31512
20.2671
1.2589
19.8244
1.20631
19.4398
1.15737
19.1136
1.11194
18.844
1.06974
18.6277
1.03044
18.4603
0.993614
18.3371
0.958847
18.2531
0.925727
18.2035
0.893868
18.1841
0.862921
18.1907
0.83258
18.22
0.802579
18.269
0.77269
18.335
0.742721
18.4159
0.712508
18.5098
0.681917
18.6152
0.650835
18.7306
0.619168
18.8551
0.58684
18.9876
0.553787
19.1275
0.519959
19.274
0.485315
19.4266
0.449823
19.5849
0.413457
19.7484
0.3762
19.9169
0.338038
20.0902
0.298964
20.268
0.258975
20.4501
0.218068
20.6364
0.176249
20.8268
0.133523
21.0212
0.089898
21.2196
0.045386
21.4219
0
21.6281
-0.046245
21.8381
-0.0933324
22.052
-0.141244
22.2698
-0.189958
22.4915
-0.239455
22.7171
-0.289712
22.9466
-0.340706
23.18
-0.39241
23.4174
-0.444799
23.6589
-0.497847
23.9043
-0.551526
24.1539
-0.605807
24.4076
-0.66066
24.6655
-0.716055
24.9275
-0.771962
25.1938
-0.828349
25.4644
-0.885184
25.7393
-0.942435
26.0185
-1.00007
26.3021
-1.05805
26.5901
-1.11634
26.8826
-1.17492
27.1795
-1.23373
27.481
-1.29276
27.7869
-1.35196
28.0974
-1.41129
28.4125
-1.47073
28.7321
-1.53023
29.0563
-1.58976
29.3851
-1.64928
29.7186
-1.70875
30.0566
-1.76813
30.3992
-1.82739
30.7466
-1.88648
31.0978
-1.94543
31.4564
-2.00397
31.8108
-2.06277
32.1969
-2.11957
-2.18134
32.5046
22.0051
1.65184
-22.6379
21.3987
1.58203
20.8265
1.51498
20.2952
1.45112
19.8106
1.39078
19.377
1.33416
18.9971
1.28131
18.6714
1.23212
18.3988
1.18635
18.1764
1.14367
18.0007
1.10368
17.8674
1.06595
17.772
1.03006
17.7101
0.995599
17.6777
0.962211
17.671
0.929564
17.6867
0.89737
17.7219
0.86538
17.774
0.833383
17.841
0.801198
17.921
0.768675
18.0125
0.735687
18.114
0.702128
18.2247
0.66791
18.3434
0.632961
18.4694
0.597222
18.602
0.560645
18.7408
0.52319
18.8852
0.484829
19.0349
0.445538
19.1895
0.405301
19.3488
0.364105
19.5126
0.321945
19.6806
0.278816
19.8528
0.234722
20.029
0.189665
20.2091
0.143654
20.3931
0.0966969
20.5809
0.0488076
20.7725
0
20.9678
-0.0497096
21.1669
-0.100303
21.3697
-0.15176
21.5762
-0.20406
21.7866
-0.257179
22.0007
-0.311094
22.2186
-0.365779
22.4403
-0.421208
22.6659
-0.477353
22.8954
-0.534185
23.1288
-0.591675
23.3662
-0.649793
23.6075
-0.708507
23.8529
-0.767786
24.1023
-0.827595
24.3559
-0.887903
24.6136
-0.948674
24.8754
-1.00987
25.1415
-1.07147
25.4118
-1.13342
25.6863
-1.19569
25.9651
-1.25825
26.2483
-1.32106
26.5358
-1.38407
26.8276
-1.44726
27.1238
-1.51058
27.4244
-1.57399
27.7294
-1.63746
28.0388
-1.70095
28.3527
-1.76441
28.6709
-1.82781
28.9936
-1.89111
29.3207
-1.95427
29.6524
-2.01723
29.9878
-2.08003
30.3302
-2.14238
30.6687
-2.205
31.0371
-2.26551
-2.33118
31.332
20.8894
1.72652
-21.4694
20.3396
1.65562
19.8272
1.58791
19.3575
1.52376
18.9347
1.46338
18.5612
1.40686
18.2381
1.35412
17.9644
1.30495
17.7382
1.25903
17.5561
1.21598
17.4146
1.17537
17.3095
1.13678
17.237
1.09979
17.1931
1.06402
17.1744
1.02913
17.1777
0.994805
17.2003
0.96078
17.2397
0.926827
17.2939
0.89275
17.3609
0.858382
17.4394
0.823581
17.528
0.788231
17.6257
0.752233
17.7314
0.715505
17.8444
0.677979
17.9641
0.6396
18.0899
0.600323
18.2213
0.560113
18.3579
0.51894
18.4994
0.476785
18.6456
0.433632
18.7961
0.389471
18.9509
0.344296
19.1098
0.298107
19.2726
0.250905
19.4392
0.202697
19.6096
0.15349
19.7837
0.103295
19.9615
0.0521266
20.143
0
20.328
-0.0530673
20.5167
-0.107056
20.7091
-0.161944
20.905
-0.217709
21.1046
-0.274328
21.3078
-0.331773
21.5148
-0.390019
21.7254
-0.449038
21.9398
-0.508799
22.158
-0.569274
22.3799
-0.63043
22.6057
-0.692236
22.8354
-0.754658
23.0689
-0.817663
23.3064
-0.881215
23.5479
-0.945281
23.7933
-1.00982
24.0428
-1.0748
24.2964
-1.14019
24.554
-1.20594
24.8157
-1.27201
25.0816
-1.33838
25.3516
-1.40499
25.6258
-1.47181
25.9042
-1.5388
26.1868
-1.60591
26.4737
-1.67312
26.7648
-1.74037
27.0601
-1.80762
27.3597
-1.87484
27.6635
-1.94198
27.9716
-2.00899
28.2839
-2.07585
28.6007
-2.14249
28.921
-2.20894
29.2479
-2.27492
29.5714
-2.34114
29.923
-2.40517
-2.47451
30.2055
19.8551
1.79627
-20.3815
19.362
1.72507
18.908
1.65743
18.497
1.59359
18.1316
1.53367
17.8127
1.4776
17.54
1.42522
17.3117
1.37622
17.1252
1.33024
16.9772
1.28687
16.8642
1.24567
16.7824
1.20623
16.7285
1.16815
16.6992
1.13107
16.6914
1.09468
16.7025
1.05869
16.7302
1.02285
16.7725
0.986956
16.8276
0.950822
16.8941
0.914297
16.9706
0.87725
17.0561
0.839572
17.1497
0.801172
17.2506
0.761973
17.3581
0.721914
17.4716
0.680942
17.5907
0.639015
17.7151
0.596101
17.8443
0.552175
17.9781
0.507216
18.1162
0.461211
18.2585
0.414153
18.4048
0.366036
18.5549
0.316861
18.7089
0.266632
18.8665
0.215354
19.0277
0.16304
19.1925
0.109698
19.3609
0.0553464
19.5328
0
19.7081
-0.0563217
19.887
-0.113598
20.0694
-0.171806
20.2553
-0.230923
20.4448
-0.290921
20.6378
-0.351776
20.8343
-0.413456
21.0345
-0.475935
21.2383
-0.53918
21.4457
-0.60316
21.6568
-0.667843
21.8716
-0.733193
22.0902
-0.799177
22.3125
-0.865759
22.5387
-0.932903
22.7686
-1.00057
23.0025
-1.06873
23.2402
-1.13733
23.4818
-1.20634
23.7274
-1.27572
23.977
-1.34543
24.2305
-1.41543
24.4881
-1.48568
24.7497
-1.55613
25.0153
-1.62675
25.285
-1.69748
25.5588
-1.76829
25.8366
-1.83914
26.1186
-1.90998
26.4046
-1.98077
26.6947
-2.05146
26.9889
-2.12201
27.2872
-2.19238
27.5897
-2.26251
27.8956
-2.33242
28.2079
-2.40183
28.517
-2.47147
28.8526
-2.53884
-2.61164
29.1233
18.8999
1.86219
-19.3727
18.4622
1.79139
18.0641
1.7244
17.7079
1.66135
17.3947
1.60221
17.1245
1.54683
16.8959
1.49494
16.7066
1.44619
16.5538
1.40017
16.4343
1.35647
16.3449
1.31467
16.2824
1.27436
16.2436
1.23518
16.2258
1.1968
16.2266
1.15891
16.2436
1.12126
16.275
1.08361
16.3191
1.04579
16.3744
1.00762
16.4398
0.968968
16.514
0.929703
16.5962
0.88973
16.6857
0.848964
16.7818
0.807335
16.8839
0.764785
16.9915
0.721266
17.1043
0.67674
17.2219
0.631176
17.3441
0.584551
17.4705
0.536848
17.601
0.488055
17.7355
0.438166
17.8738
0.387178
18.0157
0.335092
18.1613
0.281913
18.3104
0.227649
18.463
0.172311
18.619
0.115913
18.7784
0.0584697
18.9413
0
19.1075
-0.0594761
19.2771
-0.119937
19.4501
-0.181358
19.6265
-0.243714
19.8064
-0.306979
19.9896
-0.371124
20.1764
-0.436119
20.3666
-0.501933
20.5603
-0.568534
20.7576
-0.63589
20.9584
-0.703964
21.1628
-0.772723
21.3709
-0.842129
21.5826
-0.912146
21.7979
-0.982736
22.017
-1.05386
22.2398
-1.12548
22.4664
-1.19755
22.6967
-1.27003
22.9309
-1.34289
23.1689
-1.41608
23.4107
-1.48955
23.6565
-1.56327
23.906
-1.63718
24.1595
-1.71126
24.4169
-1.78544
24.6782
-1.85969
24.9435
-1.93397
25.2127
-2.00822
25.4858
-2.08241
25.7628
-2.15648
26.0438
-2.23038
26.3287
-2.30409
26.6177
-2.37753
26.9099
-2.45073
27.2081
-2.5234
27.5035
-2.59627
27.8239
-2.66681
-2.74287
28.0834
18.0205
1.92526
-18.4407
17.6359
1.85544
17.2899
1.78956
16.9837
1.72761
16.7174
1.66947
16.4899
1.61489
16.2993
1.56354
16.1432
1.51503
16.0188
1.46896
15.923
1.4249
15.8531
1.38246
15.8061
1.34126
15.7795
1.30095
15.771
1.26124
15.7784
1.22184
15.7998
1.18253
15.8338
1.1431
15.8788
1.10336
15.9337
1.06318
15.9975
1.02242
16.0692
0.980961
16.148
0.938726
16.2334
0.89563
16.3247
0.85161
16.4216
0.806612
16.5236
0.760592
16.6303
0.713515
16.7415
0.665354
16.8569
0.616087
16.9764
0.565699
17.0997
0.514182
17.2268
0.461528
17.3575
0.407737
17.4917
0.352813
17.6294
0.296761
17.7704
0.23959
17.9148
0.181313
18.0625
0.121943
18.2135
0.0614995
18.3678
-1.24592e-07
18.5254
-0.0625335
18.6863
-0.126078
18.8504
-0.190609
19.0178
-0.256099
19.1886
-0.322519
19.3627
-0.389842
19.5401
-0.458034
19.7209
-0.527065
19.9051
-0.5969
20.0927
-0.667505
20.2838
-0.738844
20.4784
-0.810879
20.6764
-0.883574
20.878
-0.95689
21.0832
-1.03079
21.2919
-1.10522
21.5043
-1.18016
21.7203
-1.25556
21.9399
-1.33136
22.1632
-1.40755
22.3902
-1.48405
22.6209
-1.56085
22.8553
-1.63788
23.0935
-1.71511
23.3355
-1.79248
23.5812
-1.86995
23.8306
-1.94748
24.0839
-2.02502
24.3409
-2.10252
24.6017
-2.17994
24.8663
-2.25722
25.1347
-2.33432
25.4068
-2.4112
25.6829
-2.48778
25.9621
-2.5641
26.2471
-2.63985
26.5294
-2.71579
26.8352
-2.78933
-2.86846
27.084
17.2125
1.98635
-17.5825
16.8776
1.91794
16.5794
1.85347
16.3182
1.79282
16.0931
1.73577
15.9026
1.68201
15.7445
1.63118
15.6164
1.58287
15.5156
1.53668
15.4394
1.49221
15.3854
1.44908
15.3511
1.40694
15.3342
1.36548
15.3329
1.32442
15.3454
1.28351
15.3701
1.24254
15.4056
1.20132
15.4509
1.15969
15.5049
1.11751
15.5668
1.07466
15.6357
1.03105
15.7111
0.986579
15.7924
0.941189
15.8792
0.894818
15.971
0.847414
16.0675
0.79894
16.1684
0.749361
16.2735
0.698655
16.3826
0.646802
16.4955
0.593788
16.612
0.539607
16.7321
0.484254
16.8556
0.427729
16.9825
0.370038
17.1127
0.311187
17.2461
0.251187
17.3828
0.190052
17.5227
0.127796
17.6657
0.0644385
17.812
0
17.9614
-0.0654974
18.1139
-0.132029
18.2697
-0.199569
18.4286
-0.268089
18.5908
-0.33756
18.7562
-0.407951
18.9248
-0.479229
19.0967
-0.551361
19.2719
-0.624313
19.4504
-0.698047
19.6322
-0.772527
19.8174
-0.847715
20.006
-0.923571
20.198
-1.00005
20.3935
-1.07713
20.5924
-1.15474
20.7948
-1.23286
21.0007
-1.31144
21.2101
-1.39043
21.4231
-1.46979
21.6397
-1.54948
21.8598
-1.62945
22.0835
-1.70965
22.3109
-1.79003
22.5418
-1.87055
22.7764
-1.95117
23.0146
-2.03182
23.2564
-2.11247
23.5019
-2.19306
23.751
-2.27355
24.0038
-2.35389
24.2602
-2.43402
24.5202
-2.51391
24.7839
-2.59347
25.0507
-2.67275
25.323
-2.75143
25.5929
-2.83027
25.8849
-2.90666
-2.98869
26.1234
16.4709
2.04617
-16.7937
16.1815
1.97946
15.9264
1.91657
15.7048
1.85728
15.5155
1.80133
15.3567
1.74835
15.2261
1.69797
15.1214
1.64978
15.0402
1.6034
14.9802
1.55844
14.9391
1.51457
14.915
1.47145
14.9059
1.4288
14.9102
1.38637
14.9264
1.34394
14.9533
1.30131
14.9897
1.2583
15.0347
1.21479
15.0875
1.17063
15.1472
1.12572
15.2133
1.07997
15.2852
1.03331
15.3625
0.985661
15.4448
0.936977
15.5317
0.887211
15.623
0.836327
15.7184
0.784297
15.8177
0.731097
15.9207
0.676712
16.0274
0.621131
16.1375
0.564347
16.2509
0.506359
16.3677
0.447168
16.4877
0.38678
16.6108
0.325203
16.7371
0.26245
16.8665
0.198535
16.9989
0.133475
17.1345
0.0672897
17.2731
0
17.4148
-0.0683701
17.5595
-0.137795
17.7073
-0.208248
17.8582
-0.279699
18.0122
-0.352118
18.1694
-0.425472
18.3296
-0.499729
18.4931
-0.574853
18.6597
-0.650808
18.8296
-0.727556
19.0027
-0.80506
19.179
-0.88328
19.3586
-0.962174
19.5415
-1.0417
19.7278
-1.12182
19.9174
-1.20249
20.1104
-1.28366
20.3067
-1.36529
20.5065
-1.44733
20.7096
-1.52974
20.9163
-1.61246
21.1263
-1.69546
21.3399
-1.77869
21.5569
-1.86209
21.7774
-1.94562
22.0014
-2.02922
22.2288
-2.11286
22.4598
-2.19647
22.6943
-2.28
22.9323
-2.36342
23.1738
-2.44666
23.4188
-2.52967
23.6672
-2.61242
23.9192
-2.69482
24.1742
-2.7769
24.4343
-2.85835
24.6924
-2.93994
24.9712
-3.01904
-3.10379
25.1999
15.7901
2.10529
-16.0695
15.5418
2.04042
15.3247
1.97915
15.1376
1.92122
14.9791
1.86629
14.8471
1.814
14.7396
1.76397
14.6544
1.71581
14.5894
1.66914
14.5425
1.62362
14.5119
1.57894
14.4959
1.53479
14.4929
1.49092
14.5015
1.44711
14.5204
1.40314
14.5488
1.35884
14.5855
1.31407
14.6297
1.26868
14.6809
1.22256
14.7384
1.17562
14.8015
1.12776
14.87
1.07893
14.9434
1.02906
15.0213
0.978107
15.1036
0.926021
15.1899
0.872774
15.28
0.81834
15.3738
0.762699
15.4711
0.705837
15.5718
0.647745
15.6759
0.588419
15.7831
0.527859
15.8934
0.466067
16.0069
0.403051
16.1234
0.33882
16.2429
0.273389
16.3654
0.206771
16.4908
0.138987
16.6193
0.0700555
16.7507
0
16.885
-0.0711549
17.0224
-0.143383
17.1627
-0.216655
17.306
-0.290941
17.4523
-0.366209
17.6016
-0.442426
17.754
-0.519558
17.9095
-0.597567
18.068
-0.676418
18.2296
-0.75607
18.3944
-0.836485
18.5623
-0.917622
18.7334
-0.999438
18.9077
-1.08189
19.0852
-1.16494
19.266
-1.24853
19.45
-1.33263
19.6373
-1.41718
19.8278
-1.50214
20.0217
-1.58747
20.2188
-1.6731
20.4194
-1.759
20.6232
-1.84512
20.8304
-1.9314
21.041
-2.0178
21.2549
-2.10426
21.4722
-2.19073
21.6928
-2.27716
21.9168
-2.36351
22.1442
-2.4497
22.3749
-2.53571
22.609
-2.62146
22.8464
-2.70692
23.0873
-2.79201
23.331
-2.87675
23.5797
-2.96084
23.8264
-3.04504
24.0927
-3.12669
-3.21401
24.312
15.1642
2.16409
-15.4045
14.9523
2.1011
14.7684
2.04142
14.6111
1.98475
14.4786
1.93074
14.3693
1.87902
14.281
1.82921
14.2119
1.78096
14.1602
1.73391
14.124
1.68776
14.1019
1.6422
14.0923
1.59698
14.094
1.55186
14.1058
1.50664
14.1267
1.46113
14.1557
1.41517
14.1922
1.36863
14.2355
1.32138
14.2849
1.27332
14.3399
1.22436
14.4002
1.17444
14.4652
1.12347
14.5348
1.07142
14.6086
1.01823
14.6863
0.963864
14.7679
0.908299
14.853
0.851509
14.9416
0.793478
15.0335
0.734193
15.1286
0.673648
15.2268
0.611839
15.3281
0.548768
15.4324
0.48444
15.5397
0.418863
15.6499
0.352049
15.763
0.284011
15.879
0.214767
15.9979
0.144336
16.1196
0.0727386
16.2442
0
16.3716
-0.0738545
16.502
-0.148797
16.6352
-0.224798
16.7713
-0.301827
16.9103
-0.37985
17.0523
-0.458833
17.1972
-0.53874
17.345
-0.619533
17.4959
-0.701175
17.6498
-0.783626
17.8067
-0.866843
17.9666
-0.950786
18.1296
-1.03541
18.2957
-1.12068
18.465
-1.20653
18.6373
-1.29294
18.8128
-1.37984
18.9914
-1.4672
19.1732
-1.55496
19.3582
-1.64307
19.5464
-1.73149
19.7378
-1.82017
19.9325
-1.90905
20.1303
-1.99808
20.3314
-2.08722
20.5358
-2.1764
20.7433
-2.26558
20.9541
-2.3547
21.1682
-2.44372
21.3855
-2.53257
21.606
-2.6212
21.8297
-2.70955
22.0566
-2.79759
22.2869
-2.88523
22.5199
-2.9725
22.7576
-3.05909
22.9935
-3.14575
23.2479
-3.22984
-3.31957
23.4583
14.5875
2.22285
-14.7931
14.4074
2.16167
14.2521
2.10347
14.1201
2.04793
14.0097
1.99469
13.9193
1.94339
13.847
1.89369
13.7912
1.84524
13.7502
1.79772
13.7228
1.75085
13.7074
1.70437
13.7029
1.65803
13.7081
1.61163
13.7222
1.56498
13.7443
1.51792
13.7736
1.4703
13.8096
1.42199
13.8515
1.3729
13.899
1.32292
13.9516
1.27198
14.0089
1.22001
14.0706
1.16694
14.1365
1.11274
14.2062
1.05735
14.2797
1.00076
14.3567
0.942919
14.4371
0.883823
14.5207
0.823452
14.6074
0.761798
14.6972
0.698855
14.7901
0.634622
14.8858
0.569102
14.9844
0.502301
15.0859
0.43423
15.1901
0.3649
15.2972
0.294327
15.407
0.222529
15.5196
0.149526
15.635
0.0753416
15.7532
-1.24492e-07
15.8741
-0.0764715
15.9978
-0.154044
16.1243
-0.232688
16.2536
-0.312369
16.3857
-0.393055
16.5207
-0.47471
16.6585
-0.557296
16.7992
-0.640777
16.9428
-0.72511
17.0893
-0.810257
17.2387
-0.896174
17.3911
-0.982819
17.5464
-1.07015
17.7047
-1.15811
17.8661
-1.24667
18.0304
-1.33577
18.1978
-1.42537
18.3683
-1.51541
18.5418
-1.60585
18.7183
-1.69664
18.898
-1.78773
19.0808
-1.87906
19.2666
-1.97058
19.4556
-2.06225
19.6477
-2.154
19.8429
-2.24578
20.0412
-2.33754
20.2427
-2.42923
20.4472
-2.52078
20.6549
-2.61215
20.8657
-2.70328
21.0796
-2.79412
21.2965
-2.88461
21.5166
-2.97467
21.7394
-3.06434
21.9666
-3.15329
22.1923
-3.24229
22.4353
-3.32869
-3.42069
22.6371
14.0543
2.28172
-14.2296
13.9018
2.22222
13.7709
2.16535
13.6603
2.11077
13.5684
2.05814
13.4937
2.00713
13.4346
1.95739
13.3896
1.90863
13.3575
1.86056
13.337
1.8129
13.327
1.76544
13.3264
1.71794
13.3343
1.67023
13.35
1.62214
13.3728
1.57352
13.4019
1.52424
13.437
1.47419
13.4775
1.42327
13.5229
1.37139
13.573
1.31849
13.6274
1.2645
13.6859
1.20937
13.7482
1.15305
13.8141
1.09551
13.8835
1.03672
13.9561
0.976655
14.032
0.915299
14.1109
0.852639
14.1928
0.788668
14.2776
0.723383
14.3653
0.656783
14.4557
0.588874
14.5489
0.519663
14.6449
0.449162
14.7436
0.377383
14.8449
0.304344
14.9489
0.230063
15.0556
0.154563
15.165
0.0778665
15.2771
0
15.3918
-0.0790086
15.5093
-0.159129
15.6294
-0.240331
15.7523
-0.322579
15.8779
-0.40584
16.0062
-0.490077
16.1373
-0.575251