/*--------------------------------*- C++ -*----------------------------------*\
| =========                 |                                                 |
| \\      /  F ield         | OpenFOAM: The Open Source CFD Toolbox           |
|  \\    /   O peration     | Version:  2312                                  |
|   \\  /    A nd           | Website:  www.openfoam.com                      |
|    \\/     M anipulation  |                                                 |
\*---------------------------------------------------------------------------*/
FoamFile
{
    version     2.0;
    format      ascii;
    arch        "LSB;label=32;scalar=64";
    class       volVectorField;
    location    "0.293";
    object      U;
}
// * * * * * * * * * * * * * * * * * * * * * * * * * * * * * * * * * * * * * //

dimensions      [0 1 -1 0 0 0 0];

internalField   nonuniform List<vector> 
31205
(
(285.378 0 0)
(284.28 0 0)
(283.138 0 0)
(281.949 0 0)
(280.712 0 0)
(279.426 0 0)
(278.09 0 0)
(276.701 0 0)
(275.259 0 0)
(273.761 0 0)
(272.206 0 0)
(270.59 0 0)
(268.912 0 0)
(267.168 0 0)
(265.356 0 0)
(263.473 0 0)
(261.514 0 0)
(259.475 0 0)
(257.351 0 0)
(255.138 0 0)
(252.83 0 0)
(250.418 0 0)
(247.896 0 0)
(245.255 0 0)
(242.483 0 0)
(239.569 0 0)
(236.497 0 0)
(233.25 0 0)
(229.805 0 0)
(226.135 0 0)
(222.204 0 0)
(217.966 0 0)
(213.357 0 0)
(208.296 0 0)
(202.669 0 0)
(196.235 0 0)
(188.396 0 0)
(178.132 0 0)
(164.732 0 0)
(149.158 0 0)
(134.133 0 0)
(122.182 0 0)
(114.054 0 0)
(109.093 0 0)
(106.284 0 0)
(104.815 0 0)
(104.165 0 0)
(104.022 0 0)
(104.206 0 0)
(104.61 0 0)
(105.168 0 0)
(105.837 0 0)
(106.59 0 0)
(107.408 0 0)
(108.276 0 0)
(109.185 0 0)
(110.126 0 0)
(111.095 0 0)
(112.086 0 0)
(113.095 0 0)
(114.119 0 0)
(115.157 0 0)
(116.206 0 0)
(117.263 0 0)
(118.329 0 0)
(119.4 0 0)
(120.477 0 0)
(121.559 0 0)
(122.644 0 0)
(123.732 0 0)
(124.823 0 0)
(125.915 0 0)
(127.009 0 0)
(128.102 0 0)
(129.201 0 0)
(130.284 0 0)
(131.418 0 0)
(132.391 0 0)
(133.861 0 0)
(284.386 0 0)
(283.279 0 0)
(282.128 0 0)
(280.932 0 0)
(279.689 0 0)
(278.399 0 0)
(277.06 0 0)
(275.67 0 0)
(274.228 0 0)
(272.731 0 0)
(271.178 0 0)
(269.567 0 0)
(267.894 0 0)
(266.158 0 0)
(264.354 0 0)
(262.481 0 0)
(260.534 0 0)
(258.509 0 0)
(256.402 0 0)
(254.206 0 0)
(251.918 0 0)
(249.529 0 0)
(247.032 0 0)
(244.418 0 0)
(241.677 0 0)
(238.796 0 0)
(235.762 0 0)
(232.556 0 0)
(229.157 0 0)
(225.539 0 0)
(221.668 0 0)
(217.497 0 0)
(212.967 0 0)
(207.998 0 0)
(202.482 0 0)
(196.196 0 0)
(188.59 0 0)
(178.687 0 0)
(165.716 0 0)
(150.433 0 0)
(135.395 0 0)
(123.19 0 0)
(114.743 0 0)
(109.511 0 0)
(106.504 0 0)
(104.896 0 0)
(104.145 0 0)
(103.924 0 0)
(104.045 0 0)
(104.395 0 0)
(104.904 0 0)
(105.528 0 0)
(106.239 0 0)
(107.017 0 0)
(107.846 0 0)
(108.717 0 0)
(109.623 0 0)
(110.556 0 0)
(111.511 0 0)
(112.486 0 0)
(113.477 0 0)
(114.481 0 0)
(115.497 0 0)
(116.522 0 0)
(117.555 0 0)
(118.595 0 0)
(119.64 0 0)
(120.691 0 0)
(121.745 0 0)
(122.802 0 0)
(123.862 0 0)
(124.923 0 0)
(125.987 0 0)
(127.05 0 0)
(128.119 0 0)
(129.172 0 0)
(130.276 0 0)
(131.224 0 0)
(132.648 0 0)
(283.333 0 0)
(282.216 0 0)
(281.057 0 0)
(279.854 0 0)
(278.606 0 0)
(277.311 0 0)
(275.969 0 0)
(274.577 0 0)
(273.134 0 0)
(271.638 0 0)
(270.087 0 0)
(268.479 0 0)
(266.811 0 0)
(265.081 0 0)
(263.286 0 0)
(261.422 0 0)
(259.485 0 0)
(257.473 0 0)
(255.379 0 0)
(253.2 0 0)
(250.929 0 0)
(248.56 0 0)
(246.085 0 0)
(243.496 0 0)
(240.782 0 0)
(237.931 0 0)
(234.93 0 0)
(231.761 0 0)
(228.403 0 0)
(224.831 0 0)
(221.01 0 0)
(216.899 0 0)
(212.436 0 0)
(207.545 0 0)
(202.122 0 0)
(195.957 0 0)
(188.533 0 0)
(178.917 0 0)
(166.31 0 0)
(151.316 0 0)
(136.345 0 0)
(123.995 0 0)
(115.319 0 0)
(109.874 0 0)
(106.704 0 0)
(104.976 0 0)
(104.134 0 0)
(103.843 0 0)
(103.905 0 0)
(104.204 0 0)
(104.666 0 0)
(105.248 0 0)
(105.918 0 0)
(106.657 0 0)
(107.449 0 0)
(108.284 0 0)
(109.154 0 0)
(110.052 0 0)
(110.974 0 0)
(111.915 0 0)
(112.873 0 0)
(113.845 0 0)
(114.828 0 0)
(115.822 0 0)
(116.824 0 0)
(117.832 0 0)
(118.847 0 0)
(119.867 0 0)
(120.89 0 0)
(121.918 0 0)
(122.948 0 0)
(123.979 0 0)
(125.014 0 0)
(126.047 0 0)
(127.087 0 0)
(128.112 0 0)
(129.184 0 0)
(130.109 0 0)
(131.488 0 0)
(282.248 0 0)
(281.122 0 0)
(279.955 0 0)
(278.746 0 0)
(277.492 0 0)
(276.194 0 0)
(274.848 0 0)
(273.455 0 0)
(272.011 0 0)
(270.516 0 0)
(268.967 0 0)
(267.362 0 0)
(265.698 0 0)
(263.974 0 0)
(262.185 0 0)
(260.33 0 0)
(258.403 0 0)
(256.402 0 0)
(254.321 0 0)
(252.157 0 0)
(249.902 0 0)
(247.551 0 0)
(245.096 0 0)
(242.529 0 0)
(239.839 0 0)
(237.016 0 0)
(234.045 0 0)
(230.909 0 0)
(227.588 0 0)
(224.056 0 0)
(220.281 0 0)
(216.221 0 0)
(211.816 0 0)
(206.994 0 0)
(201.65 0 0)
(195.584 0 0)
(188.303 0 0)
(178.912 0 0)
(166.605 0 0)
(151.882 0 0)
(137.023 0 0)
(124.61 0 0)
(115.782 0 0)
(110.179 0 0)
(106.879 0 0)
(105.051 0 0)
(104.131 0 0)
(103.777 0 0)
(103.786 0 0)
(104.037 0 0)
(104.456 0 0)
(104.997 0 0)
(105.628 0 0)
(106.33 0 0)
(107.086 0 0)
(107.886 0 0)
(108.722 0 0)
(109.587 0 0)
(110.475 0 0)
(111.384 0 0)
(112.31 0 0)
(113.251 0 0)
(114.203 0 0)
(115.165 0 0)
(116.137 0 0)
(117.115 0 0)
(118.1 0 0)
(119.09 0 0)
(120.084 0 0)
(121.082 0 0)
(122.082 0 0)
(123.085 0 0)
(124.091 0 0)
(125.096 0 0)
(126.107 0 0)
(127.103 0 0)
(128.147 0 0)
(129.048 0 0)
(130.384 0 0)
(281.146 0 0)
(280.013 0 0)
(278.84 0 0)
(277.624 0 0)
(276.367 0 0)
(275.064 0 0)
(273.717 0 0)
(272.322 0 0)
(270.878 0 0)
(269.384 0 0)
(267.837 0 0)
(266.235 0 0)
(264.576 0 0)
(262.857 0 0)
(261.076 0 0)
(259.228 0 0)
(257.312 0 0)
(255.321 0 0)
(253.253 0 0)
(251.103 0 0)
(248.864 0 0)
(246.53 0 0)
(244.094 0 0)
(241.548 0 0)
(238.882 0 0)
(236.084 0 0)
(233.141 0 0)
(230.036 0 0)
(226.75 0 0)
(223.256 0 0)
(219.524 0 0)
(215.511 0 0)
(211.161 0 0)
(206.4 0 0)
(201.128 0 0)
(195.15 0 0)
(187.993 0 0)
(178.794 0 0)
(166.75 0 0)
(152.282 0 0)
(137.557 0 0)
(125.123 0 0)
(116.184 0 0)
(110.453 0 0)
(107.041 0 0)
(105.124 0 0)
(104.134 0 0)
(103.722 0 0)
(103.68 0 0)
(103.886 0 0)
(104.264 0 0)
(104.766 0 0)
(105.361 0 0)
(106.026 0 0)
(106.748 0 0)
(107.514 0 0)
(108.317 0 0)
(109.149 0 0)
(110.006 0 0)
(110.883 0 0)
(111.778 0 0)
(112.687 0 0)
(113.609 0 0)
(114.542 0 0)
(115.483 0 0)
(116.432 0 0)
(117.387 0 0)
(118.348 0 0)
(119.313 0 0)
(120.283 0 0)
(121.255 0 0)
(122.229 0 0)
(123.207 0 0)
(124.184 0 0)
(125.167 0 0)
(126.136 0 0)
(127.15 0 0)
(128.028 0 0)
(129.325 0 0)
(280.037 0 0)
(278.897 0 0)
(277.718 0 0)
(276.499 0 0)
(275.237 0 0)
(273.932 0 0)
(272.583 0 0)
(271.188 0 0)
(269.745 0 0)
(268.252 0 0)
(266.708 0 0)
(265.11 0 0)
(263.456 0 0)
(261.743 0 0)
(259.969 0 0)
(258.13 0 0)
(256.223 0 0)
(254.244 0 0)
(252.188 0 0)
(250.052 0 0)
(247.828 0 0)
(245.511 0 0)
(243.095 0 0)
(240.57 0 0)
(237.926 0 0)
(235.153 0 0)
(232.238 0 0)
(229.163 0 0)
(225.909 0 0)
(222.452 0 0)
(218.761 0 0)
(214.794 0 0)
(210.495 0 0)
(205.794 0 0)
(200.591 0 0)
(194.695 0 0)
(187.653 0 0)
(178.629 0 0)
(166.829 0 0)
(152.607 0 0)
(138.024 0 0)
(125.59 0 0)
(116.56 0 0)
(110.715 0 0)
(107.201 0 0)
(105.201 0 0)
(104.144 0 0)
(103.676 0 0)
(103.586 0 0)
(103.749 0 0)
(104.086 0 0)
(104.551 0 0)
(105.109 0 0)
(105.74 0 0)
(106.428 0 0)
(107.162 0 0)
(107.932 0 0)
(108.732 0 0)
(109.558 0 0)
(110.405 0 0)
(111.269 0 0)
(112.149 0 0)
(113.041 0 0)
(113.944 0 0)
(114.856 0 0)
(115.776 0 0)
(116.703 0 0)
(117.635 0 0)
(118.572 0 0)
(119.513 0 0)
(120.458 0 0)
(121.405 0 0)
(122.354 0 0)
(123.304 0 0)
(124.26 0 0)
(125.203 0 0)
(126.188 0 0)
(127.043 0 0)
(128.302 0 0)
(278.924 0 0)
(277.779 0 0)
(276.595 0 0)
(275.372 0 0)
(274.108 0 0)
(272.802 0 0)
(271.452 0 0)
(270.057 0 0)
(268.615 0 0)
(267.125 0 0)
(265.584 0 0)
(263.99 0 0)
(262.342 0 0)
(260.636 0 0)
(258.869 0 0)
(257.039 0 0)
(255.142 0 0)
(253.175 0 0)
(251.132 0 0)
(249.009 0 0)
(246.801 0 0)
(244.502 0 0)
(242.104 0 0)
(239.6 0 0)
(236.979 0 0)
(234.231 0 0)
(231.343 0 0)
(228.298 0 0)
(225.077 0 0)
(221.656 0 0)
(218.004 0 0)
(214.082 0 0)
(209.834 0 0)
(205.19 0 0)
(200.054 0 0)
(194.238 0 0)
(187.305 0 0)
(178.449 0 0)
(166.883 0 0)
(152.902 0 0)
(138.465 0 0)
(126.041 0 0)
(116.93 0 0)
(110.978 0 0)
(107.364 0 0)
(105.284 0 0)
(104.161 0 0)
(103.639 0 0)
(103.502 0 0)
(103.622 0 0)
(103.921 0 0)
(104.349 0 0)
(104.872 0 0)
(105.469 0 0)
(106.124 0 0)
(106.826 0 0)
(107.564 0 0)
(108.334 0 0)
(109.129 0 0)
(109.946 0 0)
(110.781 0 0)
(111.631 0 0)
(112.494 0 0)
(113.369 0 0)
(114.252 0 0)
(115.144 0 0)
(116.043 0 0)
(116.948 0 0)
(117.857 0 0)
(118.771 0 0)
(119.688 0 0)
(120.608 0 0)
(121.531 0 0)
(122.454 0 0)
(123.382 0 0)
(124.299 0 0)
(125.257 0 0)
(126.089 0 0)
(127.311 0 0)
(277.81 0 0)
(276.66 0 0)
(275.473 0 0)
(274.247 0 0)
(272.982 0 0)
(271.675 0 0)
(270.325 0 0)
(268.931 0 0)
(267.492 0 0)
(266.004 0 0)
(264.468 0 0)
(262.879 0 0)
(261.237 0 0)
(259.538 0 0)
(257.779 0 0)
(255.959 0 0)
(254.072 0 0)
(252.116 0 0)
(250.087 0 0)
(247.979 0 0)
(245.787 0 0)
(243.505 0 0)
(241.126 0 0)
(238.642 0 0)
(236.044 0 0)
(233.321 0 0)
(230.459 0 0)
(227.444 0 0)
(224.255 0 0)
(220.87 0 0)
(217.258 0 0)
(213.38 0 0)
(209.182 0 0)
(204.595 0 0)
(199.523 0 0)
(193.786 0 0)
(186.961 0 0)
(178.268 0 0)
(166.93 0 0)
(153.187 0 0)
(138.9 0 0)
(126.491 0 0)
(117.304 0 0)
(111.247 0 0)
(107.536 0 0)
(105.375 0 0)
(104.188 0 0)
(103.611 0 0)
(103.428 0 0)
(103.507 0 0)
(103.767 0 0)
(104.159 0 0)
(104.648 0 0)
(105.212 0 0)
(105.835 0 0)
(106.505 0 0)
(107.213 0 0)
(107.952 0 0)
(108.718 0 0)
(109.505 0 0)
(110.311 0 0)
(111.133 0 0)
(111.968 0 0)
(112.814 0 0)
(113.67 0 0)
(114.534 0 0)
(115.406 0 0)
(116.283 0 0)
(117.166 0 0)
(118.053 0 0)
(118.943 0 0)
(119.837 0 0)
(120.733 0 0)
(121.63 0 0)
(122.533 0 0)
(123.424 0 0)
(124.355 0 0)
(125.165 0 0)
(126.351 0 0)
(276.695 0 0)
(275.542 0 0)
(274.353 0 0)
(273.125 0 0)
(271.859 0 0)
(270.552 0 0)
(269.204 0 0)
(267.812 0 0)
(266.375 0 0)
(264.892 0 0)
(263.36 0 0)
(261.777 0 0)
(260.141 0 0)
(258.45 0 0)
(256.7 0 0)
(254.889 0 0)
(253.014 0 0)
(251.07 0 0)
(249.054 0 0)
(246.96 0 0)
(244.784 0 0)
(242.52 0 0)
(240.16 0 0)
(237.697 0 0)
(235.122 0 0)
(232.423 0 0)
(229.589 0 0)
(226.603 0 0)
(223.446 0 0)
(220.097 0 0)
(216.524 0 0)
(212.689 0 0)
(208.541 0 0)
(204.01 0 0)
(199.003 0 0)
(193.343 0 0)
(186.623 0 0)
(178.09 0 0)
(166.976 0 0)
(153.469 0 0)
(139.333 0 0)
(126.946 0 0)
(117.686 0 0)
(111.524 0 0)
(107.716 0 0)
(105.475 0 0)
(104.223 0 0)
(103.593 0 0)
(103.364 0 0)
(103.402 0 0)
(103.625 0 0)
(103.981 0 0)
(104.436 0 0)
(104.968 0 0)
(105.559 0 0)
(106.198 0 0)
(106.876 0 0)
(107.586 0 0)
(108.323 0 0)
(109.082 0 0)
(109.859 0 0)
(110.653 0 0)
(111.46 0 0)
(112.279 0 0)
(113.108 0 0)
(113.946 0 0)
(114.791 0 0)
(115.642 0 0)
(116.498 0 0)
(117.359 0 0)
(118.223 0 0)
(119.091 0 0)
(119.961 0 0)
(120.833 0 0)
(121.71 0 0)
(122.576 0 0)
(123.481 0 0)
(124.269 0 0)
(125.419 0 0)
(275.581 0 0)
(274.426 0 0)
(273.235 0 0)
(272.007 0 0)
(270.741 0 0)
(269.435 0 0)
(268.089 0 0)
(266.699 0 0)
(265.266 0 0)
(263.787 0 0)
(262.26 0 0)
(260.684 0 0)
(259.055 0 0)
(257.372 0 0)
(255.632 0 0)
(253.831 0 0)
(251.967 0 0)
(250.036 0 0)
(248.033 0 0)
(245.955 0 0)
(243.795 0 0)
(241.548 0 0)
(239.208 0 0)
(236.766 0 0)
(234.213 0 0)
(231.539 0 0)
(228.731 0 0)
(225.775 0 0)
(222.651 0 0)
(219.336 0 0)
(215.802 0 0)
(212.011 0 0)
(207.911 0 0)
(203.435 0 0)
(198.492 0 0)
(192.909 0 0)
(186.293 0 0)
(177.916 0 0)
(167.022 0 0)
(153.75 0 0)
(139.768 0 0)
(127.406 0 0)
(118.076 0 0)
(111.812 0 0)
(107.907 0 0)
(105.585 0 0)
(104.268 0 0)
(103.585 0 0)
(103.31 0 0)
(103.307 0 0)
(103.493 0 0)
(103.814 0 0)
(104.237 0 0)
(104.736 0 0)
(105.297 0 0)
(105.906 0 0)
(106.555 0 0)
(107.236 0 0)
(107.944 0 0)
(108.675 0 0)
(109.425 0 0)
(110.191 0 0)
(110.972 0 0)
(111.764 0 0)
(112.567 0 0)
(113.378 0 0)
(114.196 0 0)
(115.022 0 0)
(115.852 0 0)
(116.687 0 0)
(117.527 0 0)
(118.369 0 0)
(119.215 0 0)
(120.061 0 0)
(120.913 0 0)
(121.755 0 0)
(122.634 0 0)
(123.4 0 0)
(124.517 0 0)
(274.468 0 0)
(273.312 0 0)
(272.121 0 0)
(270.893 0 0)
(269.628 0 0)
(268.324 0 0)
(266.98 0 0)
(265.594 0 0)
(264.165 0 0)
(262.691 0 0)
(261.17 0 0)
(259.601 0 0)
(257.98 0 0)
(256.305 0 0)
(254.575 0 0)
(252.785 0 0)
(250.932 0 0)
(249.014 0 0)
(247.025 0 0)
(244.962 0 0)
(242.818 0 0)
(240.59 0 0)
(238.269 0 0)
(235.847 0 0)
(233.318 0 0)
(230.668 0 0)
(227.887 0 0)
(224.96 0 0)
(221.867 0 0)
(218.588 0 0)
(215.092 0 0)
(211.344 0 0)
(207.292 0 0)
(202.872 0 0)
(197.991 0 0)
(192.484 0 0)
(185.969 0 0)
(177.747 0 0)
(167.069 0 0)
(154.03 0 0)
(140.205 0 0)
(127.872 0 0)
(118.476 0 0)
(112.11 0 0)
(108.107 0 0)
(105.704 0 0)
(104.322 0 0)
(103.586 0 0)
(103.266 0 0)
(103.223 0 0)
(103.372 0 0)
(103.659 0 0)
(104.049 0 0)
(104.517 0 0)
(105.048 0 0)
(105.627 0 0)
(106.247 0 0)
(106.9 0 0)
(107.581 0 0)
(108.284 0 0)
(109.008 0 0)
(109.747 0 0)
(110.501 0 0)
(111.268 0 0)
(112.044 0 0)
(112.83 0 0)
(113.623 0 0)
(114.423 0 0)
(115.229 0 0)
(116.039 0 0)
(116.853 0 0)
(117.671 0 0)
(118.492 0 0)
(119.314 0 0)
(120.142 0 0)
(120.959 0 0)
(121.813 0 0)
(122.559 0 0)
(123.642 0 0)
(273.358 0 0)
(272.202 0 0)
(271.011 0 0)
(269.784 0 0)
(268.521 0 0)
(267.22 0 0)
(265.879 0 0)
(264.497 0 0)
(263.073 0 0)
(261.605 0 0)
(260.09 0 0)
(258.528 0 0)
(256.915 0 0)
(255.25 0 0)
(253.529 0 0)
(251.75 0 0)
(249.909 0 0)
(248.004 0 0)
(246.029 0 0)
(243.981 0 0)
(241.855 0 0)
(239.644 0 0)
(237.342 0 0)
(234.942 0 0)
(232.435 0 0)
(229.81 0 0)
(227.056 0 0)
(224.158 0 0)
(221.097 0 0)
(217.852 0 0)
(214.395 0 0)
(210.689 0 0)
(206.684 0 0)
(202.318 0 0)
(197.5 0 0)
(192.067 0 0)
(185.653 0 0)
(177.581 0 0)
(167.117 0 0)
(154.308 0 0)
(140.642 0 0)
(128.343 0 0)
(118.883 0 0)
(112.417 0 0)
(108.316 0 0)
(105.832 0 0)
(104.386 0 0)
(103.596 0 0)
(103.231 0 0)
(103.148 0 0)
(103.261 0 0)
(103.514 0 0)
(103.872 0 0)
(104.311 0 0)
(104.811 0 0)
(105.362 0 0)
(105.954 0 0)
(106.58 0 0)
(107.233 0 0)
(107.91 0 0)
(108.607 0 0)
(109.32 0 0)
(110.049 0 0)
(110.789 0 0)
(111.541 0 0)
(112.301 0 0)
(113.07 0 0)
(113.845 0 0)
(114.626 0 0)
(115.412 0 0)
(116.202 0 0)
(116.996 0 0)
(117.793 0 0)
(118.591 0 0)
(119.395 0 0)
(120.19 0 0)
(121.019 0 0)
(121.744 0 0)
(122.795 0 0)
(272.252 0 0)
(271.096 0 0)
(269.906 0 0)
(268.681 0 0)
(267.421 0 0)
(266.123 0 0)
(264.786 0 0)
(263.409 0 0)
(261.99 0 0)
(260.527 0 0)
(259.02 0 0)
(257.465 0 0)
(255.861 0 0)
(254.205 0 0)
(252.495 0 0)
(250.727 0 0)
(248.899 0 0)
(247.007 0 0)
(245.046 0 0)
(243.014 0 0)
(240.904 0 0)
(238.711 0 0)
(236.429 0 0)
(234.05 0 0)
(231.566 0 0)
(228.966 0 0)
(226.238 0 0)
(223.368 0 0)
(220.339 0 0)
(217.128 0 0)
(213.709 0 0)
(210.045 0 0)
(206.087 0 0)
(201.775 0 0)
(197.018 0 0)
(191.658 0 0)
(185.344 0 0)
(177.419 0 0)
(167.164 0 0)
(154.584 0 0)
(141.079 0 0)
(128.819 0 0)
(119.299 0 0)
(112.734 0 0)
(108.536 0 0)
(105.97 0 0)
(104.458 0 0)
(103.615 0 0)
(103.205 0 0)
(103.083 0 0)
(103.16 0 0)
(103.381 0 0)
(103.707 0 0)
(104.116 0 0)
(104.587 0 0)
(105.11 0 0)
(105.675 0 0)
(106.273 0 0)
(106.9 0 0)
(107.551 0 0)
(108.222 0 0)
(108.91 0 0)
(109.613 0 0)
(110.329 0 0)
(111.056 0 0)
(111.792 0 0)
(112.536 0 0)
(113.287 0 0)
(114.045 0 0)
(114.807 0 0)
(115.573 0 0)
(116.344 0 0)
(117.117 0 0)
(117.892 0 0)
(118.673 0 0)
(119.444 0 0)
(120.25 0 0)
(120.956 0 0)
(121.974 0 0)
(271.15 0 0)
(269.995 0 0)
(268.807 0 0)
(267.585 0 0)
(266.327 0 0)
(265.033 0 0)
(263.701 0 0)
(262.329 0 0)
(260.916 0 0)
(259.46 0 0)
(257.96 0 0)
(256.413 0 0)
(254.818 0 0)
(253.172 0 0)
(251.472 0 0)
(249.716 0 0)
(247.9 0 0)
(246.022 0 0)
(244.076 0 0)
(242.059 0 0)
(239.967 0 0)
(237.792 0 0)
(235.529 0 0)
(233.171 0 0)
(230.709 0 0)
(228.134 0 0)
(225.432 0 0)
(222.591 0 0)
(219.593 0 0)
(216.416 0 0)
(213.034 0 0)
(209.412 0 0)
(205.501 0 0)
(201.241 0 0)
(196.545 0 0)
(191.258 0 0)
(185.04 0 0)
(177.261 0 0)
(167.211 0 0)
(154.858 0 0)
(141.516 0 0)
(129.298 0 0)
(119.723 0 0)
(113.059 0 0)
(108.764 0 0)
(106.117 0 0)
(104.539 0 0)
(103.643 0 0)
(103.188 0 0)
(103.027 0 0)
(103.069 0 0)
(103.257 0 0)
(103.553 0 0)
(103.932 0 0)
(104.375 0 0)
(104.871 0 0)
(105.408 0 0)
(105.98 0 0)
(106.581 0 0)
(107.207 0 0)
(107.853 0 0)
(108.516 0 0)
(109.195 0 0)
(109.886 0 0)
(110.589 0 0)
(111.301 0 0)
(112.022 0 0)
(112.75 0 0)
(113.483 0 0)
(114.222 0 0)
(114.966 0 0)
(115.713 0 0)
(116.464 0 0)
(117.216 0 0)
(117.974 0 0)
(118.724 0 0)
(119.506 0 0)
(120.192 0 0)
(121.179 0 0)
(270.054 0 0)
(268.901 0 0)
(267.715 0 0)
(266.496 0 0)
(265.242 0 0)
(263.952 0 0)
(262.625 0 0)
(261.258 0 0)
(259.852 0 0)
(258.403 0 0)
(256.911 0 0)
(255.373 0 0)
(253.787 0 0)
(252.151 0 0)
(250.462 0 0)
(248.717 0 0)
(246.915 0 0)
(245.05 0 0)
(243.119 0 0)
(241.118 0 0)
(239.042 0 0)
(236.885 0 0)
(234.642 0 0)
(232.305 0 0)
(229.866 0 0)
(227.315 0 0)
(224.639 0 0)
(221.827 0 0)
(218.859 0 0)
(215.717 0 0)
(212.372 0 0)
(208.79 0 0)
(204.925 0 0)
(200.717 0 0)
(196.081 0 0)
(190.866 0 0)
(184.744 0 0)
(177.106 0 0)
(167.257 0 0)
(155.129 0 0)
(141.952 0 0)
(129.782 0 0)
(120.153 0 0)
(113.394 0 0)
(109.002 0 0)
(106.273 0 0)
(104.629 0 0)
(103.68 0 0)
(103.181 0 0)
(102.981 0 0)
(102.988 0 0)
(103.144 0 0)
(103.41 0 0)
(103.76 0 0)
(104.175 0 0)
(104.644 0 0)
(105.155 0 0)
(105.701 0 0)
(106.277 0 0)
(106.877 0 0)
(107.499 0 0)
(108.138 0 0)
(108.793 0 0)
(109.461 0 0)
(110.14 0 0)
(110.829 0 0)
(111.526 0 0)
(112.231 0 0)
(112.942 0 0)
(113.658 0 0)
(114.379 0 0)
(115.104 0 0)
(115.833 0 0)
(116.563 0 0)
(117.299 0 0)
(118.026 0 0)
(118.785 0 0)
(119.453 0 0)
(120.41 0 0)
(268.963 0 0)
(267.812 0 0)
(266.63 0 0)
(265.415 0 0)
(264.165 0 0)
(262.88 0 0)
(261.558 0 0)
(260.198 0 0)
(258.798 0 0)
(257.357 0 0)
(255.873 0 0)
(254.343 0 0)
(252.767 0 0)
(251.141 0 0)
(249.464 0 0)
(247.731 0 0)
(245.941 0 0)
(244.09 0 0)
(242.174 0 0)
(240.189 0 0)
(238.13 0 0)
(235.992 0 0)
(233.768 0 0)
(231.452 0 0)
(229.036 0 0)
(226.508 0 0)
(223.859 0 0)
(221.075 0 0)
(218.138 0 0)
(215.028 0 0)
(211.72 0 0)
(208.179 0 0)
(204.36 0 0)
(200.203 0 0)
(195.626 0 0)
(190.481 0 0)
(184.453 0 0)
(176.954 0 0)
(167.302 0 0)
(155.397 0 0)
(142.387 0 0)
(130.269 0 0)
(120.591 0 0)
(113.738 0 0)
(109.248 0 0)
(106.437 0 0)
(104.727 0 0)
(103.725 0 0)
(103.181 0 0)
(102.943 0 0)
(102.916 0 0)
(103.04 0 0)
(103.276 0 0)
(103.598 0 0)
(103.986 0 0)
(104.428 0 0)
(104.914 0 0)
(105.435 0 0)
(105.986 0 0)
(106.562 0 0)
(107.16 0 0)
(107.775 0 0)
(108.407 0 0)
(109.051 0 0)
(109.708 0 0)
(110.374 0 0)
(111.049 0 0)
(111.731 0 0)
(112.42 0 0)
(113.114 0 0)
(113.813 0 0)
(114.516 0 0)
(115.223 0 0)
(115.932 0 0)
(116.645 0 0)
(117.352 0 0)
(118.089 0 0)
(118.738 0 0)
(119.665 0 0)
(267.879 0 0)
(266.732 0 0)
(265.553 0 0)
(264.342 0 0)
(263.097 0 0)
(261.817 0 0)
(260.501 0 0)
(259.147 0 0)
(257.755 0 0)
(256.321 0 0)
(254.846 0 0)
(253.326 0 0)
(251.759 0 0)
(250.144 0 0)
(248.478 0 0)
(246.758 0 0)
(244.981 0 0)
(243.144 0 0)
(241.243 0 0)
(239.274 0 0)
(237.232 0 0)
(235.112 0 0)
(232.908 0 0)
(230.612 0 0)
(228.218 0 0)
(225.715 0 0)
(223.092 0 0)
(220.335 0 0)
(217.429 0 0)
(214.352 0 0)
(211.08 0 0)
(207.579 0 0)
(203.805 0 0)
(199.699 0 0)
(195.18 0 0)
(190.104 0 0)
(184.168 0 0)
(176.806 0 0)
(167.347 0 0)
(155.662 0 0)
(142.821 0 0)
(130.758 0 0)
(121.036 0 0)
(114.09 0 0)
(109.504 0 0)
(106.61 0 0)
(104.834 0 0)
(103.779 0 0)
(103.191 0 0)
(102.914 0 0)
(102.853 0 0)
(102.946 0 0)
(103.153 0 0)
(103.447 0 0)
(103.809 0 0)
(104.225 0 0)
(104.685 0 0)
(105.181 0 0)
(105.708 0 0)
(106.261 0 0)
(106.835 0 0)
(107.427 0 0)
(108.036 0 0)
(108.658 0 0)
(109.292 0 0)
(109.936 0 0)
(110.589 0 0)
(111.249 0 0)
(111.916 0 0)
(112.589 0 0)
(113.267 0 0)
(113.948 0 0)
(114.634 0 0)
(115.321 0 0)
(116.014 0 0)
(116.7 0 0)
(117.415 0 0)
(118.046 0 0)
(118.945 0 0)
(266.802 0 0)
(265.659 0 0)
(264.484 0 0)
(263.278 0 0)
(262.038 0 0)
(260.764 0 0)
(259.454 0 0)
(258.108 0 0)
(256.722 0 0)
(255.297 0 0)
(253.83 0 0)
(252.32 0 0)
(250.763 0 0)
(249.159 0 0)
(247.504 0 0)
(245.797 0 0)
(244.033 0 0)
(242.21 0 0)
(240.324 0 0)
(238.371 0 0)
(236.346 0 0)
(234.245 0 0)
(232.06 0 0)
(229.786 0 0)
(227.413 0 0)
(224.934 0 0)
(222.337 0 0)
(219.608 0 0)
(216.731 0 0)
(213.687 0 0)
(210.451 0 0)
(206.99 0 0)
(203.26 0 0)
(199.204 0 0)
(194.742 0 0)
(189.735 0 0)
(183.89 0 0)
(176.66 0 0)
(167.391 0 0)
(155.924 0 0)
(143.252 0 0)
(131.25 0 0)
(121.487 0 0)
(114.45 0 0)
(109.768 0 0)
(106.791 0 0)
(104.949 0 0)
(103.84 0 0)
(103.208 0 0)
(102.894 0 0)
(102.799 0 0)
(102.861 0 0)
(103.04 0 0)
(103.306 0 0)
(103.642 0 0)
(104.032 0 0)
(104.468 0 0)
(104.94 0 0)
(105.444 0 0)
(105.973 0 0)
(106.524 0 0)
(107.094 0 0)
(107.68 0 0)
(108.28 0 0)
(108.892 0 0)
(109.515 0 0)
(110.146 0 0)
(110.785 0 0)
(111.431 0 0)
(112.083 0 0)
(112.739 0 0)
(113.4 0 0)
(114.065 0 0)
(114.732 0 0)
(115.404 0 0)
(116.07 0 0)
(116.764 0 0)
(117.377 0 0)
(118.247 0 0)
(265.734 0 0)
(264.594 0 0)
(263.424 0 0)
(262.223 0 0)
(260.989 0 0)
(259.721 0 0)
(258.418 0 0)
(257.079 0 0)
(255.701 0 0)
(254.285 0 0)
(252.827 0 0)
(251.326 0 0)
(249.78 0 0)
(248.187 0 0)
(246.544 0 0)
(244.849 0 0)
(243.098 0 0)
(241.29 0 0)
(239.419 0 0)
(237.482 0 0)
(235.474 0 0)
(233.39 0 0)
(231.225 0 0)
(228.972 0 0)
(226.622 0 0)
(224.166 0 0)
(221.594 0 0)
(218.893 0 0)
(216.046 0 0)
(213.034 0 0)
(209.833 0 0)
(206.411 0 0)
(202.725 0 0)
(198.718 0 0)
(194.313 0 0)
(189.374 0 0)
(183.617 0 0)
(176.518 0 0)
(167.435 0 0)
(156.182 0 0)
(143.682 0 0)
(131.745 0 0)
(121.945 0 0)
(114.819 0 0)
(110.041 0 0)
(106.981 0 0)
(105.072 0 0)
(103.909 0 0)
(103.233 0 0)
(102.882 0 0)
(102.754 0 0)
(102.785 0 0)
(102.935 0 0)
(103.175 0 0)
(103.485 0 0)
(103.851 0 0)
(104.262 0 0)
(104.711 0 0)
(105.191 0 0)
(105.698 0 0)
(106.227 0 0)
(106.775 0 0)
(107.339 0 0)
(107.918 0 0)
(108.508 0 0)
(109.109 0 0)
(109.72 0 0)
(110.338 0 0)
(110.963 0 0)
(111.595 0 0)
(112.231 0 0)
(112.872 0 0)
(113.516 0 0)
(114.163 0 0)
(114.815 0 0)
(115.461 0 0)
(116.134 0 0)
(116.73 0 0)
(117.573 0 0)
(264.673 0 0)
(263.538 0 0)
(262.374 0 0)
(261.178 0 0)
(259.95 0 0)
(258.689 0 0)
(257.393 0 0)
(256.061 0 0)
(254.692 0 0)
(253.284 0 0)
(251.835 0 0)
(250.344 0 0)
(248.809 0 0)
(247.227 0 0)
(245.596 0 0)
(243.913 0 0)
(242.177 0 0)
(240.382 0 0)
(238.526 0 0)
(236.605 0 0)
(234.615 0 0)
(232.549 0 0)
(230.404 0 0)
(228.171 0 0)
(225.842 0 0)
(223.41 0 0)
(220.864 0 0)
(218.19 0 0)
(215.372 0 0)
(212.393 0 0)
(209.227 0 0)
(205.843 0 0)
(202.2 0 0)
(198.242 0 0)
(193.892 0 0)
(189.019 0 0)
(183.35 0 0)
(176.379 0 0)
(167.477 0 0)
(156.437 0 0)
(144.109 0 0)
(132.241 0 0)
(122.408 0 0)
(115.196 0 0)
(110.322 0 0)
(107.179 0 0)
(105.202 0 0)
(103.986 0 0)
(103.266 0 0)
(102.877 0 0)
(102.716 0 0)
(102.718 0 0)
(102.84 0 0)
(103.054 0 0)
(103.338 0 0)
(103.68 0 0)
(104.068 0 0)
(104.494 0 0)
(104.951 0 0)
(105.436 0 0)
(105.943 0 0)
(106.469 0 0)
(107.012 0 0)
(107.57 0 0)
(108.139 0 0)
(108.72 0 0)
(109.31 0 0)
(109.908 0 0)
(110.513 0 0)
(111.124 0 0)
(111.741 0 0)
(112.361 0 0)
(112.986 0 0)
(113.614 0 0)
(114.246 0 0)
(114.873 0 0)
(115.526 0 0)
(116.105 0 0)
(116.921 0 0)
(263.622 0 0)
(262.492 0 0)
(261.333 0 0)
(260.143 0 0)
(258.921 0 0)
(257.667 0 0)
(256.378 0 0)
(255.055 0 0)
(253.694 0 0)
(252.295 0 0)
(250.856 0 0)
(249.375 0 0)
(247.85 0 0)
(246.28 0 0)
(244.661 0 0)
(242.991 0 0)
(241.268 0 0)
(239.488 0 0)
(237.647 0 0)
(235.742 0 0)
(233.769 0 0)
(231.722 0 0)
(229.595 0 0)
(227.382 0 0)
(225.076 0 0)
(222.667 0 0)
(220.146 0 0)
(217.499 0 0)
(214.71 0 0)
(211.763 0 0)
(208.631 0 0)
(205.285 0 0)
(201.684 0 0)
(197.774 0 0)
(193.48 0 0)
(188.673 0 0)
(183.089 0 0)
(176.243 0 0)
(167.519 0 0)
(156.688 0 0)
(144.533 0 0)
(132.739 0 0)
(122.877 0 0)
(115.58 0 0)
(110.611 0 0)
(107.384 0 0)
(105.341 0 0)
(104.071 0 0)
(103.307 0 0)
(102.881 0 0)
(102.687 0 0)
(102.659 0 0)
(102.754 0 0)
(102.942 0 0)
(103.202 0 0)
(103.519 0 0)
(103.884 0 0)
(104.287 0 0)
(104.723 0 0)
(105.186 0 0)
(105.671 0 0)
(106.177 0 0)
(106.699 0 0)
(107.236 0 0)
(107.785 0 0)
(108.346 0 0)
(108.916 0 0)
(109.494 0 0)
(110.08 0 0)
(110.671 0 0)
(111.268 0 0)
(111.87 0 0)
(112.475 0 0)
(113.083 0 0)
(113.697 0 0)
(114.305 0 0)
(114.938 0 0)
(115.501 0 0)
(116.291 0 0)
(262.58 0 0)
(261.455 0 0)
(260.302 0 0)
(259.118 0 0)
(257.904 0 0)
(256.656 0 0)
(255.376 0 0)
(254.06 0 0)
(252.708 0 0)
(251.318 0 0)
(249.889 0 0)
(248.418 0 0)
(246.904 0 0)
(245.345 0 0)
(243.739 0 0)
(242.082 0 0)
(240.372 0 0)
(238.606 0 0)
(236.781 0 0)
(234.892 0 0)
(232.936 0 0)
(230.907 0 0)
(228.799 0 0)
(226.607 0 0)
(224.323 0 0)
(221.937 0 0)
(219.44 0 0)
(216.82 0 0)
(214.06 0 0)
(211.144 0 0)
(208.046 0 0)
(204.738 0 0)
(201.179 0 0)
(197.316 0 0)
(193.076 0 0)
(188.333 0 0)
(182.834 0 0)
(176.11 0 0)
(167.56 0 0)
(156.936 0 0)
(144.955 0 0)
(133.237 0 0)
(123.352 0 0)
(115.973 0 0)
(110.909 0 0)
(107.598 0 0)
(105.487 0 0)
(104.163 0 0)
(103.355 0 0)
(102.892 0 0)
(102.666 0 0)
(102.609 0 0)
(102.676 0 0)
(102.838 0 0)
(103.074 0 0)
(103.369 0 0)
(103.711 0 0)
(104.092 0 0)
(104.506 0 0)
(104.947 0 0)
(105.412 0 0)
(105.897 0 0)
(106.399 0 0)
(106.916 0 0)
(107.446 0 0)
(107.987 0 0)
(108.537 0 0)
(109.096 0 0)
(109.662 0 0)
(110.235 0 0)
(110.813 0 0)
(111.395 0 0)
(111.982 0 0)
(112.572 0 0)
(113.167 0 0)
(113.757 0 0)
(114.371 0 0)
(114.917 0 0)
(115.682 0 0)
(261.548 0 0)
(260.429 0 0)
(259.282 0 0)
(258.105 0 0)
(256.897 0 0)
(255.657 0 0)
(254.385 0 0)
(253.077 0 0)
(251.734 0 0)
(250.354 0 0)
(248.934 0 0)
(247.474 0 0)
(245.971 0 0)
(244.424 0 0)
(242.83 0 0)
(241.186 0 0)
(239.49 0 0)
(237.738 0 0)
(235.928 0 0)
(234.055 0 0)
(232.116 0 0)
(230.105 0 0)
(228.016 0 0)
(225.844 0 0)
(223.581 0 0)
(221.219 0 0)
(218.747 0 0)
(216.152 0 0)
(213.422 0 0)
(210.536 0 0)
(207.472 0 0)
(204.201 0 0)
(200.683 0 0)
(196.867 0 0)
(192.68 0 0)
(188.001 0 0)
(182.585 0 0)
(175.979 0 0)
(167.6 0 0)
(157.18 0 0)
(145.373 0 0)
(133.737 0 0)
(123.831 0 0)
(116.372 0 0)
(111.215 0 0)
(107.82 0 0)
(105.64 0 0)
(104.262 0 0)
(103.41 0 0)
(102.91 0 0)
(102.652 0 0)
(102.566 0 0)
(102.607 0 0)
(102.744 0 0)
(102.956 0 0)
(103.228 0 0)
(103.548 0 0)
(103.907 0 0)
(104.3 0 0)
(104.721 0 0)
(105.165 0 0)
(105.63 0 0)
(106.112 0 0)
(106.61 0 0)
(107.12 0 0)
(107.642 0 0)
(108.173 0 0)
(108.713 0 0)
(109.261 0 0)
(109.815 0 0)
(110.374 0 0)
(110.939 0 0)
(111.507 0 0)
(112.078 0 0)
(112.655 0 0)
(113.227 0 0)
(113.822 0 0)
(114.353 0 0)
(115.093 0 0)
(260.526 0 0)
(259.413 0 0)
(258.272 0 0)
(257.102 0 0)
(255.902 0 0)
(254.67 0 0)
(253.405 0 0)
(252.107 0 0)
(250.773 0 0)
(249.402 0 0)
(247.992 0 0)
(246.543 0 0)
(245.051 0 0)
(243.516 0 0)
(241.934 0 0)
(240.303 0 0)
(238.62 0 0)
(236.883 0 0)
(235.088 0 0)
(233.232 0 0)
(231.309 0 0)
(229.316 0 0)
(227.246 0 0)
(225.095 0 0)
(222.853 0 0)
(220.513 0 0)
(218.065 0 0)
(215.497 0 0)
(212.794 0 0)
(209.939 0 0)
(206.909 0 0)
(203.674 0 0)
(200.197 0 0)
(196.427 0 0)
(192.293 0 0)
(187.675 0 0)
(182.34 0 0)
(175.852 0 0)
(167.64 0 0)
(157.42 0 0)
(145.788 0 0)
(134.237 0 0)
(124.315 0 0)
(116.779 0 0)
(111.529 0 0)
(108.049 0 0)
(105.801 0 0)
(104.368 0 0)
(103.472 0 0)
(102.935 0 0)
(102.645 0 0)
(102.531 0 0)
(102.546 0 0)
(102.658 0 0)
(102.847 0 0)
(103.096 0 0)
(103.394 0 0)
(103.733 0 0)
(104.105 0 0)
(104.506 0 0)
(104.93 0 0)
(105.375 0 0)
(105.838 0 0)
(106.317 0 0)
(106.808 0 0)
(107.311 0 0)
(107.824 0 0)
(108.346 0 0)
(108.875 0 0)
(109.411 0 0)
(109.952 0 0)
(110.498 0 0)
(111.049 0 0)
(111.603 0 0)
(112.161 0 0)
(112.716 0 0)
(113.293 0 0)
(113.809 0 0)
(114.525 0 0)
(259.514 0 0)
(258.408 0 0)
(257.274 0 0)
(256.111 0 0)
(254.919 0 0)
(253.695 0 0)
(252.438 0 0)
(251.148 0 0)
(249.824 0 0)
(248.463 0 0)
(247.063 0 0)
(245.625 0 0)
(244.144 0 0)
(242.62 0 0)
(241.051 0 0)
(239.433 0 0)
(237.764 0 0)
(236.042 0 0)
(234.262 0 0)
(232.421 0 0)
(230.515 0 0)
(228.54 0 0)
(226.489 0 0)
(224.357 0 0)
(222.137 0 0)
(219.82 0 0)
(217.396 0 0)
(214.854 0 0)
(212.179 0 0)
(209.353 0 0)
(206.356 0 0)
(203.157 0 0)
(199.721 0 0)
(195.995 0 0)
(191.913 0 0)
(187.357 0 0)
(182.102 0 0)
(175.727 0 0)
(167.678 0 0)
(157.657 0 0)
(146.2 0 0)
(134.737 0 0)
(124.803 0 0)
(117.193 0 0)
(111.85 0 0)
(108.286 0 0)
(105.969 0 0)
(104.482 0 0)
(103.541 0 0)
(102.968 0 0)
(102.646 0 0)
(102.503 0 0)
(102.492 0 0)
(102.58 0 0)
(102.746 0 0)
(102.973 0 0)
(103.25 0 0)
(103.568 0 0)
(103.92 0 0)
(104.301 0 0)
(104.706 0 0)
(105.132 0 0)
(105.576 0 0)
(106.036 0 0)
(106.509 0 0)
(106.994 0 0)
(107.489 0 0)
(107.992 0 0)
(108.504 0 0)
(109.022 0 0)
(109.546 0 0)
(110.074 0 0)
(110.608 0 0)
(111.144 0 0)
(111.686 0 0)
(112.223 0 0)
(112.783 0 0)
(113.283 0 0)
(113.976 0 0)
(258.514 0 0)
(257.414 0 0)
(256.287 0 0)
(255.132 0 0)
(253.947 0 0)
(252.731 0 0)
(251.483 0 0)
(250.203 0 0)
(248.887 0 0)
(247.536 0 0)
(246.147 0 0)
(244.719 0 0)
(243.25 0 0)
(241.738 0 0)
(240.181 0 0)
(238.576 0 0)
(236.921 0 0)
(235.213 0 0)
(233.448 0 0)
(231.624 0 0)
(229.735 0 0)
(227.777 0 0)
(225.745 0 0)
(223.633 0 0)
(221.433 0 0)
(219.138 0 0)
(216.738 0 0)
(214.222 0 0)
(211.574 0 0)
(208.779 0 0)
(205.813 0 0)
(202.651 0 0)
(199.253 0 0)
(195.573 0 0)
(191.541 0 0)
(187.046 0 0)
(181.868 0 0)
(175.605 0 0)
(167.716 0 0)
(157.889 0 0)
(146.607 0 0)
(135.236 0 0)
(125.296 0 0)
(117.614 0 0)
(112.179 0 0)
(108.531 0 0)
(106.144 0 0)
(104.602 0 0)
(103.617 0 0)
(103.007 0 0)
(102.654 0 0)
(102.483 0 0)
(102.446 0 0)
(102.511 0 0)
(102.654 0 0)
(102.859 0 0)
(103.115 0 0)
(103.413 0 0)
(103.745 0 0)
(104.107 0 0)
(104.493 0 0)
(104.901 0 0)
(105.326 0 0)
(105.768 0 0)
(106.223 0 0)
(106.69 0 0)
(107.167 0 0)
(107.653 0 0)
(108.147 0 0)
(108.648 0 0)
(109.155 0 0)
(109.666 0 0)
(110.183 0 0)
(110.702 0 0)
(111.227 0 0)
(111.748 0 0)
(112.29 0 0)
(112.776 0 0)
(113.446 0 0)
(257.524 0 0)
(256.432 0 0)
(255.312 0 0)
(254.164 0 0)
(252.987 0 0)
(251.78 0 0)
(250.541 0 0)
(249.269 0 0)
(247.964 0 0)
(246.622 0 0)
(245.244 0 0)
(243.827 0 0)
(242.369 0 0)
(240.869 0 0)
(239.324 0 0)
(237.733 0 0)
(236.091 0 0)
(234.398 0 0)
(232.648 0 0)
(230.839 0 0)
(228.967 0 0)
(227.026 0 0)
(225.013 0 0)
(222.92 0 0)
(220.742 0 0)
(218.469 0 0)
(216.093 0 0)
(213.601 0 0)
(210.981 0 0)
(208.214 0 0)
(205.281 0 0)
(202.153 0 0)
(198.795 0 0)
(195.158 0 0)
(191.177 0 0)
(186.741 0 0)
(181.64 0 0)
(175.486 0 0)
(167.752 0 0)
(158.117 0 0)