/*--------------------------------*- C++ -*----------------------------------*\
| =========                 |                                                 |
| \\      /  F ield         | OpenFOAM: The Open Source CFD Toolbox           |
|  \\    /   O peration     | Version:  2312                                  |
|   \\  /    A nd           | Website:  www.openfoam.com                      |
|    \\/     M anipulation  |                                                 |
\*---------------------------------------------------------------------------*/
FoamFile
{
    version     2.0;
    format      ascii;
    arch        "LSB;label=32;scalar=64";
    class       volScalarField;
    location    "1.45";
    object      wave;
}
// * * * * * * * * * * * * * * * * * * * * * * * * * * * * * * * * * * * * * //

dimensions      [0 0 0 0 0 0 0];

internalField   nonuniform List<scalar> 
100
(
0.999141
0.99314
0.962189
0.907066
0.829155
0.730414
0.613324
0.480825
0.336247
0.183222
0.0255938
-0.132677
-0.287615
-0.435328
-0.572104
-0.694507
-0.799463
-0.884335
-0.94699
-0.985855
-0.999953
-0.988929
-0.953062
-0.893252
-0.811001
-0.708376
-0.587955
-0.452763
-0.306197
-0.151939
0.00613659
0.164058
0.317858
0.463672
0.597838
0.716985
0.81812
0.898702
0.956706
0.990676
0.999758
0.983724
0.942976
0.878539
0.792031
0.685625
0.561995
0.424246
0.275839
0.120503
-0.0378608
-0.195273
-0.34778
-0.49155
-0.622971
-0.738742
-0.835953
-0.912164
-0.965459
-0.9945
-0.998557
-0.977527
-0.93194
-0.862941
-0.772262
-0.662183
-0.535468
-0.395301
-0.245203
-0.0889456
0.0695469
0.226292
0.377352
0.518933
0.647476
0.759754
0.852945
0.924708
0.97324
0.997322
0.99635
0.970347
0.919966
0.846474
0.751717
0.638075
0.508403
0.365959
0.214321
0.0572987
-0.101163
-0.257083
-0.406545
-0.545793
-0.67133
-0.780001
-0.869077
-0.93632
-0.980041
-0.999141
)
;

boundaryField
{
    movingWall
    {
        type            calculated;
        value           uniform 0;
    }
    fixedWalls
    {
        type            calculated;
        value           uniform 0;
    }
    frontAndBack
    {
        type            empty;
    }
}


// ************************************************************************* //
