/*--------------------------------*- C++ -*----------------------------------*\
| =========                 |                                                 |
| \\      /  F ield         | OpenFOAM: The Open Source CFD Toolbox           |
|  \\    /   O peration     | Version:  2312                                  |
|   \\  /    A nd           | Website:  www.openfoam.com                      |
|    \\/     M anipulation  |                                                 |
\*---------------------------------------------------------------------------*/
FoamFile
{
    version     2.0;
    format      ascii;
    arch        "LSB;label=32;scalar=64";
    class       volVectorField;
    location    "0.429";
    object      U;
}
// * * * * * * * * * * * * * * * * * * * * * * * * * * * * * * * * * * * * * //

dimensions      [0 1 -1 0 0 0 0];

internalField   nonuniform List<vector> 
31205
(
(287.307 0 0)
(286.286 0 0)
(285.221 0 0)
(284.111 0 0)
(282.954 0 0)
(281.75 0 0)
(280.497 0 0)
(279.193 0 0)
(277.837 0 0)
(276.428 0 0)
(274.963 0 0)
(273.441 0 0)
(271.858 0 0)
(270.213 0 0)
(268.503 0 0)
(266.725 0 0)
(264.875 0 0)
(262.95 0 0)
(260.945 0 0)
(258.856 0 0)
(256.678 0 0)
(254.403 0 0)
(252.027 0 0)
(249.54 0 0)
(246.934 0 0)
(244.198 0 0)
(241.32 0 0)
(238.284 0 0)
(235.072 0 0)
(231.663 0 0)
(228.028 0 0)
(224.133 0 0)
(219.928 0 0)
(215.349 0 0)
(210.316 0 0)
(204.717 0 0)
(198.296 0 0)
(190.373 0 0)
(179.756 0 0)
(165.633 0 0)
(149.184 0 0)
(133.548 0 0)
(121.424 0 0)
(113.415 0 0)
(108.663 0 0)
(106.047 0 0)
(104.727 0 0)
(104.182 0 0)
(104.113 0 0)
(104.348 0 0)
(104.787 0 0)
(105.368 0 0)
(106.054 0 0)
(106.817 0 0)
(107.64 0 0)
(108.51 0 0)
(109.419 0 0)
(110.358 0 0)
(111.322 0 0)
(112.308 0 0)
(113.311 0 0)
(114.328 0 0)
(115.358 0 0)
(116.399 0 0)
(117.447 0 0)
(118.504 0 0)
(119.566 0 0)
(120.634 0 0)
(121.705 0 0)
(122.781 0 0)
(123.859 0 0)
(124.939 0 0)
(126.022 0 0)
(127.104 0 0)
(128.192 0 0)
(129.264 0 0)
(130.388 0 0)
(131.353 0 0)
(132.807 0 0)
(286.22 0 0)
(285.186 0 0)
(284.108 0 0)
(282.988 0 0)
(281.822 0 0)
(280.611 0 0)
(279.352 0 0)
(278.044 0 0)
(276.686 0 0)
(275.276 0 0)
(273.812 0 0)
(272.293 0 0)
(270.715 0 0)
(269.076 0 0)
(267.375 0 0)
(265.607 0 0)
(263.769 0 0)
(261.859 0 0)
(259.871 0 0)
(257.801 0 0)
(255.644 0 0)
(253.394 0 0)
(251.045 0 0)
(248.589 0 0)
(246.017 0 0)
(243.319 0 0)
(240.483 0 0)
(237.493 0 0)
(234.334 0 0)
(230.983 0 0)
(227.415 0 0)
(223.594 0 0)
(219.477 0 0)
(215 0 0)
(210.085 0 0)
(204.631 0 0)
(198.41 0 0)
(190.821 0 0)
(180.742 0 0)
(167.251 0 0)
(151.187 0 0)
(135.452 0 0)
(122.886 0 0)
(114.38 0 0)
(109.233 0 0)
(106.343 0 0)
(104.837 0 0)
(104.161 0 0)
(103.993 0 0)
(104.15 0 0)
(104.522 0 0)
(105.044 0 0)
(105.675 0 0)
(106.388 0 0)
(107.163 0 0)
(107.988 0 0)
(108.853 0 0)
(109.749 0 0)
(110.672 0 0)
(111.617 0 0)
(112.58 0 0)
(113.558 0 0)
(114.549 0 0)
(115.552 0 0)
(116.563 0 0)
(117.583 0 0)
(118.608 0 0)
(119.64 0 0)
(120.676 0 0)
(121.716 0 0)
(122.759 0 0)
(123.805 0 0)
(124.853 0 0)
(125.901 0 0)
(126.955 0 0)
(127.995 0 0)
(129.084 0 0)
(130.021 0 0)
(131.427 0 0)
(285.062 0 0)
(284.014 0 0)
(282.925 0 0)
(281.794 0 0)
(280.619 0 0)
(279.4 0 0)
(278.136 0 0)
(276.823 0 0)
(275.463 0 0)
(274.051 0 0)
(272.588 0 0)
(271.07 0 0)
(269.495 0 0)
(267.862 0 0)
(266.167 0 0)
(264.408 0 0)
(262.581 0 0)
(260.683 0 0)
(258.709 0 0)
(256.656 0 0)
(254.518 0 0)
(252.29 0 0)
(249.965 0 0)
(247.535 0 0)
(244.993 0 0)
(242.328 0 0)
(239.528 0 0)
(236.58 0 0)
(233.466 0 0)
(230.166 0 0)
(226.654 0 0)
(222.898 0 0)
(218.854 0 0)
(214.462 0 0)
(209.648 0 0)
(204.312 0 0)
(198.249 0 0)
(190.911 0 0)
(181.246 0 0)
(168.282 0 0)
(152.614 0 0)
(136.919 0 0)
(124.082 0 0)
(115.21 0 0)
(109.747 0 0)
(106.626 0 0)
(104.957 0 0)
(104.163 0 0)
(103.906 0 0)
(103.989 0 0)
(104.298 0 0)
(104.764 0 0)
(105.343 0 0)
(106.007 0 0)
(106.736 0 0)
(107.516 0 0)
(108.338 0 0)
(109.193 0 0)
(110.075 0 0)
(110.98 0 0)
(111.904 0 0)
(112.844 0 0)
(113.797 0 0)
(114.763 0 0)
(115.737 0 0)
(116.72 0 0)
(117.711 0 0)
(118.707 0 0)
(119.708 0 0)
(120.713 0 0)
(121.722 0 0)
(122.734 0 0)
(123.748 0 0)
(124.763 0 0)
(125.784 0 0)
(126.791 0 0)
(127.846 0 0)
(128.756 0 0)
(130.113 0 0)
(283.866 0 0)
(282.806 0 0)
(281.706 0 0)
(280.565 0 0)
(279.382 0 0)
(278.157 0 0)
(276.886 0 0)
(275.57 0 0)
(274.207 0 0)
(272.794 0 0)
(271.331 0 0)
(269.815 0 0)
(268.244 0 0)
(266.615 0 0)
(264.927 0 0)
(263.176 0 0)
(261.359 0 0)
(259.473 0 0)
(257.513 0 0)
(255.475 0 0)
(253.355 0 0)
(251.147 0 0)
(248.844 0 0)
(246.439 0 0)
(243.925 0 0)
(241.29 0 0)
(238.524 0 0)
(235.613 0 0)
(232.541 0 0)
(229.287 0 0)
(225.827 0 0)
(222.129 0 0)
(218.151 0 0)
(213.836 0 0)
(209.111 0 0)
(203.88 0 0)
(197.95 0 0)
(190.818 0 0)
(181.49 0 0)
(168.977 0 0)
(153.693 0 0)
(138.106 0 0)
(125.101 0 0)
(115.946 0 0)
(110.22 0 0)
(106.898 0 0)
(105.083 0 0)
(104.182 0 0)
(103.841 0 0)
(103.855 0 0)
(104.104 0 0)
(104.516 0 0)
(105.046 0 0)
(105.663 0 0)
(106.348 0 0)
(107.085 0 0)
(107.865 0 0)
(108.679 0 0)
(109.522 0 0)
(110.388 0 0)
(111.274 0 0)
(112.177 0 0)
(113.094 0 0)
(114.022 0 0)
(114.961 0 0)
(115.909 0 0)
(116.864 0 0)
(117.826 0 0)
(118.793 0 0)
(119.764 0 0)
(120.74 0 0)
(121.718 0 0)
(122.7 0 0)
(123.682 0 0)
(124.67 0 0)
(125.646 0 0)
(126.667 0 0)
(127.55 0 0)
(128.862 0 0)
(282.648 0 0)
(281.576 0 0)
(280.467 0 0)
(279.318 0 0)
(278.129 0 0)
(276.897 0 0)
(275.623 0 0)
(274.304 0 0)
(272.939 0 0)
(271.526 0 0)
(270.064 0 0)
(268.55 0 0)
(266.983 0 0)
(265.36 0 0)
(263.679 0 0)
(261.937 0 0)
(260.13 0 0)
(258.256 0 0)
(256.31 0 0)
(254.288 0 0)
(252.185 0 0)
(249.997 0 0)
(247.716 0 0)
(245.335 0 0)
(242.848 0 0)
(240.243 0 0)
(237.51 0 0)
(234.635 0 0)
(231.603 0 0)
(228.394 0 0)
(224.983 0 0)
(221.341 0 0)
(217.427 0 0)
(213.184 0 0)
(208.543 0 0)
(203.41 0 0)
(197.604 0 0)
(190.658 0 0)
(181.633 0 0)
(169.536 0 0)
(154.63 0 0)
(139.185 0 0)
(126.059 0 0)
(116.657 0 0)
(110.689 0 0)
(107.176 0 0)
(105.221 0 0)
(104.216 0 0)
(103.794 0 0)
(103.741 0 0)
(103.932 0 0)
(104.292 0 0)
(104.773 0 0)
(105.345 0 0)
(105.986 0 0)
(106.682 0 0)
(107.421 0 0)
(108.196 0 0)
(109 0 0)
(109.828 0 0)
(110.677 0 0)
(111.543 0 0)
(112.424 0 0)
(113.318 0 0)
(114.222 0 0)
(115.135 0 0)
(116.056 0 0)
(116.983 0 0)
(117.917 0 0)
(118.855 0 0)
(119.798 0 0)
(120.744 0 0)
(121.693 0 0)
(122.643 0 0)
(123.6 0 0)
(124.544 0 0)
(125.533 0 0)
(126.389 0 0)
(127.658 0 0)
(281.414 0 0)
(280.334 0 0)
(279.217 0 0)
(278.061 0 0)
(276.866 0 0)
(275.631 0 0)
(274.353 0 0)
(273.033 0 0)
(271.667 0 0)
(270.255 0 0)
(268.795 0 0)
(267.285 0 0)
(265.723 0 0)
(264.107 0 0)
(262.433 0 0)
(260.7 0 0)
(258.904 0 0)
(257.042 0 0)
(255.111 0 0)
(253.105 0 0)
(251.02 0 0)
(248.852 0 0)
(246.593 0 0)
(244.237 0 0)
(241.776 0 0)
(239.201 0 0)
(236.501 0 0)
(233.662 0 0)
(230.67 0 0)
(227.505 0 0)
(224.143 0 0)
(220.556 0 0)
(216.703 0 0)
(212.532 0 0)
(207.973 0 0)
(202.935 0 0)
(197.249 0 0)
(190.48 0 0)
(181.742 0 0)
(170.047 0 0)
(155.521 0 0)
(140.24 0 0)
(127.018 0 0)
(117.384 0 0)
(111.177 0 0)
(107.474 0 0)
(105.378 0 0)
(104.268 0 0)
(103.765 0 0)
(103.645 0 0)
(103.779 0 0)
(104.087 0 0)
(104.52 0 0)
(105.047 0 0)
(105.646 0 0)
(106.3 0 0)
(107 0 0)
(107.736 0 0)
(108.502 0 0)
(109.294 0 0)
(110.106 0 0)
(110.937 0 0)
(111.783 0 0)
(112.641 0 0)
(113.511 0 0)
(114.39 0 0)
(115.278 0 0)
(116.173 0 0)
(117.073 0 0)
(117.979 0 0)
(118.889 0 0)
(119.803 0 0)
(120.721 0 0)
(121.64 0 0)
(122.566 0 0)
(123.479 0 0)
(124.436 0 0)
(125.265 0 0)
(126.493 0 0)
(280.17 0 0)
(279.082 0 0)
(277.959 0 0)
(276.798 0 0)
(275.599 0 0)
(274.361 0 0)
(273.082 0 0)
(271.76 0 0)
(270.396 0 0)
(268.986 0 0)
(267.529 0 0)
(266.024 0 0)
(264.467 0 0)
(262.858 0 0)
(261.193 0 0)
(259.47 0 0)
(257.686 0 0)
(255.837 0 0)
(253.92 0 0)
(251.931 0 0)
(249.865 0 0)
(247.717 0 0)
(245.481 0 0)
(243.15 0 0)
(240.716 0 0)
(238.171 0 0)
(235.503 0 0)
(232.7 0 0)
(229.748 0 0)
(226.626 0 0)
(223.314 0 0)
(219.781 0 0)
(215.99 0 0)
(211.888 0 0)
(207.41 0 0)
(202.468 0 0)
(196.899 0 0)
(190.302 0 0)
(181.841 0 0)
(170.539 0 0)
(156.398 0 0)
(141.302 0 0)
(128.002 0 0)
(118.143 0 0)
(111.696 0 0)
(107.797 0 0)
(105.557 0 0)
(104.34 0 0)
(103.754 0 0)
(103.567 0 0)
(103.643 0 0)
(103.9 0 0)
(104.286 0 0)
(104.769 0 0)
(105.325 0 0)
(105.939 0 0)
(106.6 0 0)
(107.298 0 0)
(108.027 0 0)
(108.783 0 0)
(109.56 0 0)
(110.355 0 0)
(111.166 0 0)
(111.991 0 0)
(112.827 0 0)
(113.674 0 0)
(114.528 0 0)
(115.391 0 0)
(116.259 0 0)
(117.133 0 0)
(118.012 0 0)
(118.895 0 0)
(119.782 0 0)
(120.67 0 0)
(121.565 0 0)
(122.449 0 0)
(123.375 0 0)
(124.178 0 0)
(125.365 0 0)
(278.916 0 0)
(277.822 0 0)
(276.694 0 0)
(275.53 0 0)
(274.328 0 0)
(273.088 0 0)
(271.809 0 0)
(270.488 0 0)
(269.126 0 0)
(267.719 0 0)
(266.266 0 0)
(264.766 0 0)
(263.217 0 0)
(261.616 0 0)
(259.96 0 0)
(258.248 0 0)
(256.476 0 0)
(254.641 0 0)
(252.74 0 0)
(250.768 0 0)
(248.721 0 0)
(246.593 0 0)
(244.38 0 0)
(242.074 0 0)
(239.668 0 0)
(237.153 0 0)
(234.518 0 0)
(231.751 0 0)
(228.839 0 0)
(225.761 0 0)
(222.497 0 0)
(219.018 0 0)
(215.288 0 0)
(211.256 0 0)
(206.859 0 0)
(202.01 0 0)
(196.557 0 0)
(190.127 0 0)
(181.935 0 0)
(171.02 0 0)
(157.272 0 0)
(142.379 0 0)
(129.021 0 0)
(118.942 0 0)
(112.251 0 0)
(108.151 0 0)
(105.761 0 0)
(104.433 0 0)
(103.762 0 0)
(103.507 0 0)
(103.525 0 0)
(103.73 0 0)
(104.07 0 0)
(104.509 0 0)
(105.024 0 0)
(105.598 0 0)
(106.22 0 0)
(106.881 0 0)
(107.574 0 0)
(108.294 0 0)
(109.036 0 0)
(109.797 0 0)
(110.575 0 0)
(111.366 0 0)
(112.169 0 0)
(112.983 0 0)
(113.806 0 0)
(114.636 0 0)
(115.474 0 0)
(116.317 0 0)
(117.165 0 0)
(118.017 0 0)
(118.873 0 0)
(119.732 0 0)
(120.597 0 0)
(121.451 0 0)
(122.347 0 0)
(123.124 0 0)
(124.272 0 0)
(277.655 0 0)
(276.557 0 0)
(275.425 0 0)
(274.258 0 0)
(273.055 0 0)
(271.815 0 0)
(270.536 0 0)
(269.218 0 0)
(267.858 0 0)
(266.455 0 0)
(265.008 0 0)
(263.514 0 0)
(261.972 0 0)
(260.38 0 0)
(258.735 0 0)
(257.034 0 0)
(255.275 0 0)
(253.455 0 0)
(251.57 0 0)
(249.615 0 0)
(247.588 0 0)
(245.482 0 0)
(243.291 0 0)
(241.011 0 0)
(238.632 0 0)
(236.147 0 0)
(233.546 0 0)
(230.816 0 0)
(227.942 0 0)
(224.909 0 0)
(221.693 0 0)
(218.268 0 0)
(214.598 0 0)
(210.636 0 0)
(206.318 0 0)
(201.562 0 0)
(196.223 0 0)
(189.956 0 0)
(182.026 0 0)
(171.492 0 0)
(158.141 0 0)
(143.472 0 0)
(130.074 0 0)
(119.783 0 0)
(112.845 0 0)
(108.537 0 0)
(105.991 0 0)
(104.549 0 0)
(103.791 0 0)
(103.466 0 0)
(103.425 0 0)
(103.579 0 0)
(103.872 0 0)
(104.268 0 0)
(104.742 0 0)
(105.277 0 0)
(105.861 0 0)
(106.485 0 0)
(107.142 0 0)
(107.827 0 0)
(108.535 0 0)
(109.262 0 0)
(110.007 0 0)
(110.766 0 0)
(111.537 0 0)
(112.319 0 0)
(113.11 0 0)
(113.909 0 0)
(114.716 0 0)
(115.528 0 0)
(116.346 0 0)
(117.169 0 0)
(117.995 0 0)
(118.824 0 0)
(119.66 0 0)
(120.486 0 0)
(121.351 0 0)
(122.104 0 0)
(123.213 0 0)
(276.388 0 0)
(275.287 0 0)
(274.153 0 0)
(272.985 0 0)
(271.782 0 0)
(270.542 0 0)
(269.265 0 0)
(267.949 0 0)
(266.593 0 0)
(265.196 0 0)
(263.754 0 0)
(262.268 0 0)
(260.735 0 0)
(259.152 0 0)
(257.518 0 0)
(255.829 0 0)
(254.084 0 0)
(252.279 0 0)
(250.41 0 0)
(248.474 0 0)
(246.466 0 0)
(244.381 0 0)
(242.215 0 0)
(239.96 0 0)
(237.61 0 0)
(235.155 0 0)
(232.587 0 0)
(229.893 0 0)
(227.059 0 0)
(224.069 0 0)
(220.902 0 0)
(217.53 0 0)
(213.921 0 0)
(210.026 0 0)
(205.787 0 0)
(201.123 0 0)
(195.897 0 0)
(189.789 0 0)
(182.113 0 0)
(171.952 0 0)
(159.004 0 0)
(144.578 0 0)
(131.161 0 0)
(120.666 0 0)
(113.478 0 0)
(108.956 0 0)
(106.248 0 0)
(104.687 0 0)
(103.84 0 0)
(103.444 0 0)
(103.344 0 0)
(103.446 0 0)
(103.693 0 0)
(104.045 0 0)
(104.478 0 0)
(104.975 0 0)
(105.522 0 0)
(106.11 0 0)
(106.732 0 0)
(107.382 0 0)
(108.056 0 0)
(108.751 0 0)
(109.462 0 0)
(110.189 0 0)
(110.929 0 0)
(111.68 0 0)
(112.44 0 0)
(113.209 0 0)
(113.986 0 0)
(114.768 0 0)
(115.557 0 0)
(116.35 0 0)
(117.147 0 0)
(117.947 0 0)
(118.754 0 0)
(119.553 0 0)
(120.389 0 0)
(121.116 0 0)
(122.188 0 0)
(275.116 0 0)
(274.013 0 0)
(272.879 0 0)
(271.71 0 0)
(270.508 0 0)
(269.27 0 0)
(267.996 0 0)
(266.684 0 0)
(265.333 0 0)
(263.941 0 0)
(262.507 0 0)
(261.028 0 0)
(259.504 0 0)
(257.932 0 0)
(256.309 0 0)
(254.633 0 0)
(252.902 0 0)
(251.113 0 0)
(249.261 0 0)
(247.343 0 0)
(245.355 0 0)
(243.293 0 0)
(241.15 0 0)
(238.922 0 0)
(236.599 0 0)
(234.175 0 0)
(231.64 0 0)
(228.982 0 0)
(226.188 0 0)
(223.242 0 0)
(220.122 0 0)
(216.804 0 0)
(213.254 0 0)
(209.428 0 0)
(205.267 0 0)
(200.693 0 0)
(195.578 0 0)
(189.625 0 0)
(182.195 0 0)
(172.399 0 0)
(159.857 0 0)
(145.695 0 0)
(132.28 0 0)
(121.592 0 0)
(114.152 0 0)
(109.409 0 0)
(106.533 0 0)
(104.849 0 0)
(103.909 0 0)
(103.441 0 0)
(103.281 0 0)
(103.332 0 0)
(103.531 0 0)
(103.84 0 0)
(104.233 0 0)
(104.691 0 0)
(105.202 0 0)
(105.754 0 0)
(106.341 0 0)
(106.958 0 0)
(107.599 0 0)
(108.261 0 0)
(108.941 0 0)
(109.637 0 0)
(110.345 0 0)
(111.066 0 0)
(111.796 0 0)
(112.535 0 0)
(113.282 0 0)
(114.035 0 0)
(114.795 0 0)
(115.559 0 0)
(116.328 0 0)
(117.1 0 0)
(117.879 0 0)
(118.65 0 0)
(119.457 0 0)
(120.161 0 0)
(121.196 0 0)
(273.842 0 0)
(272.738 0 0)
(271.603 0 0)
(270.436 0 0)
(269.236 0 0)
(268.001 0 0)
(266.73 0 0)
(265.423 0 0)
(264.077 0 0)
(262.692 0 0)
(261.265 0 0)
(259.796 0 0)
(258.281 0 0)
(256.72 0 0)
(255.109 0 0)
(253.447 0 0)
(251.731 0 0)
(249.957 0 0)
(248.122 0 0)
(246.224 0 0)
(244.257 0 0)
(242.217 0 0)
(240.098 0 0)
(237.895 0 0)
(235.601 0 0)
(233.208 0 0)
(230.706 0 0)
(228.085 0 0)
(225.33 0 0)
(222.427 0 0)
(219.355 0 0)
(216.09 0 0)
(212.599 0 0)
(208.84 0 0)
(204.756 0 0)
(200.272 0 0)
(195.266 0 0)
(189.464 0 0)
(182.273 0 0)
(172.833 0 0)
(160.699 0 0)
(146.818 0 0)
(133.43 0 0)
(122.56 0 0)
(114.869 0 0)
(109.898 0 0)
(106.848 0 0)
(105.035 0 0)
(104 0 0)
(103.457 0 0)
(103.237 0 0)
(103.235 0 0)
(103.387 0 0)
(103.654 0 0)
(104.007 0 0)
(104.427 0 0)
(104.901 0 0)
(105.418 0 0)
(105.972 0 0)
(106.555 0 0)
(107.164 0 0)
(107.794 0 0)
(108.443 0 0)
(109.107 0 0)
(109.786 0 0)
(110.476 0 0)
(111.177 0 0)
(111.887 0 0)
(112.605 0 0)
(113.33 0 0)
(114.061 0 0)
(114.797 0 0)
(115.538 0 0)
(116.283 0 0)
(117.034 0 0)
(117.778 0 0)
(118.557 0 0)
(119.237 0 0)
(120.236 0 0)
(272.565 0 0)
(271.462 0 0)
(270.328 0 0)
(269.163 0 0)
(267.965 0 0)
(266.734 0 0)
(265.468 0 0)
(264.166 0 0)
(262.827 0 0)
(261.449 0 0)
(260.031 0 0)
(258.57 0 0)
(257.066 0 0)
(255.517 0 0)
(253.919 0 0)
(252.27 0 0)
(250.569 0 0)
(248.812 0 0)
(246.995 0 0)
(245.116 0 0)
(243.17 0 0)
(241.152 0 0)
(239.058 0 0)
(236.882 0 0)
(234.616 0 0)
(232.253 0 0)
(229.785 0 0)
(227.199 0 0)
(224.484 0 0)
(221.624 0 0)
(218.6 0 0)
(215.387 0 0)
(211.955 0 0)
(208.263 0 0)
(204.255 0 0)
(199.86 0 0)
(194.962 0 0)
(189.307 0 0)
(182.345 0 0)
(173.253 0 0)
(161.528 0 0)
(147.947 0 0)
(134.609 0 0)
(123.572 0 0)
(115.629 0 0)
(110.425 0 0)
(107.193 0 0)
(105.247 0 0)
(104.113 0 0)
(103.494 0 0)
(103.211 0 0)
(103.156 0 0)
(103.262 0 0)
(103.486 0 0)
(103.799 0 0)
(104.181 0 0)
(104.619 0 0)
(105.102 0 0)
(105.622 0 0)
(106.172 0 0)
(106.749 0 0)
(107.348 0 0)
(107.966 0 0)
(108.601 0 0)
(109.249 0 0)
(109.91 0 0)
(110.582 0 0)
(111.263 0 0)
(111.953 0 0)
(112.65 0 0)
(113.353 0 0)
(114.062 0 0)
(114.776 0 0)
(115.493 0 0)
(116.218 0 0)
(116.935 0 0)
(117.687 0 0)
(118.344 0 0)
(119.307 0 0)
(271.288 0 0)
(270.186 0 0)
(269.054 0 0)
(267.892 0 0)
(266.698 0 0)
(265.471 0 0)
(264.211 0 0)
(262.915 0 0)
(261.583 0 0)
(260.213 0 0)
(258.804 0 0)
(257.353 0 0)
(255.86 0 0)
(254.323 0 0)
(252.738 0 0)
(251.104 0 0)
(249.418 0 0)
(247.678 0 0)
(245.879 0 0)
(244.02 0 0)
(242.095 0 0)
(240.1 0 0)
(238.03 0 0)
(235.88 0 0)
(233.643 0 0)
(231.311 0 0)
(228.876 0 0)
(226.327 0 0)
(223.651 0 0)
(220.834 0 0)
(217.857 0 0)
(214.696 0 0)
(211.323 0 0)
(207.696 0 0)
(203.764 0 0)
(199.456 0 0)
(194.664 0 0)
(189.152 0 0)
(182.413 0 0)
(173.659 0 0)
(162.343 0 0)
(149.077 0 0)
(135.815 0 0)
(124.626 0 0)
(116.434 0 0)
(110.99 0 0)
(107.57 0 0)
(105.485 0 0)
(104.248 0 0)
(103.55 0 0)
(103.203 0 0)
(103.095 0 0)
(103.154 0 0)
(103.335 0 0)
(103.608 0 0)
(103.954 0 0)
(104.356 0 0)
(104.805 0 0)
(105.291 0 0)
(105.81 0 0)
(106.355 0 0)
(106.924 0 0)
(107.512 0 0)
(108.116 0 0)
(108.736 0 0)
(109.368 0 0)
(110.012 0 0)
(110.665 0 0)
(111.327 0 0)
(111.996 0 0)
(112.672 0 0)
(113.354 0 0)
(114.041 0 0)
(114.732 0 0)
(115.43 0 0)
(116.122 0 0)
(116.847 0 0)
(117.481 0 0)
(118.41 0 0)
(270.011 0 0)
(268.911 0 0)
(267.783 0 0)
(266.624 0 0)
(265.434 0 0)
(264.213 0 0)
(262.958 0 0)
(261.67 0 0)
(260.345 0 0)
(258.984 0 0)
(257.584 0 0)
(256.145 0 0)
(254.663 0 0)
(253.138 0 0)
(251.567 0 0)
(249.948 0 0)
(248.278 0 0)
(246.555 0 0)
(244.775 0 0)
(242.935 0 0)
(241.032 0 0)
(239.06 0 0)
(237.015 0 0)
(234.892 0 0)
(232.683 0 0)
(230.382 0 0)
(227.98 0 0)
(225.467 0 0)
(222.83 0 0)
(220.056 0 0)
(217.126 0 0)
(214.017 0 0)
(210.701 0 0)
(207.14 0 0)
(203.282 0 0)
(199.061 0 0)
(194.372 0 0)
(189.001 0 0)
(182.476 0 0)
(174.051 0 0)
(163.14 0 0)
(150.207 0 0)
(137.047 0 0)
(125.724 0 0)
(117.285 0 0)
(111.597 0 0)
(107.98 0 0)
(105.749 0 0)
(104.405 0 0)
(103.626 0 0)
(103.215 0 0)
(103.052 0 0)
(103.063 0 0)
(103.202 0 0)
(103.436 0 0)
(103.744 0 0)
(104.111 0 0)
(104.526 0 0)
(104.98 0 0)
(105.467 0 0)
(105.982 0 0)
(106.52 0 0)
(107.078 0 0)
(107.654 0 0)
(108.245 0 0)
(108.849 0 0)
(109.465 0 0)
(110.09 0 0)
(110.725 0 0)
(111.367 0 0)
(112.017 0 0)
(112.672 0 0)
(113.334 0 0)
(113.999 0 0)
(114.671 0 0)
(115.337 0 0)
(116.036 0 0)
(116.647 0 0)
(117.543 0 0)
(268.736 0 0)
(267.639 0 0)
(266.514 0 0)
(265.36 0 0)
(264.175 0 0)
(262.96 0 0)
(261.712 0 0)
(260.431 0 0)
(259.115 0 0)
(257.763 0 0)
(256.374 0 0)
(254.945 0 0)
(253.476 0 0)
(251.964 0 0)
(250.407 0 0)
(248.803 0 0)
(247.149 0 0)
(245.443 0 0)
(243.682 0 0)
(241.863 0 0)
(239.981 0 0)
(238.032 0 0)
(236.012 0 0)
(233.915 0 0)
(231.736 0 0)
(229.465 0 0)
(227.097 0 0)
(224.619 0 0)
(222.022 0 0)
(219.29 0 0)
(216.406 0 0)
(213.349 0 0)
(210.09 0 0)
(206.593 0 0)
(202.809 0 0)
(198.674 0 0)
(194.088 0 0)
(188.852 0 0)
(182.535 0 0)
(174.428 0 0)
(163.921 0 0)
(151.334 0 0)
(138.3 0 0)
(126.864 0 0)
(118.184 0 0)
(112.246 0 0)
(108.425 0 0)
(106.043 0 0)
(104.587 0 0)
(103.723 0 0)
(103.245 0 0)
(103.027 0 0)
(102.99 0 0)
(103.086 0 0)
(103.281 0 0)
(103.552 0 0)
(103.885 0 0)
(104.266 0 0)
(104.688 0 0)
(105.144 0 0)
(105.628 0 0)
(106.137 0 0)
(106.666 0 0)
(107.213 0 0)
(107.776 0 0)
(108.352 0 0)
(108.941 0 0)
(109.539 0 0)
(110.147 0 0)
(110.764 0 0)
(111.387 0 0)
(112.017 0 0)
(112.652 0 0)
(113.292 0 0)
(113.939 0 0)
(114.581 0 0)
(115.253 0 0)
(115.843 0 0)
(116.705 0 0)
(267.463 0 0)
(266.37 0 0)
(265.249 0 0)
(264.1 0 0)
(262.922 0 0)
(261.713 0 0)
(260.473 0 0)
(259.2 0 0)
(257.893 0 0)
(256.551 0 0)
(255.172 0 0)
(253.755 0 0)
(252.298 0 0)
(250.799 0 0)
(249.257 0 0)
(247.668 0 0)
(246.031 0 0)
(244.344 0 0)
(242.602 0 0)
(240.802 0 0)
(238.942 0 0)
(237.017 0 0)
(235.022 0 0)
(232.952 0 0)
(230.801 0 0)
(228.561 0 0)
(226.226 0 0)
(223.785 0 0)
(221.226 0 0)
(218.536 0 0)
(215.699 0 0)
(212.692 0 0)
(209.49 0 0)
(206.057 0 0)
(202.346 0 0)
(198.295 0 0)
(193.81 0 0)
(188.707 0 0)
(182.59 0 0)
(174.79 0 0)
(164.681 0 0)
(152.454 0 0)
(139.574 0 0)
(128.046 0 0)
(119.132 0 0)
(112.939 0 0)
(108.907 0 0)
(106.366 0 0)
(104.793 0 0)
(103.842 0 0)
(103.295 0 0)
(103.02 0 0)
(102.935 0 0)
(102.988 0 0)
(103.144 0 0)
(103.378 0 0)
(103.676 0 0)
(104.025 0 0)
(104.415 0 0)
(104.84 0 0)
(105.294 0 0)
(105.774 0 0)
(106.274 0 0)
(106.793 0 0)
(107.329 0 0)
(107.878 0 0)
(108.439 0 0)
(109.012 0 0)
(109.594 0 0)
(110.184 0 0)
(110.782 0 0)
(111.386 0 0)
(111.997 0 0)
(112.611 0 0)
(113.233 0 0)
(113.851 0 0)
(114.499 0 0)
(115.067 0 0)
(115.897 0 0)
(266.193 0 0)
(265.105 0 0)
(263.989 0 0)
(262.846 0 0)
(261.674 0 0)
(260.473 0 0)
(259.24 0 0)
(257.976 0 0)
(256.679 0 0)
(255.347 0 0)
(253.979 0 0)
(252.574 0 0)
(251.13 0 0)
(249.645 0 0)
(248.118 0 0)
(246.545 0 0)
(244.925 0 0)
(243.256 0 0)
(241.533 0 0)
(239.754 0 0)
(237.916 0 0)
(236.014 0 0)
(234.044 0 0)
(232.001 0 0)
(229.879 0 0)
(227.67 0 0)
(225.368 0 0)
(222.962 0 0)
(220.442 0 0)
(217.794 0 0)
(215.003 0 0)
(212.047 0 0)
(208.901 0 0)
(205.531 0 0)
(201.892 0 0)
(197.924 0 0)
(193.538 0 0)
(188.565 0 0)
(182.64 0 0)
(175.137 0 0)
(165.422 0 0)
(153.565 0 0)
(140.865 0 0)
(129.269 0 0)
(120.129 0 0)
(113.679 0 0)
(109.427 0 0)
(106.72 0 0)
(105.025 0 0)
(103.982 0 0)
(103.365 0 0)
(103.032 0 0)
(102.898 0 0)
(102.907 0 0)
(103.024 0 0)
(103.222 0 0)
(103.485 0 0)
(103.801 0 0)
(104.16 0 0)
(104.555 0 0)
(104.98 0 0)
(105.43 0 0)
(105.903 0 0)
(106.394 0 0)
(106.902 0 0)
(107.425 0 0)
(107.96 0 0)
(108.507 0 0)
(109.063 0 0)
(109.628 0 0)
(110.201 0 0)
(110.78 0 0)
(111.366 0 0)
(111.957 0 0)
(112.554 0 0)
(113.149 0 0)
(113.771 0 0)
(114.319 0 0)
(115.117 0 0)
(264.928 0 0)
(263.844 0 0)
(262.735 0 0)
(261.598 0 0)
(260.433 0 0)
(259.239 0 0)
(258.016 0 0)
(256.761 0 0)
(255.473 0 0)
(254.152 0 0)
(252.796 0 0)
(251.404 0 0)
(249.973 0 0)
(248.502 0 0)
(246.99 0 0)
(245.434 0 0)
(243.831 0 0)
(242.179 0 0)
(240.476 0 0)
(238.719 0 0)
(236.902 0 0)
(235.024 0 0)
(233.079 0 0)
(231.063 0 0)
(228.969 0 0)
(226.792 0 0)
(224.522 0 0)
(222.152 0 0)
(219.671 0 0)
(217.065 0 0)
(214.319 0 0)
(211.413 0 0)
(208.323 0 0)
(205.015 0 0)
(201.447 0 0)
(197.561 0 0)
(193.273 0 0)
(188.426 0 0)
(182.687 0 0)
(175.47 0 0)
(166.141 0 0)
(154.663 0 0)
(142.17 0 0)
(130.531 0 0)
(121.177 0 0)
(114.468 0 0)
(109.988 0 0)
(107.106 0 0)
(105.283 0 0)
(104.145 0 0)
(103.454 0 0)
(103.063 0 0)
(102.879 0 0)
(102.844 0 0)
(102.921 0 0)
(103.083 0 0)
(103.312 0 0)
(103.596 0 0)
(103.923 0 0)
(104.288 0 0)
(104.684 0 0)
(105.106 0 0)
(105.551 0 0)
(106.015 0 0)
(106.497 0 0)
(106.993 0 0)
(107.503 0 0)
(108.024 0 0)
(108.555 0 0)
(109.095 0 0)
(109.644 0 0)
(110.199 0 0)
(110.761 0 0)
(111.327 0 0)
(111.901 0 0)
(112.472 0 0)
(113.071 0 0)
(113.598 0 0)
(114.365 0 0)
(263.667 0 0)
(262.589 0 0)
(261.486 0 0)
(260.356 0 0)
(259.199 0 0)
(258.014 0 0)
(256.799 0 0)
(255.554 0 0)
(254.277 0 0)
(252.967 0 0)
(251.623 0 0)
(250.244 0 0)
(248.826 0 0)
(247.37 0 0)
(245.873 0 0)
(244.333 0 0)
(242.748 0 0)
(241.115 0 0)
(239.432 0 0)
(237.695 0 0)
(235.901 0 0)
(234.047 0 0)
(232.127 0 0)
(230.138 0 0)
(228.073 0 0)
(225.926 0 0)
(223.689 0 0)
(221.354 0 0)
(218.911 0 0)
(216.347 0 0)
(213.646 0 0)
(210.79 0 0)
(207.755 0 0)
(204.509 0 0)
(201.011 0 0)
(197.206 0 0)
(193.014 0 0)
(188.29 0 0)
(182.729 0 0)
(175.788 0 0)
(166.837 0 0)
(155.747 0 0)
(143.485 0 0)
(131.83 0 0)
(122.276 0 0)
(115.306 0 0)
(110.592 0 0)
(107.527 0 0)
(105.57 0 0)
(104.332 0 0)
(103.565 0 0)
(103.112 0 0)
(102.877 0 0)
(102.798 0 0)
(102.835 0 0)
(102.961 0 0)
(103.156 0 0)
(103.408 0 0)
(103.705 0 0)
(104.04 0 0)
(104.407 0 0)
(104.801 0 0)
(105.219 0 0)
(105.657 0 0)
(106.112 0 0)
(106.583 0 0)
(107.067 0 0)
(107.563 0 0)
(108.07 0 0)
(108.585 0 0)
(109.11 0 0)
(109.641 0 0)
(110.179 0 0)
(110.723 0 0)
(111.273 0 0)
(111.821 0 0)
(112.397 0 0)
(112.903 0 0)
(113.64 0 0)
(262.412 0 0)
(261.34 0 0)
(260.244 0 0)
(259.122 0 0)
(257.973 0 0)
(256.797 0 0)
(255.592 0 0)
(254.356 0 0)
(253.09 0 0)
(251.792 0 0)
(250.461 0 0)
(249.094 0 0)
(247.691 0 0)
(246.25 0 0)
(244.769 0 0)
(243.245 0 0)
(241.678 0 0)
(240.064 0 0)
(238.4 0 0)
(236.684 0 0)
(234.913 0 0)
(233.082 0 0)
(231.188 0 0)
(229.225 0 0)
(227.189 0 0)
(225.072 0 0)
(222.869 0 0)
(220.569 0 0)
(218.164 0 0)
(215.64 0 0)
(212.985 0 0)
(210.178 0 0)
(207.197 0 0)
(204.012 0 0)
(200.584 0 0)
(196.858 0 0)
(192.761 0 0)
(188.157 0 0)
(182.768 0 0)
(176.092 0 0)
(167.509 0 0)
(156.813 0 0)
(144.806 0 0)
(133.165 0 0)
(123.426 0 0)
(116.197 0 0)
(111.24 0 0)
(107.985 0 0)
(105.886 0 0)
(104.544 0 0)
(103.697 0 0)
(103.181 0 0)
(102.894 0 0)
(102.77 0 0)
(102.767 0 0)
(102.856 0 0)
(103.018 0 0)
(103.237 0 0)
(103.504 0 0)
(103.809 0 0)
(104.148 0 0)
(104.515 0 0)
(104.906 0 0)
(105.317 0 0)
(105.747 0 0)
(106.193 0 0)
(106.652 0 0)
(107.123 0 0)
(107.606 0 0)
(108.098 0 0)
(108.598 0 0)
(109.107 0 0)
(109.622 0 0)
(110.142 0 0)
(110.67 0 0)
(111.196 0 0)
(111.748 0 0)
(112.235 0 0)
(112.942 0 0)
(261.162 0 0)
(260.098 0 0)
(259.009 0 0)
(257.895 0 0)
(256.755 0 0)
(255.588 0 0)
(254.393 0 0)
(253.168 0 0)
(251.914 0 0)
(250.628 0 0)
(249.309 0 0)
(247.956 0 0)
(246.567 0 0)
(245.141 0 0)
(243.675 0 0)
(242.169 0 0)
(240.619 0 0)
(239.024 0 0)
(237.381 0 0)
(235.686 0 0)
(233.937 0 0)
(232.13 0 0)
(230.261 0 0)
(228.325 0 0)
(226.317 0 0)
(224.231 0 0)
(222.06 0 0)
(219.796 0 0)
(217.428 0 0)
(214.946 0 0)
(212.335 0 0)
(209.577 0 0)
(206.65 0 0)
(203.525 0 0)
(200.165 0 0)
(196.519 0 0)
(192.514 0 0)
(188.027 0 0)
(182.804 0 0)
(176.381 0 0)
(168.158 0 0)
(157.858 0 0)
(146.13 0 0)
(134.533 0 0)
(124.628 0 0)
(117.141 0 0)
(111.936 0 0)
(108.481 0 0)
(106.232 0 0)
(104.78 0 0)
(103.851 0 0)
(103.27 0 0)
(102.929 0 0)
(102.76 0 0)
(102.716 0 0)
(102.769 0 0)
(102.896 0 0)
(103.084 0 0)
(103.32 0 0)
(103.597 0 0)
(103.908 0 0)
(104.247 0 0)
(104.612 0 0)
(104.997 0 0)
(105.402 0 0)
(105.822 0 0)
(106.257 0 0)
(106.705 0 0)
(107.164 0 0)
(107.632 0 0)
(108.11 0 0)
(108.595 0 0)
(109.087 0 0)
(109.585 0 0)
(110.091 0 0)
(110.595 0 0)
(111.124 0 0)
(111.592 0 0)
(112.271 0 0)
(259.92 0 0)
(258.863 0 0)
(257.782 0 0)
(256.677 0 0)
(255.546 0 0)
(254.389 0 0)
(253.204 0 0)
(251.99 0 0)
(250.747 0 0)
(249.473 0 0)
(248.168 0 0)
(246.828 0 0)
(245.454 0 0)
(244.043 0 0)
(242.594 0 0)
(241.105 0 0)
(239.573 0 0)
(237.997 0 0)
(236.374 0 0)
(234.7 0 0)
(232.974 0 0)
(231.191 0 0)
(229.347 0 0)
(227.438 0 0)
(225.459 0 0)
(223.403 0 0)
(221.265 0 0)
(219.035 0 0)
(216.705 0 0)
(214.263 0 0)
(211.696 0 0)
(208.986 0 0)
(206.113 0 0)
(203.048 0 0)
(199.755 0 0)
(196.186 0 0)
(192.273 0 0)
(187.9 0 0)
(182.837 0 0)
(176.657 0 0)
(168.782 0 0)
(158.88 0 0)
(147.453 0 0)
(135.929 0 0)
(125.88 0 0)
(118.141 0 0)
(112.681 0 0)
(109.017 0 0)
(106.612 0 0)
(105.044 0 0)
(104.028 0 0)
(103.379 0 0)
(102.984 0 0)
(102.767 0 0)
(102.683 0 0)
(102.698 0 0)
(102.792 0 0)
(102.948 0 0)
(103.154 0 0)
(103.402 0 0)
(103.685 0 0)
(103.998 0 0)
(104.336 0 0)
(104.696 0 0)
(105.076 0 0)
(105.472 0 0)
(105.883 0 0)
(106.307 0 0)
(106.742 0 0)
(107.188 0 0)
(107.643 0 0)
(108.106 0 0)
(108.576 0 0)
(109.052 0 0)
(109.536 0 0)
(110.019 0 0)
(110.526 0 0)
(110.975 0 0)
(111.625 0 0)
(258.685 0 0)
(257.636 0 0)
(256.564 0 0)
(255.467 0 0)
(254.346 0 0)
(253.199 0 0)
(252.025 0 0)
(250.822 0 0)
(249.591 0 0)
(248.33 0 0)
(247.038 0 0)
(245.712 0 0)
(244.353 0 0)
(242.957 0 0)
(241.525 0 0)
(240.053 0 0)
(238.539 0 0)
(236.982 0 0)
(235.379 0 0)
(233.727 0 0)
(232.023 0 0)
(230.264 0 0)
(228.446 0 0)
(226.563 0 0)
(224.613 0 0)
(222.587 0 0)
(220.481 0 0)
(218.286 0 0)
(215.994 0 0)
(213.592 0 0)
(211.069 0 0)
(208.407 0 0)
(205.586 0 0)
(202.58 0 0)
(199.354 0 0)
(195.861 0 0)
(192.037 0 0)
(187.776 0 0)
(182.867 0 0)
(176.92 0 0)
(169.382 0 0)
(159.876 0 0)
(148.769 0 0)
(137.352 0 0)
(127.182 0 0)
(119.198 0 0)
(113.478 0 0)
(109.596 0 0)
(107.026 0 0)
(105.336 0 0)
(104.228 0 0)
(103.509 0 0)
(103.057 0 0)
(102.793 0 0)
(102.667 0 0)
(102.645 0 0)
(102.705 0 0)
(102.828 0 0)
(103.005 0 0)
(103.224 0 0)
(103.48 0 0)
(103.766 0 0)
(104.079 0 0)
(104.414 0 0)
(104.769 0 0)
(105.141 0 0)
(105.529 0 0)
(105.929 0 0)
(106.342 0 0)
(106.765 0 0)
(107.198 0 0)
(107.638 0 0)
(108.087 0 0)
(108.541 0 0)
(109.004 0 0)
(109.466 0 0)
(109.951 0 0)
(110.382 0 0)
(111.004 0 0)
(257.458 0 0)
(256.417 0 0)
(255.354 0 0)
(254.267 0 0)
(253.156 0 0)
(252.019 0 0)
(250.856 0 0)
(249.665 0 0)
(248.446 0 0)
(247.198 0 0)
(245.919 0 0)
(244.608 0 0)
(243.263 0 0)
(241.884 0 0)
(240.468 0 0)
(239.013 0 0)
(237.518 0 0)
(235.98 0 0)
(234.398 0 0)
(232.767 0 0)
(231.086 0 0)
(229.35 0 0)
(227.557 0 0)
(225.701 0 0)
(223.779 0 0)
(221.784 0 0)
(219.71 0 0)
(217.55 0 0)
(215.294 0 0)
(212.932 0 0)
(210.452 0 0)
(207.838 0 0)
(205.069 0 0)
(202.121 0 0)
(198.96 0 0)
(195.543 0 0)
(191.807 0 0)
(187.655 0 0)
(182.895 0 0)
(177.17 0 0)
(169.956 0 0)
(160.844 0 0)
(150.075 0 0)
(138.796 0 0)
(128.532 0 0)
(120.313 0 0)
(114.33 0 0)
(110.221 0 0)
(107.476 0 0)
(105.657 0 0)
(104.453 0 0)
(103.661 0 0)
(103.149 0 0)
(102.836 0 0)
(102.668 0 0)
(102.609 0 0)
(102.634 0 0)
(102.726 0 0)
(102.872 0 0)
(103.064 0 0)
(103.292 0 0)
(103.552 0 0)
(103.839 0 0)
(104.15 0 0)
(104.481 0 0)
(104.829 0 0)
(105.194 0 0)
(105.572 0 0)
(105.962 0 0)
(106.363 0 0)
(106.773 0 0)
(107.193 0 0)
(107.62 0 0)
(108.053 0 0)
(108.495 0 0)
(108.936 0 0)
(109.4 0 0)
(109.812 0 0)
(110.408 0 0)
(256.239 0 0)
(255.207 0 0)
(254.153 0 0)
(253.076 0 0)
(251.975 0 0)
(250.849 0 0)
(249.697 0 0)
(248.518 0 0)
(247.312 0 0)
(246.077 0 0)
(244.812 0 0)
(243.515 0 0)
(242.186 0 0)
(240.822 0 0)
(239.423 0 0)
(237.986 0 0)
(236.509 0 0)
(234.991 0 0)
(233.429 0 0)
(231.82 0 0)
(230.161 0 0)
(228.449 0 0)
(226.681 0 0)
(224.852 0 0)
(222.958 0 0)
(220.993 0 0)
(218.951 0 0)
(216.825 0 0)
(214.606 0 0)
(212.284 0 0)
(209.847 0 0)
(207.279 0 0)
(204.562 0 0)
(201.671 0 0)
(198.575 0 0)
(195.232 0 0)
(191.583 0 0)
(187.537 0 0)
(182.92 0 0)
(177.407 0 0)
(170.505 0 0)
(161.783 0 0)
(151.367 0 0)
(140.257 0 0)
(129.928 0 0)
(121.486 0 0)
(115.238 0 0)
(110.894 0 0)
(107.965 0 0)
(106.01 0 0)
(104.705 0 0)
(103.835 0 0)
(103.262 0 0)
(102.899 0 0)
(102.687 0 0)
(102.59 0 0)
(102.581 0 0)
(102.641 0 0)
(102.757 0 0)
(102.92 0 0)
(103.122 0 0)
(103.356 0 0)
(103.618 0 0)
(103.904 0 0)
(104.211 0 0)
(104.536 0 0)
(104.878 0 0)
(105.233 0 0)
(105.601 0 0)
(105.981 0 0)
(106.37 0 0)
(106.768 0 0)
(107.174 0 0)
(107.587 0 0)
(108.008 0 0)
(108.429 0 0)
(108.872 0 0)
(109.267 0 0)
(109.835 0 0)
(255.029 0 0)
(254.006 0 0)
(252.962 0 0)
(251.895 0 0)
(250.804 0 0)
(249.689 0 0)
(248.549 0 0)
(247.383 0 0)
(246.189 0 0)
(244.968 0 0)
(243.716 0 0)
(242.434 0 0)
(241.121 0 0)
(239.773 0 0)
(238.391 0 0)
(236.971 0 0)
(235.513 0 0)
(234.014 0 0)
(232.472 0 0)
(230.885 0 0)
(229.249 0 0)
(227.561 0 0)
(225.818 0 0)
(224.016 0 0)
(222.15 0 0)
(220.214 0 0)
(218.204 0 0)
(216.112 0 0)
(213.93 0 0)
(211.647 0 0)
(209.252 0 0)
(206.731 0 0)
(204.065 0 0)
(201.231 0 0)
(198.199 0 0)
(194.928 0 0)
(191.364 0 0)
(187.421 0 0)
(182.943 0 0)
(177.632 0 0)
(171.03 0 0)