/*--------------------------------*- C++ -*----------------------------------*\
| =========                 |                                                 |
| \\      /  F ield         | OpenFOAM: The Open Source CFD Toolbox           |
|  \\    /   O peration     | Version:  2312                                  |
|   \\  /    A nd           | Website:  www.openfoam.com                      |
|    \\/     M anipulation  |                                                 |
\*---------------------------------------------------------------------------*/
FoamFile
{
    version     2.0;
    format      ascii;
    arch        "LSB;label=32;scalar=64";
    class       surfaceScalarField;
    location    "0.453";
    object      phi;
}
// * * * * * * * * * * * * * * * * * * * * * * * * * * * * * * * * * * * * * //

dimensions      [0 3 -1 0 0 0 0];

oriented        oriented;

internalField   nonuniform List<scalar> 
62015
(
84.6722
0.16519
-84.4919
84.842
0.162431
85.0014
0.159559
85.151
0.156576
85.2911
0.153486
85.422
0.150289
85.5442
0.146991
85.658
0.143591
85.7636
0.140095
85.8613
0.136503
85.9514
0.13282
86.0342
0.129048
86.1098
0.12519
86.1785
0.121248
86.2405
0.117226
86.2959
0.113127
86.345
0.108953
86.3878
0.104709
86.4245
0.100396
86.4552
0.0960178
86.4801
0.0915784
86.4991
0.08708
86.5124
0.0825265
86.5201
0.0779211
86.5221
0.0732667
86.5184
0.0685673
86.5092
0.0638257
86.4943
0.0590459
86.4738
0.0542312
86.4476
0.049385
86.4156
0.0445107
86.3778
0.0396123
86.334
0.0346938
86.2841
0.0297576
86.228
0.024809
86.1655
0.0198503
86.0963
0.0148864
86.0204
0.00992093
85.9373
0.00495715
85.847
0
85.7489
-0.00494696
85.6428
-0.00988012
85.5283
-0.0147943
85.405
-0.0196861
85.2723
-0.0245514
85.1299
-0.0293848
84.977
-0.0341831
84.813
-0.0389406
84.6373
-0.0436535
84.4489
-0.0483171
84.2472
-0.0529258
84.031
-0.0574747
83.7992
-0.0619587
83.5507
-0.0663727
83.2839
-0.0707102
82.9974
-0.0749658
82.6892
-0.0791325
82.3574
-0.083204
81.9995
-0.087173
81.612
-0.091031
81.1911
-0.0947691
80.736
-0.0983767
80.2479
-0.101846
79.7054
-0.105174
79.0476
-0.108325
78.2931
-0.111209
77.7741
-0.113832
77.7724
-0.11666
76.6852
-0.120158
70.3002
-0.121979
57.4606
-0.115332
44.2791
-0.0973557
36.4325
-0.077049
33.3952
-0.0645739
32.5706
-0.06024
32.5089
-0.0598979
32.6759
-0.060992
32.9596
-0.0624709
-0.0642986
33.1645
82.4689
0.326785
-82.3176
82.6111
0.321238
82.7444
0.315474
82.8691
0.309499
82.9856
0.303317
83.0941
0.296933
83.195
0.290352
83.2886
0.283579
83.3751
0.276619
83.4547
0.269478
83.5277
0.262161
83.5944
0.254673
83.6548
0.247019
83.7092
0.239206
83.7578
0.231239
83.8007
0.223123
83.838
0.214865
83.8699
0.206469
83.8966
0.197943
83.918
0.189292
83.9343
0.180522
83.9456
0.17164
83.952
0.162652
83.9534
0.153563
83.9499
0.144381
83.9415
0.135112
83.9283
0.125761
83.9101
0.116338
83.8871
0.106846
83.8591
0.0972953
83.8262
0.08769
83.7881
0.0780383
83.7448
0.0683466
83.6963
0.0586229
83.6424
0.0488732
83.5828
0.0391055
83.5175
0.0293268
83.4463
0.0195445
83.3689
0.0097665
83.2851
0
83.1946
-0.00974726
83.0971
-0.0194675
82.9923
-0.029153
82.8797
-0.0387956
82.7591
-0.0483871
82.6298
-0.0579194
82.4915
-0.0673836
82.3435
-0.0767721
82.1853
-0.0860753
82.0162
-0.0952846
81.8353
-0.10439
81.642
-0.113384
81.4351
-0.122255
81.2138
-0.130993
80.9768
-0.139588
80.7228
-0.148029
80.4503
-0.156304
80.1576
-0.164401
79.8428
-0.172306
79.5037
-0.180007
79.1369
-0.187487
78.7387
-0.194729
78.3086
-0.201712
77.8482
-0.208422
77.3383
-0.214852
76.7203
-0.220941
76.0031
-0.226505
75.4966
-0.231535
75.5189
-0.236932
74.6749
-0.243762
68.9089
-0.247791
56.684
-0.2355
43.6569
-0.199881
35.6708
-0.158039
32.512
-0.131418
31.6375
-0.121733
31.5394
-0.120653
31.7233
-0.122506
-0.125696
31.8946
80.3135
0.484795
-80.1886
80.4306
0.476441
80.54
0.467776
80.642
0.458807
80.7369
0.44954
80.8249
0.439983
80.9063
0.430143
80.9814
0.420027
81.0503
0.409643
81.1133
0.398997
81.1706
0.388098
81.2223
0.376952
81.2687
0.365569
81.31
0.353955
81.3461
0.342119
81.3774
0.33007
81.4038
0.317814
81.4256
0.305362
81.4429
0.292721
81.4556
0.2799
81.464
0.266907
81.468
0.253753
81.4677
0.240445
81.4632
0.226992
81.4545
0.213405
81.4416
0.199692
81.4245
0.185863
81.4032
0.171927
81.3776
0.157894
81.3478
0.143774
81.3137
0.129577
81.2751
0.115312
81.2321
0.10099
81.1845
0.0866207
81.1323
0.0722144
81.0752
0.057782
81.0131
0.0433338
80.9459
0.0288798
80.8733
0.0144317
80.7951
0
80.7111
-0.0144043
80.6211
-0.0287702
80.5246
-0.0430866
80.4215
-0.0573413
80.3113
-0.0715232
80.1936
-0.0856209
80.068
-0.0996216
79.934
-0.113514
79.7911
-0.127285
79.6387
-0.140922
79.4761
-0.154412
79.3027
-0.167743
79.1176
-0.180899
78.92
-0.193867
78.7088
-0.206633
78.483
-0.219181
78.2413
-0.231496
77.9823
-0.24356
77.7045
-0.255356
77.4059
-0.266865
77.0846
-0.278067
76.7375
-0.28894
76.3611
-0.299458
75.9546
-0.309592
75.5201
-0.319322
75.0412
-0.32864
74.4618
-0.337461
73.781
-0.345516
73.2824
-0.352751
73.3124
-0.360446
72.6812
-0.370375
67.5163
-0.376957
55.9276
-0.36027
43.082
-0.307875
34.9543
-0.243518
31.6689
-0.200816
30.7261
-0.184572
30.6311
-0.182012
-0.184911
30.725
78.1974
0.63919
-78.096
78.2921
0.628022
78.3801
0.616457
78.4617
0.604503
78.5372
0.592169
78.6068
0.579464
78.6707
0.566396
78.7291
0.552974
78.7822
0.539209
78.8303
0.525109
78.8734
0.510684
78.9118
0.495944
78.9455
0.480898
78.9748
0.465558
78.9998
0.449933
79.0206
0.434033
79.0372
0.41787
79.0499
0.401454
79.0586
0.384796
79.0635
0.367907
79.0647
0.350799
79.0621
0.333482
79.0559
0.315968
79.046
0.29827
79.0325
0.280398
79.0155
0.262365
78.9948
0.244182
78.9706
0.225863
78.9428
0.20742
78.9112
0.188864
78.876
0.170209
78.837
0.151468
78.7942
0.132653
78.7475
0.113777
78.6967
0.0948541
78.6418
0.0758972
78.5825
0.0569194
78.5189
0.0379351
78.4506
0.0189572
78.3775
0
78.2993
-0.0189225
78.2159
-0.0377961
78.127
-0.0566065
78.0322
-0.0753385
77.9313
-0.093979
77.8239
-0.112511
77.7097
-0.130921
77.5881
-0.149193
77.4589
-0.167311
77.3213
-0.185259
77.175
-0.203021
77.0192
-0.220581
76.8534
-0.237921
76.6766
-0.255024
76.4882
-0.271871
76.2872
-0.288444
76.0726
-0.304724
75.8431
-0.32069
75.5974
-0.33632
75.3341
-0.351592
75.0515
-0.366482
74.7477
-0.380965
74.4198
-0.395013
74.0644
-0.408592
73.6809
-0.421664
73.2715
-0.434205
72.8224
-0.446206
72.2812
-0.45757
71.6365
-0.467949
71.1421
-0.477212
71.1684
-0.486926
70.7433
-0.49965
66.2148
-0.509182
55.325
-0.489959
42.6639
-0.422701
34.3434
-0.335141
30.8732
-0.273843
29.8743
-0.24886
-0.244419
29.7359
76.1181
0.78994
-76.0375
76.1928
0.775965
76.2619
0.761512
76.3254
0.746593
76.3837
0.731216
76.4368
0.715394
76.4851
0.699136
76.5287
0.682453
76.5678
0.665357
76.6025
0.647857
76.633
0.629968
76.6595
0.611699
76.682
0.593063
76.7007
0.574072
76.7156
0.554739
76.7271
0.535075
76.735
0.515094
76.7395
0.494809
76.7407
0.474232
76.7386
0.453377
76.7333
0.432258
76.7249
0.410888
76.7134
0.389281
76.6988
0.367452
76.6812
0.345414
76.6605
0.323182
76.6368
0.30077
76.61
0.278193
76.5801
0.255467
76.5472
0.232605
76.5111
0.209624
76.4718
0.186539
76.4292
0.163365
76.3833
0.140118
76.334
0.116813
76.2811
0.0934677
76.2245
0.0700975
76.1641
0.0467183
76.0998
0.0233468
76.0313
0
75.9585
-0.0233055
75.8812
-0.046553
75.7991
-0.069725
75.7119
-0.0928038
75.6195
-0.115773
75.5215
-0.138613
75.4175
-0.161308
75.3072
-0.183837
75.1903
-0.206184
75.0661
-0.228329
74.9344
-0.250252
74.7945
-0.271935
74.6458
-0.293357
74.4878
-0.314497
74.3197
-0.335335
74.1408
-0.355849
73.9501
-0.376016
73.7467
-0.395814
73.5294
-0.415216
73.2972
-0.434199
73.0484
-0.452735
72.7817
-0.470795
72.4952
-0.488349
72.1864
-0.505365
71.852
-0.521801
71.491
-0.537614
71.1061
-0.552771
70.6867
-0.567267
70.1844
-0.580999
69.5766
-0.593562
69.0799
-0.604707
69.0847
-0.616134
68.8701
-0.631241
65.0772
-0.644219
55.0262
-0.625244
42.5599
-0.54645
33.9161
-0.435671
30.1676
-0.352122
-0.314678
29.2491
74.0757
0.937033
-74.0136
74.1328
0.920266
74.185
0.902946
74.2325
0.885088
74.2755
0.866703
74.3142
0.847802
74.3487
0.828397
74.3791
0.808502
74.4058
0.78813
74.4287
0.767291
74.448
0.746002
74.4638
0.724273
74.4764
0.702121
74.4857
0.679558
74.4918
0.656598
74.495
0.633257
74.4952
0.609548
74.4925
0.585488
74.487
0.56109
74.4788
0.536371
74.4679
0.511346
74.4543
0.486031
74.4382
0.460442
74.4195
0.434596
74.3982
0.408508
74.3744
0.382194
74.348
0.355674
74.3191
0.328963
74.2876
0.302078
74.2534
0.275037
74.2167
0.247857
74.1772
0.220557
74.1351
0.193154
74.09
0.165666
74.0421
0.138112
73.9912
0.11051
73.9371
0.0828793
73.8799
0.055238
73.8192
0.027605
73.7551
0
73.6872
-0.0275579
73.6155
-0.0550492
73.5396
-0.0824539
73.4595
-0.109753
73.3748
-0.136924
73.2854
-0.163949
73.1908
-0.190807
73.0907
-0.217476
72.9849
-0.243935
72.8729
-0.270163
72.7544
-0.296139
72.6288
-0.321839
72.4957
-0.347242
72.3545
-0.372324
72.2046
-0.397061
72.0454
-0.42143
71.8761
-0.445405
71.6959
-0.46896
71.5039
-0.492069
71.299
-0.514704
71.0802
-0.536835
70.8461
-0.558431
70.5953
-0.579461
70.3261
-0.599888
70.0362
-0.619675
69.7227
-0.63878
69.3841
-0.657148
69.0231
-0.674741
68.6328
-0.691554
68.1705
-0.707496
67.6018
-0.722129
67.0985
-0.735045
67.0585
-0.747883
67.0411
-0.76482
64.079
-0.781631
55.0663
-0.766306
42.8567
-0.681024
33.6789
-0.548908
-0.4323
30.462
72.0712
1.08047
-72.0254
72.1128
1.06093
72.1501
1.04078
72.1835
1.02001
72.213
0.998659
72.2388
0.976724
72.2611
0.954222
72.2799
0.931169
72.2955
0.907578
72.308
0.883464
72.3174
0.858841
72.3239
0.833725
72.3277
0.808131
72.3287
0.782075
72.3271
0.755573
72.3229
0.728641
72.3163
0.701296
72.3073
0.673555
72.296
0.645434
72.2824
0.616952
72.2666
0.588124
72.2485
0.558971
72.2284
0.529508
72.2061
0.499756
72.1817
0.469731
72.1552
0.439454
72.1265
0.408942
72.0958
0.378216
72.063
0.347295
72.0279
0.316197
71.9907
0.284943
71.9513
0.253554
71.9096
0.222048
71.8655
0.190447
71.819
0.158771
71.77
0.127041
71.7184
0.0952776
71.6641
0.0635019
71.6069
0.0317358
71.5467
0
71.4835
-0.0316834
71.4169
-0.0632923
71.3469
-0.0948051
71.2732
-0.126199
71.1957
-0.157452
71.114
-0.188541
71.028
-0.219443
70.9373
-0.250136
70.8416
-0.280595
70.7407
-0.310796
70.6341
-0.340716
70.5215
-0.37033
70.4024
-0.399614
70.2764
-0.428541
70.1429
-0.457086
70.0014
-0.485223
69.8512
-0.512924
69.6917
-0.540161
69.5221
-0.566906
69.3416
-0.593128
69.1492
-0.618798
68.9439
-0.643882
68.7243
-0.668345
68.4893
-0.692153
68.2373
-0.715265
67.9663
-0.737641
67.6734
-0.759234
67.357
-0.779985
67.0195
-0.799847
66.6574
-0.818812
66.2353
-0.836815
65.7093
-0.853419
65.1998
-0.868045
65.0922
-0.882035
65.2263
-0.900128
63.1374
-0.920823
55.4376
-0.911884
43.2616
-0.831697
-0.653705
36.4696
70.1057
1.22027
-70.0743
70.1335
1.198
70.1578
1.17504
70.1786
1.15141
70.1962
1.12713
70.2107
1.1022
70.2222
1.07666
70.2308
1.0505
70.2367
1.02376
70.24
0.996431
70.2407
0.968545
70.239
0.940114
70.2349
0.911156
70.2287
0.881688
70.2202
0.851728
70.2097
0.821293
70.1971
0.790402
70.1826
0.759074
70.1661
0.727326
70.1479
0.695179
70.1278
0.662652
70.1059
0.629764
70.0822
0.596536
70.0569
0.562986
70.0298
0.529137
70.001
0.495009
69.9705
0.460622
69.9383
0.425998
69.9043
0.391157
69.8687
0.356123
69.8312
0.320916
69.7919
0.285559
69.7508
0.250074
69.7077
0.214483
69.6626
0.178809
69.6155
0.143075
69.5662
0.107303
69.5146
0.0715179
69.4608
0.0357423
69.4044
0
69.3454
-0.0356853
69.2837
-0.0712897
69.219
-0.106789
69.1513
-0.142159
69.0802
-0.177374
69.0057
-0.21241
68.9275
-0.247242
68.8453
-0.281844
68.7589
-0.316191
68.668
-0.350258
68.5723
-0.384017
68.4714
-0.417442
68.365
-0.450507
68.2527
-0.483184
68.1339
-0.515445
68.0083
-0.547262
67.8753
-0.578606
67.7344
-0.609447
67.5848
-0.639755
67.4259
-0.669498
67.2569
-0.698645
67.0769
-0.72716
66.885
-0.75501
66.6799
-0.782156
66.4606
-0.80856
66.2256
-0.834179
65.9733
-0.858971
65.7008
-0.882884
65.4063
-0.905857
65.0916
-0.927831
64.7563
-0.948797
64.3736
-0.968716
63.8942
-0.987196
63.385
-1.00352
63.1984
-1.01842
63.3714
-1.03753
62.3423
-1.0584
55.0347
-1.07318
-0.944035
48.5438
68.1801
1.35646
-68.1614
68.1958
1.33148
68.2085
1.30576
68.2183
1.27931
68.2255
1.25215
68.2299
1.22429
68.2319
1.19576
68.2316
1.16656
68.2289
1.13672
68.224
1.10625
68.2171
1.07518
68.2082
1.04351
68.1973
1.01126
68.1847
0.978462
68.1702
0.945127
68.1541
0.911277
68.1363
0.87693
68.117
0.842107
68.0961
0.806829
68.0737
0.771116
68.0499
0.734989
68.0247
0.69847
67.9981
0.66158
67.9701
0.624342
67.9407
0.586776
67.91
0.548908
67.878
0.510757
67.8446
0.472349
67.8098
0.433706
67.7737
0.394851
67.7361
0.355809
67.6971
0.316603
67.6566
0.277257
67.6146
0.237796
67.5709
0.198244
67.5256
0.158626
67.4786
0.118968
67.4297
0.0792936
67.3788
0.0396291
67.326
0
67.271
-0.039568
67.2137
-0.0790491
67.154
-0.118417
67.0917
-0.157645
67.0267
-0.196707
66.9588
-0.235576
66.8877
-0.274225
66.8133
-0.312627
66.7354
-0.350754
66.6536
-0.388579
66.5677
-0.426073
66.4775
-0.463209
66.3825
-0.499957
66.2825
-0.536289
66.177
-0.572174
66.0657
-0.607584
65.9481
-0.642487
65.8237
-0.676852
65.692
-0.710649
65.5524
-0.743842
65.4041
-0.7764
65.2466
-0.808288
65.079
-0.839468
64.9003
-0.869905
64.7096
-0.899558
64.5058
-0.928386
64.2875
-0.956344
64.0534
-0.983386
63.801
-1.00946
63.5281
-1.0345
63.2357
-1.05845
62.9255
-1.08127
62.5806
-1.10296
62.1468
-1.12328
61.6726
-1.14099
61.2966
-1.1583
61.8716
-1.17152
60.1709
-1.21455
-1.17973
57.8176
66.295
1.48907
-66.2875
66.3001
1.46143
66.3026
1.43299
66.3028
1.40376
66.3007
1.37378
66.2964
1.34304
66.2901
1.31158
66.2818
1.27941
66.2716
1.24654
66.2596
1.213
66.246
1.1788
66.2307
1.14396
66.2139
1.10851
66.1957
1.07246
66.176
1.03584
66.155
0.998657
66.1327
0.960943
66.1092
0.922718
66.0844
0.884003
66.0586
0.844821
66.0316
0.805194
66.0035
0.765144
65.9743
0.724696
65.9441
0.683873
65.9129
0.642699
65.8806
0.601198
65.8473
0.559394
65.813
0.517313
65.7776
0.474979
65.7412
0.432417
65.7037
0.389653
65.665
0.346713
65.6252
0.303622
65.5843
0.260407
65.542
0.217095
65.4985
0.17371
65.4535
0.130282
65.4072
0.0868357
65.3592
0.0433991
65.3097
0
65.2584
-0.0433344
65.2053
-0.0865768
65.1501
-0.129699
65.0929
-0.172672
65.0334
-0.215468
64.9715
-0.258059
64.907
-0.300416
64.8397
-0.342509
64.7694
-0.38431
64.6959
-0.42579
64.619
-0.466918
64.5384
-0.507664
64.4538
-0.547999
64.3649
-0.587892
64.2714
-0.627311
64.173
-0.666226
64.0692
-0.704604
63.9596
-0.742413
63.8439
-0.77962
63.7214
-0.816192
63.5916
-0.852093
63.4539
-0.887288
63.3078
-0.921741
63.1523
-0.955414
62.9867
-0.988267
62.8101
-1.02026
62.6215
-1.05135
62.4196
-1.08148
62.2033
-1.11062
61.9704
-1.13871
61.7188
-1.16567
61.4478
-1.19146
61.1633
-1.21598
60.8426
-1.23945
60.4959
-1.26085
59.9275
-1.2823
59.8162
-1.29448
59.6046
-1.3235
-1.33265
59.2647
64.451
1.61815
-64.4532
64.4467
1.58788
64.4403
1.55677
64.432
1.52483
64.4218
1.49207
64.4098
1.45851
64.3962
1.42418
64.3809
1.38909
64.3642
1.35327
64.346
1.31672
64.3265
1.27947
64.3057
1.24155
64.2838
1.20297
64.2606
1.16375
64.2364
1.12392
64.2112
1.0835
64.185
1.04251
64.1578
1.00097
64.1298
0.958911
64.1009
0.916354
64.0712
0.873323
64.0406
0.829843
64.0093
0.785937
63.9773
0.741633
63.9445
0.696953
63.9109
0.651925
63.8766
0.606575
63.8416
0.560929
63.8058
0.515013
63.7693
0.468854
63.7319
0.42248
63.6938
0.375917
63.6547
0.329195
63.6148
0.282339
63.574
0.235378
63.5322
0.188341
63.4893
0.141256
63.4453
0.0941516
63.4001
0.0470565
63.3536
0
63.3058
-0.0469887
63.2565
-0.0938803
63.2056
-0.140645
63.153
-0.187253
63.0986
-0.233674
63.0422
-0.279879
62.9837
-0.325837
62.9229
-0.371516
62.8596
-0.416888
62.7937
-0.46192
62.7248
-0.506582
62.653
-0.550842
62.5777
-0.594668
62.4989
-0.638029
62.4162
-0.680892
62.3293
-0.723224
62.2379
-0.764993
62.1417
-0.806165
62.0401
-0.846706
61.9329
-0.886581
61.8196
-0.925754
61.6996
-0.964191
61.5724
-1.00185
61.4374
-1.0387
61.2939
-1.0747
61.1412
-1.10981
60.9784
-1.14398
60.8045
-1.17717
60.6186
-1.20933
60.4196
-1.24042
60.2059
-1.27037
59.9741
-1.29914
59.728
-1.32658
59.4542
-1.35292
59.1955
-1.37727
58.8209
-1.40192
58.4318
-1.42101
58.1002
-1.4423
-1.45823
57.9516
62.6482
1.74373
-62.659
62.6358
1.7109
62.6216
1.67717
62.6058
1.64255
62.5885
1.60708
62.5698
1.57077
62.5498
1.53363
62.5285
1.49569
62.5061
1.45697
62.4825
1.41749
62.4579
1.37727
62.4323
1.33633
62.4058
1.2947
62.3785
1.25239
62.3504
1.20944
62.3215
1.16586
62.2919
1.12168
62.2616
1.07692
62.2308
1.03161
62.1993
0.985774
62.1673
0.939435
62.1347
0.892621
62.1016
0.845357
62.068
0.79767
62.0339
0.749587
61.9994
0.701135
61.9643
0.652342
61.9288
0.603236
61.8927
0.553845
61.8562
0.504197
61.8191
0.45432
61.7815
0.404244
61.7433
0.353998
61.7045
0.30361
61.6651
0.253112
61.6249
0.202532
61.584
0.1519
61.5422
0.101248
61.4996
0.050604
61.456
0
61.4114
-0.0505335
61.3656
-0.100965
61.3187
-0.151265
61.2704
-0.201401
61.2206
-0.251341
61.1693
-0.301054
61.1162
-0.350509
61.0613
-0.399672
61.0044
-0.448514
60.9454
-0.496999
60.8839
-0.545097
60.82
-0.592775
60.7532
-0.639999
60.6835
-0.686736
60.6105
-0.732954
60.534
-0.778617
60.4538
-0.823693
60.3694
-0.868146
60.2806
-0.911942
60.1871
-0.955045
60.0884
-0.997419
59.9841
-1.03903
59.8737
-1.07983
59.7568
-1.1198
59.6327
-1.15889
59.5009
-1.19705
59.3607
-1.23425
59.2113
-1.27045
59.0519
-1.30559
58.8814
-1.33963
58.6994
-1.37252
58.5029
-1.40423
58.2942
-1.4346
58.0617
-1.4638
57.8245
-1.49121
57.5661
-1.51788
57.2673
-1.54221
56.8785
-1.56582
-1.58277
56.6863
60.8869
1.86589
-60.9051
60.8672
1.83053
60.8463
1.79423
60.824
1.75701
60.8006
1.71888
60.776
1.67986
60.7504
1.63998
60.7239
1.59926
60.6965
1.55772
60.6682
1.51537
60.6392
1.47225
60.6095
1.42838
60.5791
1.38377
60.5481
1.33846
60.5166
1.29247
60.4846
1.24581
60.4521
1.19853
60.4192
1.15064
60.386
1.10216
60.3523
1.05314
60.3184
1.00358
60.2841
0.953531
60.2495
0.903005
60.2147
0.852034
60.1796
0.800646
60.1443
0.748871
60.1087
0.696738
60.0728
0.644274
60.0367
0.59151
60.0003
0.538476
59.9636
0.485202
59.9266
0.431718
59.8892
0.378055
59.8515
0.324242
59.8134
0.270312
59.7749
0.216296
59.7358
0.162225
59.6962
0.108131
59.656
0.0540451
59.6151
0
59.5735
-0.0539723
59.531
-0.107839
59.4877
-0.161569
59.4433
-0.215128
59.3979
-0.268484
59.3512
-0.321604
59.3031
-0.374454
59.2537
-0.427002
59.2026
-0.479213
59.1497
-0.531055
59.095
-0.582494
59.0382
-0.633495
58.9791
-0.684025
58.9175
-0.734049
58.8533
-0.783533
58.7862
-0.832442
58.716
-0.880741
58.6423
-0.928395
58.565
-0.975367
58.4836
-1.02162
58.3979
-1.06712
58.3076
-1.11184
58.2121
-1.15572
58.1112
-1.19873
58.0043
-1.24084
57.8909
-1.28201
57.7705
-1.32219
57.6425
-1.36133
57.5061
-1.39941
57.3606
-1.43636
57.2054
-1.47214
57.0387
-1.50672
56.8613
-1.53998
56.6689
-1.57199
56.4616
-1.60248
56.2381
-1.63166
56.0178
-1.65891
55.7029
-1.68622
-1.7062
55.5385
59.1668
1.98467
-59.1916
59.141
1.94684
59.1141
1.90803
59.0862
1.86825
59.0575
1.82752
59.0278
1.78587
58.9974
1.74331
58.9664
1.69987
58.9346
1.65557
58.9023
1.61044
58.8695
1.56449
58.8362
1.51775
58.8025
1.47025
58.7685
1.42201
58.7341
1.37306
58.6994
1.32342
58.6645
1.27311
58.6294
1.22217
58.5941
1.17063
58.5586
1.1185
58.5231
1.06583
58.4874
1.01263
58.4517
0.958932
58.4158
0.904772
58.38
0.850177
58.344
0.795177
58.3081
0.739801
58.272
0.684079
58.2359
0.628044
58.1998
0.571726
58.1635
0.515155
58.1272
0.458366
58.0908
0.401387
58.0541
0.344253
58.0174
0.286996
57.9804
0.229647
57.9431
0.17224
57.9055
0.114807
57.8676
0.0573831
57.8292
0
57.7904
-0.0573083
57.751
-0.114508
57.711
-0.171566
57.6703
-0.228447
57.6288
-0.285119
57.5863
-0.341545
57.5429
-0.397693
57.4983
-0.453527
57.4525
-0.509013
57.4054
-0.564117
57.3567
-0.618802
57.3064
-0.673036
57.2542
-0.726781
57.2001
-0.780003
57.1438
-0.832667
57.0851
-0.884737
57.0239
-0.936176
56.9598
-0.986949
56.8927
-1.03702
56.8222
-1.08635
56.7482
-1.13491
56.6702
-1.18265
56.588
-1.22954
56.5013
-1.27554
56.4095
-1.32061
56.3124
-1.36472
56.2094
-1.40781
56.1
-1.44985
55.9838
-1.4908
55.8599
-1.53061
55.728
-1.56924
55.5869
-1.60663
55.4362
-1.64273
55.2746
-1.67752
55.1023
-1.71086
54.9098
-1.74291
54.7239
-1.77284
54.4695
-1.80297
-1.82634
54.3451
57.4881
2.10013
-57.5185
57.4568
2.05988
57.4248
2.01861
57.3921
1.97634
57.3587
1.93307
57.3247
1.88884
57.2902
1.84368
57.2552
1.79759
57.2197
1.7506
57.184
1.70275
57.1479
1.65405
57.1116
1.60452
57.075
1.5542
57.0383
1.50311
57.0015
1.45128
56.9646
1.39873
56.9277
1.34549
56.8907
1.29159
56.8537
1.23706
56.8168
1.18192
56.7799
1.12621
56.7431
1.06996
56.7065
1.01319
56.6699
0.955932
56.6334
0.898224
56.5971
0.840093
56.5609
0.78157
56.5249
0.722688
56.4889
0.663479
56.4531
0.603974
56.4174
0.544207
56.3818
0.484211
56.3462
0.424018
56.3107
0.363662
56.2752
0.303177
56.2397
0.242596
56.2042
0.181954
56.1685
0.121283
56.1327
0.060621
56.0968
0
56.0605
-0.0605446
56.024
-0.120978
55.9871
-0.181265
55.9497
-0.241371
55.9118
-0.30126
55.8733
-0.360896
55.834
-0.420245
55.794
-0.479271
55.753
-0.537938
55.711
-0.596211
55.6679
-0.654052
55.6234
-0.711427
55.5775
-0.7683
55.5301
-0.824633
55.4809
-0.880391
55.4298
-0.935538
55.3766
-0.990036
55.3212
-1.04385
55.2632
-1.09694
55.2025
-1.14927
55.1388
-1.20081
55.0719
-1.25151
55.0015
-1.30134
54.9273
-1.35025
54.849
-1.39822
54.7662
-1.4452
54.6785
-1.49115
54.5855
-1.53603
54.4868
-1.57979
54.3819
-1.62241
54.2702
-1.66382
54.151
-1.70398
54.024
-1.74285
53.8875
-1.7804
53.7436
-1.81648
53.5831
-1.85131
53.4263
-1.88406
53.2121
-1.91684
-1.94325
53.1142
55.8502
2.21233
-55.8855
55.8144
2.16973
55.778
2.12606
55.741
2.08134
55.7037
2.03561
55.6659
1.98886
55.6279
1.94115
55.5895
1.89248
55.551
1.84288
55.5123
1.79237
55.4734
1.74099
55.4345
1.68875
55.3956
1.63569
55.3567
1.58183
55.3178
1.52719
55.2791
1.47182
55.2404
1.41573
55.2019
1.35895
55.1636
1.30151
55.1255
1.24345
55.0876
1.1848
55.0499
1.12558
55.0125
1.06582
54.9754
1.00556
54.9386
0.944829
54.902
0.88366
54.8657
0.822085
54.8298
0.760136
54.7941
0.697847
54.7587
0.635253
54.7235
0.572385
54.6887
0.509278
54.654
0.445968
54.6196
0.382487
54.5854
0.318871
54.5514
0.255156
54.5174
0.191375
54.4836
0.127565
54.4499
0.0637618
54.4161
0
54.3823
-0.0636841
54.3484
-0.127254
54.3143
-0.190675
54.28
-0.253909
54.2455
-0.316921
54.2105
-0.379674
54.1751
-0.442131
54.1392
-0.504256
54.1026
-0.566013
54.0653
-0.627364
54.0271
-0.688272
53.988
-0.748701
53.9478
-0.808614
53.9064
-0.867973
53.8637
-0.926742
53.8194
-0.984883
53.7735
-1.04236
53.7257
-1.09913
53.6759
-1.15517
53.624
-1.21042
53.5695
-1.26486
53.5125
-1.31845
53.4526
-1.37115
53.3895
-1.42291
53.3231
-1.47371
53.2529
-1.5235
53.1787
-1.57224
53.1002
-1.61989
53.0169
-1.66642
52.9284
-1.71177
52.8344
-1.75591
52.7342
-1.79879
52.6276
-1.84037
52.5132
-1.88061
52.3926
-1.9194
52.2588
-1.9569
52.1289
-1.99241
51.9491
-2.02784
-2.05717
51.8721
54.253
2.32135
-54.2925
54.2132
2.27645
54.173
2.23043
54.1325
2.18334
54.0918
2.13518
54.0509
2.08599
54.0098
2.03579
53.9686
1.98461
53.9274
1.93246
53.8862
1.87937
53.8451
1.82538
53.804
1.77051
53.7631
1.71477
53.7224
1.65822
53.6818
1.60086
53.6415
1.54274
53.6015
1.48387
53.5618
1.4243
53.5224
1.36405
53.4833
1.30315
53.4446
1.24163
53.4063
1.17953
53.3684
1.11687
53.3309
1.0537
53.2938
0.990035
53.2572
0.925918
53.221
0.861381
53.1852
0.796457
53.1499
0.731182
53.1149
0.665589
53.0804
0.599714
53.0463
0.533591
53.0126
0.467256
52.9793
0.400745
52.9463
0.334094
52.9137
0.267338
52.8813
0.200514
52.8492
0.133659
52.8174
0.0668085
52.7857
0
52.7541
-0.0667297
52.7227
-0.133343
52.6913
-0.199804
52.6598
-0.266075
52.6283
-0.332117
52.5967
-0.397895
52.5648
-0.46337
52.5326
-0.528504
52.5
-0.593261
52.467
-0.657603
52.4334
-0.721491
52.3991
-0.784887
52.364
-0.847756
52.3281
-0.910057
52.2911
-0.971754
52.253
-1.03281
52.2136
-1.09318
52.1727
-1.15284
52.1303
-1.21174
52.0861
-1.26985
52.0399
-1.32712
51.9917
-1.38352
51.9411
-1.43902
51.8879
-1.49356
51.832
-1.54712
51.773
-1.59965
51.7108
-1.65112
51.6449
-1.70149
51.5751
-1.75071
51.5011
-1.79874
51.4225
-1.84555
51.3388
-1.89109
51.2499
-1.93531
51.1546
-1.97819
51.0542
-2.01961
50.9428
-2.05975
50.8355
-2.09791
50.6853
-2.13593
-2.16811
50.6263
52.6961
2.42725
-52.7391
52.6529
2.3801
52.6095
2.3318
52.566
2.28238
52.5224
2.23188
52.4788
2.1803
52.4352
2.12768
52.3916
2.07405
52.3482
2.01942
52.3049
1.96382
52.2619
1.90729
52.2191
1.84985
52.1765
1.79152
52.1343
1.73235
52.0924
1.67235
52.0508
1.61155
52.0097
1.54999
51.969
1.48771
51.9288
1.42472
51.889
1.36106
51.8497
1.29676
51.8109
1.23186
51.7727
1.1664
51.735
1.10039
51.6978
1.03388
51.6612
0.966906
51.6252
0.899495
51.5897
0.831686
51.5548
0.763513
51.5204
0.695012
51.4866
0.62622
51.4533
0.557172
51.4205
0.487904
51.3882
0.418454
51.3565
0.348858
51.3252
0.279154
51.2943
0.209378
51.2638
0.139569
51.2338
0.0697638
51.204
0
51.1746
-0.0696841
51.1454
-0.13925
51.1165
-0.208661
51.0877
-0.277877
51.059
-0.346862
51.0303
-0.415575
51.0016
-0.483979
50.9729
-0.552036
50.9439
-0.619707
50.9148
-0.686953
50.8853
-0.753735
50.8554
-0.820016
50.8249
-0.885757
50.7939
-0.950919
50.7621
-1.01546
50.7296
-1.07935
50.696
-1.14255
50.6614
-1.20501
50.6255
-1.2667
50.5883
-1.32758
50.5495
-1.38761
50.5091
-1.44676
50.4668
-1.50498
50.4224
-1.56224
50.3758
-1.61849
50.3268
-1.6737
50.275
-1.72783
50.2203
-1.78085
50.1624
-1.8327
50.1011
-1.88335
50.036
-1.93276
49.9667
-1.9809
49.8931
-2.0277
49.8143
-2.07316
49.7314
-2.11716
49.6393
-2.15985
49.5512
-2.20061
49.4261
-2.24115
-2.27608
49.3821
51.1788
2.5301
-51.2249
51.1328
2.48075
51.0868
2.43022
51.0407
2.37855
50.9947
2.32575
50.9489
2.27185
50.9032
2.21688
50.8577
2.16086
50.8124
2.10382
50.7675
2.04578
50.7228
1.98678
50.6786
1.92684
50.6347
1.866
50.5912
1.80427
50.5483
1.7417
50.5058
1.67831
50.4638
1.61414
50.4224
1.54922
50.3815
1.48357
50.3412
1.41723
50.3016
1.35024
50.2625
1.28263
50.2241
1.21443
50.1863
1.14568
50.1492
1.07641
50.1128
1.00666
50.077
0.936462
50.0418
0.865853
50.0074
0.79487
49.9736
0.72355
49.9405
0.651927
49.908
0.580042
49.8762
0.50793
49.845
0.43563
49.8144
0.363178
49.7843
0.290614
49.7549
0.217976
49.726
0.145302
49.6976
0.0726302
49.6697
0
49.6422
-0.07255
49.6152
-0.144981
49.5885
-0.217254
49.5621
-0.289329
49.536
-0.361168
49.5101
-0.43273
49.4844
-0.503979
49.4587
-0.574872
49.4331
-0.645372
49.4075
-0.715439
49.3817
-0.785033
49.3557
-0.854116
49.3295
-0.922649
49.3029
-0.990591
49.2759
-1.0579
49.2482
-1.12455
49.2199
-1.19049
49.1909
-1.25568
49.1609
-1.32009
49.1299
-1.38367
49.0977
-1.44639
49.0643
-1.50821
49.0293
-1.56908
48.9928
-1.62898
48.9545
-1.68786
48.9142
-1.74569
48.8717
-1.80242
48.8269
-1.85801
48.7795
-1.91243
48.7292
-1.96564
48.6759
-2.0176
48.6192
-2.06826
48.559
-2.11759
48.4945
-2.16556
48.4268
-2.21207
48.3513
-2.25727
48.2798
-2.30054
48.176
-2.34353
-2.38113
48.1447
49.7008
2.62996
-49.7494
49.6525
2.57848
49.6042
2.52578
49.556
2.47191
49.5081
2.41688
49.4604
2.36072
49.4129
2.30346
49.3659
2.24512
49.3191
2.18573
49.2728
2.12532
49.2269
2.06392
49.1815
2.00155
49.1366
1.93826
49.0922
1.87406
49.0484
1.80899
49.0052
1.74309
48.9626
1.67637
48.9207
1.60889
48.8794
1.54066
48.8388
1.47172
48.7989
1.40212
48.7597
1.33187
48.7212
1.26102
48.6835
1.18961
48.6466
1.11766
48.6104
1.04522
48.5749
0.972316
48.5402
0.898992
48.5063
0.825283
48.4731
0.751227
48.4407
0.676861
48.4091
0.602224
48.3782
0.527353
48.348
0.452289
48.3186
0.377068
48.2898
0.301731
48.2617
0.226316
48.2343
0.150863
48.2075
0.0754109
48.1813
0
48.1556
-0.0753303
48.1305
-0.15054
48.1059
-0.22559
48.0818
-0.300439
48.0581
-0.375048
48.0347
-0.449376
48.0116
-0.523385
47.9889
-0.597032
47.9663
-0.670279
47.9438
-0.743085
47.9214
-0.815411
47.8991
-0.887216
47.8766
-0.958461
47.854
-1.02911
47.8312
-1.09911
47.808
-1.16844
47.7845
-1.23704
47.7604
-1.30489
47.7357
-1.37194
47.7103
-1.43815
47.684
-1.50348
47.6567
-1.56791
47.6283
-1.63137
47.5987
-1.69384
47.5678
-1.75528
47.5352
-1.81565
47.501
-1.87492
47.4648
-1.93303
47.4266
-1.98996
47.3862
-2.04566
47.3432
-2.10009
47.2976
-2.15323
47.249
-2.20502
47.197
-2.25544
47.1424
-2.3044
47.0813
-2.35202
47.0241
-2.39775
46.9387
-2.44313
-2.48332
46.9181
48.2615
2.72691
-48.3121
48.2112
2.67335
48.161
2.61854
48.1112
2.56253
48.0616
2.50533
48.0125
2.44697
47.9637
2.38748
47.9153
2.32688
47.8674
2.26521
47.82
2.20249
47.7732
2.13876
47.7269
2.07404
47.6812
2.00836
47.6361
1.94176
47.5917
1.87427
47.548
1.80592
47.505
1.73674
47.4627
1.66677
47.4212
1.59603
47.3804
1.52458
47.3404
1.45243
47.3012
1.37963
47.2629
1.30621
47.2253
1.23221
47.1886
1.15767
47.1527
1.08261
47.1177
1.00709
47.0835
0.931132
47.0501
0.854779
47.0176
0.77807
46.986
0.701043
46.9552
0.623737
46.9252
0.546192
46.896
0.468446
46.8677
0.39054
46.8401
0.312513
46.8133
0.234405
46.7873
0.156257
46.762
0.0781082
46.7374
0
46.7134
-0.0780274
46.6902
-0.155933
46.6675
-0.233677
46.6454
-0.311218
46.6239
-0.388515
46.6028
-0.465527
46.5822
-0.542215
46.5621
-0.618536
46.5422
-0.69445
46.5227
-0.769917
46.5034
-0.844895
46.4842
-0.919344
46.4652
-0.993224
46.4462
-1.06649
46.4272
-1.13911
46.4081
-1.21104
46.3887
-1.28224
46.3691
-1.35267
46.3491
-1.42229
46.3286
-1.49106
46.3076
-1.55894
46.2859
-1.6259
46.2633
-1.69188
46.2399
-1.75686
46.2154
-1.8208
46.1898
-1.88365
46.1628
-1.94537
46.1343
-2.00594
46.1042
-2.06531
46.0723
-2.12344
46.0385
-2.18029
46.0025
-2.23584
45.9641
-2.29002
45.923
-2.34283
45.8798
-2.39417
45.8311
-2.44417
45.7863
-2.49228
45.7167
-2.53998
-2.58268
45.7053
46.8601
2.82102
-46.9124
46.8083
2.76543
46.7567
2.70857
46.7055
2.65047
46.6547
2.59116
46.6043
2.53066
46.5544
2.46901
46.5051
2.40622
46.4563
2.34233
46.4081
2.27737
46.3605
2.21137
46.3136
2.14437
46.2674
2.07638
46.2218
2.00744
46.177
1.9376
46.133
1.86687
46.0897
1.7953
46.0473
1.72291
46.0056
1.64975
45.9648
1.57585
45.9249
1.50124
45.8858
1.42596
45.8477
1.35004
45.8104
1.27354
45.774
1.19647
45.7385
1.11888
45.7039
1.04082
45.6703
0.962303
45.6376
0.883387
45.6058
0.804105
45.5749
0.724497
45.5449
0.644603
45.5158
0.564463
45.4876
0.484117
45.4604
0.403606
45.4339
0.32297
45.4084
0.242251
45.3837
0.161489
45.3598
0.0807245
45.3367
0
45.3144
-0.0806437
45.2928
-0.161165
45.2719
-0.241523
45.2517
-0.321675
45.2322
-0.401581
45.2133
-0.481198
45.1949
-0.560486