/*--------------------------------*- C++ -*----------------------------------*\
| =========                 |                                                 |
| \\      /  F ield         | OpenFOAM: The Open Source CFD Toolbox           |
|  \\    /   O peration     | Version:  2312                                  |
|   \\  /    A nd           | Website:  www.openfoam.com                      |
|    \\/     M anipulation  |                                                 |
\*---------------------------------------------------------------------------*/
FoamFile
{
    version     2.0;
    format      ascii;
    arch        "LSB;label=32;scalar=64";
    class       surfaceScalarField;
    location    "0.911";
    object      phi;
}
// * * * * * * * * * * * * * * * * * * * * * * * * * * * * * * * * * * * * * //

dimensions      [0 3 -1 0 0 0 0];

oriented        oriented;

internalField   nonuniform List<scalar> 
62015
(
26.3542
0.138558
-26.2561
26.522
0.137255
26.7488
0.13613
27.0247
0.135119
27.3403
0.13416
27.6874
0.133203
28.0591
0.132202
28.4494
0.131122
28.8537
0.129931
29.2681
0.128607
29.6895
0.127129
30.1155
0.125483
30.5443
0.123657
30.9744
0.121642
31.4048
0.11943
31.8345
0.117018
32.2632
0.114401
32.6903
0.111577
33.1157
0.108545
33.5392
0.105305
33.9608
0.101857
34.3805
0.0982021
34.7986
0.0943413
35.215
0.0902765
35.63
0.0860103
36.0439
0.0815448
36.4568
0.0768828
36.8691
0.0720272
37.2809
0.0669815
37.6927
0.061749
38.1046
0.0563332
38.517
0.0507375
38.9301
0.0449667
39.3443
0.0390237
39.7598
0.0329135
40.177
0.0266397
40.596
0.0202072
41.0173
0.0136199
41.4409
0.00688259
41.8674
0
42.2968
-0.00702344
42.7294
-0.0141823
43.1655
-0.0214727
43.6054
-0.0288887
44.0492
-0.0364261
44.4971
-0.0440791
44.9495
-0.0518433
45.4065
-0.0597126
45.8682
-0.0676828
46.335
-0.0757475
46.8069
-0.083902
47.2842
-0.0921406
47.767
-0.100458
48.2555
-0.108849
48.7498
-0.117307
49.2501
-0.125827
49.7565
-0.134404
50.2691
-0.143032
50.7881
-0.151704
51.3135
-0.160416
51.8454
-0.169162
52.384
-0.177936
52.9293
-0.186731
53.4814
-0.195543
54.0404
-0.204366
54.6063
-0.213193
55.1791
-0.222019
55.759
-0.230838
56.3459
-0.239645
56.9398
-0.248433
57.5409
-0.257197
58.149
-0.26593
58.764
-0.274628
59.3867
-0.283283
60.0147
-0.291897
60.655
-0.300434
61.286
-0.30899
61.9741
-0.317238
-0.326177
62.5152
25.8227
0.275808
-25.6754
26.0262
0.273634
26.2763
0.271683
26.5644
0.269844
26.883
0.268018
27.2255
0.266122
27.5865
0.264083
27.9613
0.261843
28.3464
0.259356
28.7388
0.256582
29.1361
0.25349
29.5365
0.250059
29.9387
0.246267
30.3414
0.242102
30.7439
0.237552
31.1456
0.23261
31.5462
0.22727
31.9452
0.22153
32.3427
0.215388
32.7385
0.208844
33.1327
0.201898
33.5254
0.194554
33.9166
0.186813
34.3065
0.17868
34.6954
0.170159
35.0834
0.161254
35.4708
0.151972
35.8578
0.142317
36.2448
0.132297
36.6319
0.121917
37.0194
0.111185
37.4077
0.100107
37.7969
0.088692
38.1874
0.0769467
38.5794
0.064879
38.9732
0.0524972
39.3691
0.0398098
39.7673
0.0268252
40.1681
0.0135524
40.5717
0
40.9784
-0.0138228
41.3884
-0.0279065
41.802
-0.0422421
42.2193
-0.05682
42.6405
-0.0716299
43.066
-0.0866628
43.4958
-0.101908
43.9303
-0.117356
44.3694
-0.132997
44.8136
-0.148819
45.2628
-0.164813
45.7174
-0.180969
46.1774
-0.197275
46.6429
-0.213721
47.1142
-0.230296
47.5914
-0.246989
48.0745
-0.26379
48.5638
-0.280687
49.0592
-0.29767
49.561
-0.314727
50.0691
-0.331847
50.5838
-0.34902
51.105
-0.366233
51.6328
-0.383476
52.1673
-0.400737
52.7086
-0.418005
53.2566
-0.43527
53.8115
-0.452519
54.3732
-0.469741
54.9418
-0.486925
55.5173
-0.504061
56.0997
-0.521135
56.6889
-0.538139
57.2854
-0.555056
57.8872
-0.571894
58.5007
-0.588579
59.1059
-0.605296
59.7643
-0.621426
-0.638855
60.2878
25.3548
0.412582
-25.1708
25.5829
0.409786
25.8468
0.407155
26.1396
0.404552
26.4553
0.401856
26.7889
0.398967
27.136
0.3958
27.4933
0.392286
27.858
0.388369
28.2278
0.384004
28.6009
0.379154
28.976
0.373792
29.3521
0.367895
29.7282
0.361446
30.1039
0.354434
30.4787
0.34685
30.8523
0.338687
31.2245
0.329942
31.5954
0.320615
31.9648
0.310705
32.3329
0.300215
32.6997
0.289149
33.0654
0.277511
33.4302
0.265306
33.7941
0.252541
34.1576
0.239224
34.5208
0.22536
34.8838
0.210961
35.2471
0.196033
35.6108
0.180588
35.9751
0.164634
36.3405
0.148182
36.707
0.131242
37.075
0.113827
37.4446
0.0959471
37.8163
0.0776142
38.1901
0.0588407
38.5664
0.0396384
38.9454
0.0200208
39.3273
0
39.7124
-0.0204105
40.1008
-0.0411971
40.4928
-0.0623463
40.8887
-0.0838444
41.2885
-0.105678
41.6925
-0.127831
42.1008
-0.15029
42.5138
-0.173041
42.9314
-0.196069
43.354
-0.219358
43.7816
-0.242894
44.2145
-0.266661
44.6527
-0.290644
45.0964
-0.314828
45.5457
-0.339196
46.0008
-0.363734
46.4617
-0.388424
46.9286
-0.413252
47.4016
-0.438201
47.8808
-0.463255
48.3662
-0.488397
48.8579
-0.513613
49.3561
-0.538885
49.8607
-0.564197
50.3718
-0.589533
50.8895
-0.614876
51.4139
-0.640209
51.9448
-0.665518
52.4825
-0.690784
53.0268
-0.715993
53.5778
-0.741126
54.1355
-0.766168
54.6998
-0.791105
55.2713
-0.815911
55.848
-0.840599
56.4358
-0.865065
57.0162
-0.889567
57.6465
-0.913227
-0.93873
58.1512
24.9289
0.549339
-24.7203
25.1715
0.546016
25.4413
0.542729
25.7327
0.539332
26.0411
0.535696
26.3626
0.531714
26.6939
0.527299
27.0326
0.522377
27.3764
0.51689
27.7238
0.510791
28.0733
0.50404
28.424
0.49661
28.775
0.488477
29.1259
0.479623
29.4761
0.470036
29.8254
0.459707
30.1735
0.44863
30.5205
0.436804
30.8663
0.424226
31.2109
0.4109
31.5544
0.396828
31.8969
0.382016
32.2386
0.366469
32.5796
0.350195
32.9202
0.333202
33.2605
0.3155
33.6008
0.297099
33.9413
0.278009
34.2822
0.258243
34.6238
0.237812
34.9663
0.21673
35.31
0.195008
35.655
0.172662
36.0017
0.149706
36.3503
0.126153
36.7009
0.102021
37.0539
0.0773228
37.4095
0.0520759
37.7679
0.0262961
38.1292
0
38.4938
-0.0267954
38.8617
-0.0540728
39.2334
-0.0818148
39.6088
-0.110003
39.9882
-0.13862
40.3718
-0.167647
40.7598
-0.197066
41.1523
-0.226857
41.5495
-0.257002
41.9515
-0.287481
42.3585
-0.318275
42.7707
-0.349363
43.1882
-0.380727
43.611
-0.412346
44.0394
-0.4442
44.4734
-0.476268
44.9132
-0.50853
45.3588
-0.540965
45.8103
-0.573553
46.2679
-0.606273
46.7316
-0.639103
47.2015
-0.672023
47.6776
-0.705012
48.16
-0.738049
48.6488
-0.771112
49.1439
-0.80418
49.6456
-0.837233
50.1536
-0.870248
50.6682
-0.903204
51.1893
-0.936081
51.7168
-0.968858
52.2509
-1.00151
52.7914
-1.03402
53.3389
-1.06636
53.8914
-1.09855
54.4547
-1.13044
55.0112
-1.16237
55.6147
-1.19322
-1.22641
56.1005
24.5296
0.686281
-24.3066
24.7786
0.682409
25.0478
0.678406
25.3331
0.674123
25.6308
0.669434
25.9381
0.664232
26.2525
0.658432
26.572
0.651962
26.895
0.644764
27.2204
0.636791
27.5471
0.628007
27.8744
0.618381
28.2017
0.607893
28.5286
0.596524
28.8547
0.584262
29.18
0.5711
29.5043
0.557033
29.8276
0.54206
30.1498
0.52618
30.4711
0.509396
30.7916
0.491715
31.1113
0.473141
31.4305
0.453683
31.7493
0.43335
32.068
0.412151
32.3866
0.3901
32.7054
0.367207
33.0247
0.343487
33.3447
0.318953
33.6655
0.293619
33.9874
0.267501
34.3107
0.240616
34.6355
0.212979
34.9622
0.184609
35.2908
0.155522
35.6217
0.125737
35.955
0.095273
36.291
0.0641491
36.6298
0.0323846
36.9717
0
37.3169
-0.0329844
37.6655
-0.066548
38.0178
-0.100669
38.3739
-0.135327
38.734
-0.170498
39.0982
-0.206162
39.4668
-0.242295
39.8399
-0.278875
40.2176
-0.315878
40.6002
-0.353281
40.9876
-0.391061
41.3801
-0.429193
41.7778
-0.467654
42.1808
-0.506418
42.5893
-0.545462
43.0032
-0.584762
43.4228
-0.624291
43.8481
-0.664025
44.2792
-0.703939
44.7162
-0.744008
45.1591
-0.784205
45.6081
-0.824507
46.0631
-0.864887
46.5243
-0.905318
46.9917
-0.945778
47.4654
-0.986237
47.9452
-1.02667
48.4314
-1.06706
48.9239
-1.10737
49.4227
-1.14757
49.9278
-1.18765
50.4393
-1.22757
50.9569
-1.26732
51.4813
-1.30686
52.0107
-1.34619
52.5504
-1.38517
53.0839
-1.42419
53.6619
-1.4619
-1.50241
54.1291
24.1463
0.823442
-23.917
24.3953
0.818928
24.6592
0.814093
24.935
0.808795
25.2198
0.802915
25.5115
0.796353
25.8082
0.789026
26.1084
0.780868
26.4111
0.771822
26.7152
0.761846
27.02
0.750904
27.325
0.738968
27.6298
0.726017
27.9341
0.712036
28.2377
0.697015
28.5404
0.680945
28.8423
0.663823
29.1434
0.64565
29.4436
0.626426
29.7431
0.606157
30.042
0.584847
30.3405
0.562506
30.6386
0.539142
30.9366
0.514767
31.2347
0.489392
31.533
0.463032
31.8317
0.435699
32.1311
0.40741
32.4314
0.378182
32.7327
0.34803
33.0353
0.316972
33.3394
0.285028
33.6452
0.252217
33.953
0.218558
34.2629
0.184072
34.5751
0.148781
34.8898
0.112705
35.2073
0.0758681
35.5277
0.0382919
35.8513
0
36.1781
-0.0389838
36.5084
-0.0786353
36.8424
-0.11893
37.1802
-0.159842
37.522
-0.201347
37.8679
-0.243419
38.2182
-0.286031
38.5728
-0.329157
38.9321
-0.37277
39.2961
-0.416842
39.6649
-0.461347
40.0387
-0.506256
40.4177
-0.551541
40.8018
-0.597174
41.1912
-0.643127
41.586
-0.68937
41.9864
-0.735875
42.3923
-0.782613
42.8039
-0.829553
43.2212
-0.876668
43.6444
-0.923926
44.0734
-0.9713
44.5084
-1.01876
44.9493
-1.06627
45.3962
-1.11381
45.8493
-1.16134
46.3083
-1.20884
46.7736
-1.25627
47.2449
-1.3036
47.7224
-1.35081
48.206
-1.39787
48.6958
-1.44474
49.1916
-1.4914
49.6939
-1.5378
50.2011
-1.58396
50.7182
-1.6297
51.2296
-1.67548
51.7832
-1.71974
-1.76721
52.2322
23.7718
0.960755
-23.5423
24.0161
0.95546
24.2714
0.949648
24.5353
0.943188
24.8058
0.93597
25.0811
0.927902
25.36
0.918909
25.6412
0.908927
25.924
0.897906
26.2076
0.885805
26.4916
0.872593
26.7755
0.858244
27.059
0.842738
27.342
0.826062
27.6244
0.808206
27.906
0.789165
28.187
0.768937
28.4672
0.747522
28.7469
0.724924
29.026
0.701148
29.3048
0.676202
29.5833
0.650096
29.8618
0.62284
30.1403
0.594446
30.4191
0.56493
30.6984
0.534305
30.9783
0.502589
31.259
0.469798
31.5408
0.435951
31.8238
0.401066
32.1083
0.365166
32.3944
0.328269
32.6824
0.290398
32.9724
0.251575
33.2646
0.211824
33.5592
0.171169
33.8565
0.129633
34.1565
0.0872425
34.4596
0.0440229
34.7657
0
35.0753
-0.044799
35.3883
-0.0903464
35.7049
-0.136615
36.0254
-0.183576
36.3498
-0.231201
36.6784
-0.27946
37.0112
-0.328324
37.3484
-0.377763
37.6902
-0.427746
38.0366
-0.478243
38.3877
-0.529222
38.7438
-0.580652
39.1048
-0.632501
39.471
-0.684737
39.8423
-0.737327
40.2189
-0.79024
40.601
-0.843442
40.9884
-0.896899
41.3814
-0.95058
41.78
-1.00445
42.1843
-1.05848
42.5943
-1.11263
43.0101
-1.16686
43.4316
-1.22115
43.8591
-1.27547
44.2924
-1.32977
44.7316
-1.38402
45.1768
-1.43819
45.6279
-1.49224
46.085
-1.54615
46.548
-1.59987
47.0171
-1.65337
47.4919
-1.70663
47.9731
-1.75958
48.459
-1.81226
48.9545
-1.86446
49.4447
-1.91668
49.9749
-1.96719
-2.02128
50.4064
23.4013
1.09809
-23.176
23.6377
1.09185
23.8821
1.08491
24.1327
1.07713
24.388
1.06843
24.6467
1.05871
24.9078
1.04792
25.1705
1.03598
25.4341
1.02287
25.6981
1.00854
25.9623
0.992954
26.2262
0.9761
26.4898
0.957957
26.7528
0.938514
27.0152
0.917763
27.2771
0.8957
27.5384
0.872323
27.7992
0.847636
28.0596
0.821642
28.3197
0.794349
28.5797
0.765766
28.8396
0.735904
29.0996
0.704775
29.3599
0.672393
29.6207
0.638774
29.8821
0.603935
30.1444
0.567894
30.4077
0.530669
30.6721
0.492282
30.938
0.452753
31.2054
0.412105
31.4746
0.370361
31.7458
0.327545
32.0191
0.283682
32.2947
0.238798
32.5728
0.192918
32.8535
0.14607
33.1371
0.0982822
33.4238
0.0495824
33.7136
0
34.0067
-0.0504354
34.3034
-0.101693
34.6036
-0.153743
34.9077
-0.206554
35.2157
-0.260093
35.5278
-0.314327
35.8441
-0.369225
36.1648
-0.424753
36.4899
-0.480877
36.8196
-0.537562
37.1539
-0.594775
37.4931
-0.652481
37.8372
-0.710643
38.1862
-0.769226
38.5404
-0.828195
38.8997
-0.887514
39.2642
-0.947145
39.6341
-1.00705
40.0094
-1.0672
40.3902
-1.12755
40.7764
-1.18806
41.1683
-1.2487
41.5657
-1.30943
41.9688
-1.37022
42.3776
-1.43101
42.7921
-1.49179
43.2123
-1.5525
43.6384
-1.61311
44.0701
-1.67359
44.5077
-1.73389
44.9511
-1.79398
45.4002
-1.85382
45.8551
-1.91338
46.316
-1.97259
46.7816
-2.03149
47.2563
-2.08984
47.7261
-2.14821
48.234
-2.20469
-2.26508
48.6487
23.0317
1.23528
-22.8137
23.2579
1.22793
23.49
1.21969
23.7264
1.21045
23.9662
1.20012
24.2083
1.18862
24.4521
1.1759
24.6968
1.1619
24.9421
1.14659
25.1875
1.12992
25.4329
1.11188
25.678
1.09244
25.9228
1.07159
26.167
1.04932
26.4108
1.02562
26.6542
1.0005
26.8972
0.973941
27.1398
0.945958
27.3822
0.916557
27.6245
0.885744
27.8668
0.85353
28.1093
0.819929
28.3521
0.784952
28.5954
0.748616
28.8393
0.710939
29.0841
0.671938
29.3298
0.631634
29.5767
0.590047
29.8249
0.547199
30.0746
0.503114
30.3261
0.457816
30.5794
0.411331
30.8347
0.363683
31.0923
0.314901
31.3522
0.265012
31.6147
0.214045
31.88
0.16203
32.1481
0.108996
32.4192
0.0549759
32.6935
0
32.9712
-0.0558989
33.2524
-0.112688
33.5372
-0.170333
33.8258
-0.2288
34.1182
-0.288054
34.4147
-0.34806
34.7154
-0.408782
35.0203
-0.470183
35.3296
-0.532226
35.6435
-0.594875
35.9619
-0.658091
36.285
-0.721835
36.6129
-0.786071
36.9457
-0.850758
37.2835
-0.915857
37.6263
-0.981329
37.9743
-1.04713
38.3274
-1.11323
38.6858
-1.17958
39.0496
-1.24614
39.4186
-1.31287
39.7931
-1.37974
40.1731
-1.44669
40.5586
-1.51369
40.9496
-1.58069
41.3461
-1.64766
41.7482
-1.71456
42.1559
-1.78133
42.5692
-1.84795
42.9882
-1.91437
43.4127
-1.98054
43.8428
-2.04643
44.2785
-2.112
44.72
-2.17719
45.1661
-2.24202
45.6209
-2.30625
46.0713
-2.37047
46.5577
-2.43265
-2.49903
46.9563
22.6609
1.37213
-22.4524
22.8756
1.36351
23.0944
1.35382
23.3164
1.34297
23.5407
1.33087
23.7666
1.31747
23.9935
1.30271
24.221
1.28655
24.4488
1.26894
24.6767
1.24985
24.9043
1.22928
25.1317
1.20719
25.3588
1.18357
25.5855
1.15842
25.8118
1.13174
26.0379
1.10352
26.2637
1.07376
26.4893
1.04247
26.7149
1.00965
26.9406
0.975324
27.1664
0.939493
27.3926
0.902173
27.6193
0.863379
27.8467
0.823129
28.0748
0.781441
28.3039
0.738335
28.5341
0.693832
28.7657
0.647955
28.9987
0.600728
29.2333
0.552176
29.4697
0.502325
29.708
0.451201
29.9485
0.398835
30.1913
0.345253
30.4365
0.290487
30.6843
0.234567
30.9349
0.177525
31.1884
0.119395
31.4449
0.0602081
31.7047
0
31.9677
-0.0611947
32.2343
-0.123341
32.5044
-0.186401
32.7783
-0.250339
33.056
-0.315117
33.3378
-0.380697
33.6236
-0.44704
33.9136
-0.514107
34.208
-0.581858
34.5067
-0.650253
34.81
-0.71925
35.1179
-0.788809
35.4304
-0.858887
35.7478
-0.929443
36.07
-1.00044
36.3971
-1.07182
36.7293
-1.14355
37.0665
-1.21559
37.4088
-1.28789
37.7563
-1.36041
38.109
-1.43311
38.467
-1.50593
38.8303
-1.57885
39.1989
-1.6518
39.5729
-1.72475
39.9523
-1.79765
40.3371
-1.87045
40.7273
-1.94312
41.1229
-2.01561
41.524
-2.08787
41.9305
-2.15985
42.3425
-2.23152
42.7598
-2.30284
43.1828
-2.37373
43.6102
-2.44422
44.046
-2.51406
44.4778
-2.58387
44.9437
-2.65148
-2.72354
45.3267
22.2877
1.50847
-22.09
22.4901
1.49841
22.6954
1.48712
22.9029
1.47453
23.1119
1.46055
23.322
1.44513
23.5328
1.42823
23.7439
1.4098
23.9552
1.38981
24.1663
1.36824
24.3773
1.34506
24.5881
1.32026
24.7986
1.29383
25.0088
1.26577
25.2188
1.23607
25.4287
1.20472
25.6384
1.17175
25.8482
1.13714
26.0581
1.10092
26.2682
1.06308
26.4787
1.02365
26.6896
0.982644
26.9013
0.940068
27.1137
0.895947
27.3271
0.850299
27.5415
0.803146
27.7572
0.754511
27.9744
0.704419
28.1931
0.652894
28.4135
0.599964
28.6358
0.545656
28.8601
0.489999
29.0866
0.433024
29.3155
0.374761
29.5468
0.315242
29.7808
0.2545
30.0176
0.19257
30.2572
0.129486
30.5
0.0652837
30.7459
0
30.9952
-0.066328
31.2479
-0.133663
31.5042
-0.201965
31.7642
-0.271194
32.028
-0.341312
32.2957
-0.412277
32.5675
-0.484047
32.8434
-0.55658
33.1235
-0.629835
33.4079
-0.703767
33.6968
-0.778333
33.9902
-0.853489
34.2882
-0.929189
34.5909
-1.00539
34.8983
-1.08205
35.2105
-1.15911
35.5275
-1.23654
35.8495
-1.31428
36.1765
-1.3923
36.5085
-1.47053
36.8456
-1.54895
37.1879
-1.62749
37.5352
-1.70611
37.8878
-1.78476
38.2456
-1.8634
38.6086
-1.94197
38.9768
-2.02044
39.3503
-2.09874
39.7291
-2.17684
40.1132
-2.25469
40.5025
-2.33223
40.897
-2.40942
41.2968
-2.48621
41.702
-2.56255
42.1116
-2.63844
42.5292
-2.71363
42.9431
-2.78876
43.3893
-2.86156
-2.93903
43.7574
21.9116
1.64408
-21.7254
22.1012
1.63245
22.2929
1.61943
22.4861
1.60497
22.6804
1.589
22.8754
1.57147
23.0708
1.55234
23.2663
1.53156
23.4619
1.50912
23.6574
1.48499
23.8527
1.45916
24.0479
1.43161
24.2428
1.40232
24.4377
1.37131
24.6324
1.33857
24.8271
1.30409
25.0219
1.26789
25.2168
1.22998
25.412
1.19035
25.6076
1.14903
25.8037
1.10602
26.0005
1.06135
26.198
1.01503
26.3965
0.967086
26.596
0.917533
26.7967
0.866395
26.9988
0.813697
27.2025
0.759464
27.4077
0.703724
27.6148
0.646506
27.8239
0.587837
28.035
0.527749
28.2484
0.466274
28.4641
0.403445
28.6824
0.339296
28.9034
0.273861
29.1271
0.207176
29.3538
0.139279
29.5835
0.0702078
29.8164
0
30.0526
-0.0713044
30.2923
-0.143665
30.5354
-0.21704
30.7823
-0.291389
31.0329
-0.366669
31.2873
-0.442835
31.5457
-0.519845
31.8082
-0.597653
32.0749
-0.676215
32.3458
-0.755484
32.621
-0.835415
32.9006
-0.91596
33.1847
-0.997072
33.4734
-1.0787
33.7667
-1.16081
34.0647
-1.24333
34.3674
-1.32623
34.675
-1.40945
34.9874
-1.49294
35.3046
-1.57667
35.6269
-1.66056
35.954
-1.74458
36.2862
-1.82867
36.6235
-1.91279
36.9658
-1.99687
37.3131
-2.08088
37.6656
-2.16476
38.0231
-2.24845
38.3858
-2.33192
38.7535
-2.4151
39.1263
-2.49795
39.5043
-2.58041
39.8872
-2.66244
40.2755
-2.74397
40.668
-2.82502
41.0681
-2.90531
41.4649
-2.98552
41.8923
-3.06327
-3.14587
42.2462
21.5323
1.7788
-21.358
21.7091
1.76545
21.8875
1.75059
22.0668
1.73416
22.2469
1.7161
22.4274
1.69636
22.6081
1.67492
22.789
1.65173
22.9698
1.62678
23.1505
1.60004
23.3312
1.57151
23.5117
1.54116
23.6922
1.509
23.8726
1.47502
24.0531
1.43922
24.2336
1.4016
24.4144
1.36218
24.5955
1.32096
24.777
1.27794
24.959
1.23315
25.1417
1.1866
25.3251
1.13831
25.5095
1.08829
25.6949
1.03657
25.8815
0.983164
26.0694
0.928104
26.2587
0.871413
26.4497
0.813116
26.6424
0.753244
26.8369
0.691826
27.0335
0.628892
27.2322
0.564475
27.4333
0.498609
27.6367
0.431328
27.8427
0.362667
28.0513
0.292665
28.2628
0.221357
28.4772
0.148784
28.6946
0.0749845
28.9152
0
29.1391
-0.0761281
29.3664
-0.153357
29.5971
-0.231644
29.8315
-0.310945
30.0696
-0.391215
30.3115
-0.472407
30.5573
-0.554476
30.8071
-0.637375
31.0609
-0.721056
31.3189
-0.80547
31.5812
-0.89057
31.8477
-0.976304
32.1186
-1.06262
32.394
-1.14948
32.6739
-1.23682
32.9584
-1.32459
33.2474
-1.41274
33.5412
-1.50122
33.8397
-1.58998
34.1429
-1.67897
34.4509
-1.76812
34.7638
-1.85739
35.0815
-1.94673
35.4041
-2.03607
35.7316
-2.12538
36.064
-2.21458
36.4014
-2.30364
36.7437
-2.39249
37.0909
-2.48109
37.4431
-2.56937
37.8002
-2.65729
38.1622
-2.74479
38.5291
-2.83182
38.9011
-2.91831
39.2772
-3.00428
39.6607
-3.08943
40.0411
-3.17448
40.4505
-3.25695
-3.34443
40.7907
21.1499
1.91245
-20.9876
21.3142
1.89727
21.4795
1.88046
21.6455
1.86196
21.812
1.84172
21.9787
1.81971
22.1456
1.79588
22.3126
1.77023
22.4796
1.74271
22.6465
1.71333
22.8134
1.68205
22.9802
1.64889
23.1471
1.61382
23.3141
1.57686
23.4813
1.53799
23.6486
1.49724
23.8163
1.4546
23.9845
1.41008
24.1532
1.3637
24.3225
1.31547
24.4926
1.26541
24.6636
1.21353
24.8356
1.15986
25.0088
1.10441
25.1833
1.04722
25.3591
0.988299
25.5366
0.927685
25.7156
0.865402
25.8965
0.801481
26.0793
0.735952
26.2642
0.668848
26.4513
0.600202
26.6407
0.530051
26.8325
0.458429
27.0269
0.385375
27.224
0.310927
27.4239
0.235124
27.6267
0.158007
27.8325
0.0796185
28.0415
0
28.2537
-0.0808044
28.4693
-0.16275
28.6883
-0.245792
28.9109
-0.329883
29.1372
-0.414977
29.3671
-0.501027
29.6009
-0.587981
29.8386
-0.675794
30.0804
-0.764412
30.3261
-0.853787
30.576
-0.943867
30.8302
-1.0346
31.0886
-1.12593
31.3513
-1.21781
31.6184
-1.31019
31.89
-1.40301
32.1661
-1.49621
32.4467
-1.58974
32.7319
-1.68355
33.0217
-1.77758
33.3162
-1.87178
33.6154
-1.96609
33.9193
-2.06045
34.228
-2.15481
34.5414
-2.24911
34.8595
-2.3433
35.1825
-2.43731
35.5102
-2.5311
35.8427
-2.6246
36.18
-2.71776
36.522
-2.81052
36.8689
-2.90283
37.2204
-2.99464
37.5769
-3.08586
37.9373
-3.17652
38.3048
-3.26631
38.6696
-3.35598
39.0618
-3.44295
-3.53507
39.3887
20.7648
2.04486
-20.6142
20.9168
2.02775
21.0696
2.00889
21.2228
1.98824
21.3764
1.96576
21.5302
1.9414
21.684
1.91515
21.8379
1.88697
21.9919
1.85686
22.1459
1.82478
22.2999
1.79075
22.454
1.75474
22.6082
1.71676
22.7626
1.6768
22.9173
1.63488
23.0724
1.59099
23.2279
1.54514
23.384
1.49735
23.5407
1.44763
23.6982
1.39599
23.8566
1.34245
24.016
1.28703
24.1765
1.22975
24.3382
1.17064
24.5013
1.10971
24.6659
1.047
24.8321
0.982539
25.0001
0.916347
25.1699
0.848459
25.3416
0.778908
25.5155
0.707728
25.6916
0.634954
25.8701
0.560622
26.051
0.48477
26.2345
0.407437
26.4206
0.328663
26.6096
0.248489
26.8015
0.166958
26.9964
0.0841139
27.1944
0
27.3956
-0.0853377
27.6001
-0.171853
27.808
-0.259498
28.0194
-0.348224
28.2345
-0.437984
28.4531
-0.528726
28.6756
-0.6204
28.9019
-0.712954
29.132
-0.806336
29.3662
-0.900495
29.6044
-0.995374
29.8467
-1.09092
30.0932
-1.18708
30.3439
-1.2838
30.5989
-1.38102
30.8582
-1.47869
31.1219
-1.57674
31.39
-1.67513
31.6626
-1.77379
31.9397
-1.87267
32.2212
-1.9717
32.5074
-2.07084
32.7981
-2.17002
33.0934
-2.26918
33.3933
-2.36827
33.6979
-2.46722
34.0071
-2.56598
34.3209
-2.66448
34.6393
-2.76268
34.9624
-2.8605
35.29
-2.9579
35.6223
-3.0548
35.9592
-3.15116
36.3008
-3.2469
36.6462
-3.34204
36.9985
-3.43626
37.3482
-3.53032
37.7239
-3.6216
-3.71811
38.0383
20.3773
2.1759
-20.2382
20.5176
2.15677
20.6584
2.13579
20.7995
2.11292
20.9408
2.08812
21.0824
2.06137
21.224
2.03264
21.3657
2.0019
21.5074
1.96915
21.6493
1.93437
21.7913
1.89755
21.9335
1.85869
22.0759
1.81779
22.2186
1.77484
22.3617
1.72986
22.5052
1.68285
22.6494
1.63381
22.7942
1.58277
22.9397
1.52973
23.0862
1.47472
23.2336
1.41774
23.3821
1.35883
23.5318
1.29799
23.6829
1.23527
23.8353
1.17068
23.9894
1.10424
24.1451
1.036
24.3026
0.965978
24.462
0.894207
24.6234
0.820723
24.787
0.745559
24.9528
0.668754
25.1209
0.590344
25.2915
0.510369
25.4648
0.428869
25.6406
0.345887
25.8193
0.261464
26.0009
0.175645
26.1854
0.0884749
26.373
-1.79015e-07
26.5638
-0.0897323
26.7579
-0.180674
26.9553
-0.272776
27.1562
-0.365988
27.3605
-0.460258
27.5685
-0.555536
27.7802
-0.651768
27.9956
-0.748901
28.2148
-0.846879
28.4379
-0.94565
28.665
-1.04516
28.8961
-1.14534
29.1312
-1.24615
29.3705
-1.34752
29.6139
-1.4494
29.8616
-1.55173
30.1135
-1.65445
30.3697
-1.7575
30.6302
-1.86082
30.8951
-1.96435
31.1644
-2.06803
31.4381
-2.1718
31.7163
-2.27559
31.9989
-2.37936
32.286
-2.48303
32.5775
-2.58654
32.8735
-2.68984
33.174
-2.79287
33.479
-2.89555
33.7885
-2.99783
34.1024
-3.09965
34.4208
-3.20094
34.7436
-3.30166
35.071
-3.40171
35.4021
-3.50112
35.7397
-3.59957
36.0751
-3.69782
36.4351
-3.79319
-3.89388
36.7373
19.9882
2.30544
-19.8601
20.1172
2.28421
20.2465
2.26103
20.3762
2.23588
20.506
2.20873
20.636
2.17954
20.7661
2.14829
20.8963
2.11497
21.0267
2.07956
21.1573
2.04205
21.288
2.00244
21.4191
1.96072
21.5505
1.91689
21.6823
1.87096
21.8145
1.82293
21.9474
1.77281
22.0809
1.72061
22.2152
1.66634
22.3503
1.61003
22.4864
1.55167
22.6236
1.4913
22.762
1.42894
22.9016
1.36461
23.0426
1.29833
23.1852
1.23013
23.3293
1.16004
23.4752
1.0881
23.6229
1.01432
23.7725
0.93875
23.9242
0.861419
24.0781
0.782365
24.2342
0.701625
24.3926
0.619239
24.5536
0.535246
24.7171
0.44969
24.8833
0.362613
25.0523
0.274059
25.2241
0.184074
25.3988
0.0927054
25.5767
0
25.7576
-0.0939931
25.9418
-0.189224
26.1293
-0.285641
26.3201
-0.383192
26.5144
-0.481826
26.7122
-0.581487
26.9137
-0.682122
27.1188
-0.783675
27.3276
-0.886089
27.5403
-0.989309
27.7568
-1.09327
27.9772
-1.19793
28.2015
-1.30321
28.4299
-1.40907
28.6624
-1.51543
28.8989
-1.62225
29.1396
-1.72945
29.3845
-1.83697
29.6335
-1.94477
29.8868
-2.05276
30.1444
-2.1609
30.4062
-2.26911
30.6724
-2.37733
30.9428
-2.48551
31.2176
-2.59357
31.4968
-2.70146
31.7802
-2.80911
32.068
-2.91645
32.3602
-3.02342
32.6566
-3.12997
32.9574
-3.23601
33.2625
-3.3415
33.5719
-3.44638
33.8857
-3.55055
34.2031
-3.65403
34.5267
-3.75651
34.8484
-3.85875
35.1932
-3.95804
-4.0627
35.4838
19.5978
2.43335
-19.4803
19.7161
2.40996
19.8347
2.38453
19.9535
2.35706
20.0725
2.3275
20.1917
2.29583
20.311
2.26204
20.4306
2.22611
20.5503
2.18803
20.6703
2.14778
20.7906
2.10537
20.9113
2.0608
21.0324
2.01405
21.154
1.96515
21.2762
1.91409
21.399
1.86088
21.5226
1.80555
21.6471
1.74809
21.7725
1.68852
21.899
1.62687
22.0266
1.56316
22.1555
1.4974
22.2857
1.42962
22.4173
1.35985
22.5506
1.28811
22.6854
1.21443
22.8221
1.13885
22.9606
1.0614
23.1011
0.982114
23.2436
0.901024
23.3884
0.818169
23.5354
0.73359
23.6847
0.647327
23.8366
0.559421
23.991
0.469916
24.148
0.378855
24.3078
0.286286
24.4704
0.192255
24.636
0.0968096
24.8045
0
24.9762
-0.0981235
25.151
-0.19751
25.329
-0.298105
25.5104
-0.399857
25.6952
-0.50271
25.8834
-0.606609
26.0751
-0.711498
26.2704
-0.817318
26.4694
-0.924013
26.6721
-1.03152
26.8786
-1.13979
27.0888
-1.24875
27.3029
-1.35835
27.521
-1.46851
27.743
-1.57919
27.9689
-1.69032
28.1989
-1.80183
28.433
-1.91366
28.6711
-2.02575
28.9133
-2.13804
29.1597
-2.25045
29.4103
-2.36292
29.665
-2.47539
29.9238
-2.5878
30.1869
-2.70007
30.4542
-2.81214
30.7257
-2.92395
31.0013
-3.03542
31.2812
-3.14651
31.5652
-3.25712
31.8535
-3.36722
32.1459
-3.47671
32.4424
-3.58556
32.7432
-3.69366
33.0475
-3.80103
33.3577
-3.90735
33.6662
-4.0134
33.9966
-4.11643
-4.22484
34.2761
19.2069
2.55954
-19.0994
19.315
2.53393
19.4235
2.50621
19.5321
2.47637
19.641
2.44438
19.75
2.41021
19.8593
2.37386
19.9689
2.3353
20.0787
2.29454
20.1888
2.25155
20.2994
2.20634
20.4104
2.15892
20.5219
2.10927
20.634
2.05741
20.7468
2.00334
20.8603
1.94707
20.9747
1.88862
21.09
1.82801
21.2064
1.76524
21.3238
1.70033
21.4425
1.63332
21.5625
1.56421
21.6839
1.49304
21.8068
1.41984
21.9313
1.34463
22.0575
1.26743
22.1855
1.1883
22.3154
1.10725
22.4473
1.02432
22.5813
0.939561
22.7174
0.852997
22.8558
0.764672
22.9966
0.674629
23.1399
0.582911
23.2857
0.489562
23.4341
0.394628
23.5853
0.298155
23.7392
0.200193
23.8961
0.100791
24.0559
0
24.2187
-0.102128
24.3846
-0.20554
24.5538
-0.310182
24.7262
-0.415998
24.9019
-0.522933
25.081
-0.630929
25.2635
-0.739927
25.4496
-0.84987
25.6392
-0.960696
25.8324
-1.07235
26.0293
-1.18476
26.2299
-1.29787
26.4343
-1.41162
26.6425
-1.52594
26.8545
-1.64077
27.0704
-1.75605
27.2902
-1.8717
27.514
-1.98767
27.7417
-2.10389
27.9734
-2.22029
28.2091
-2.33681
28.4488
-2.45337
28.6926
-2.56991
28.9405
-2.68637
29.1923
-2.80267
29.4483
-2.91876
29.7083
-3.03455
29.9724
-3.14998
30.2405
-3.26499
30.5127
-3.37951
30.7889
-3.49346
31.0692
-3.60679
31.3534
-3.71942
31.6417
-3.83128
31.9335
-3.94236
32.2309
-4.05235
32.5269
-4.16202
32.8435
-4.26861
-4.3806
33.1122
18.816
2.68392
-18.718
18.9146
2.65604
19.0135
2.626
19.1126
2.59376
19.212
2.55931
19.3116
2.52263
19.4115
2.4837
19.5117
2.44251
19.6123
2.39906
19.7133
2.35333
19.8147
2.30534
19.9167
2.25507
20.0193
2.20253
20.1226
2.14773
20.2266
2.09068
20.3315
2.03138
20.4372
1.96986
20.544
1.90612
20.6519
1.84018
20.7609
1.77207
20.8713
1.70181
20.983
1.62941
21.0961
1.55491
21.2108
1.47834
21.3272
1.39972
21.4452
1.31908
21.5651
1.23646
21.6869
1.15189
21.8108
1.06541
21.9367
0.977056
22.0648
0.88687
22.1951
0.794893
22.3279
0.701166
22.463
0.605735
22.6007
0.508645
22.741
0.409942
22.884
0.309676
23.0298
0.207896
23.1784
0.104653
23.3299
0
23.4844
-0.106011
23.642
-0.213324
23.8027
-0.321884
23.9666
-0.431635
24.1337
-0.542517
24.3042
-0.654473
24.478
-0.767443
24.6553
-0.881366
24.836
-0.996181
25.0202
-1.11182
25.2081
-1.22823
25.3995
-1.34535
25.5946
-1.4631
25.7934
-1.58142
25.996
-1.70025
26.2023
-1.81951
26.4124
-1.93916
26.6263
-2.0591
26.8441
-2.17929
27.0657
-2.29964
27.2913
-2.4201
27.5207
-2.54058
27.7541
-2.66103
27.9914
-2.78138
28.2326
-2.90155
28.4777
-3.02147
28.7268
-3.14108
28.9798
-3.2603
29.2367
-3.37907
29.4976
-3.49731
29.7623
-3.61496
30.0309
-3.73194
30.3034
-3.8482
30.5799
-3.96363
30.8596
-4.07826
31.1448
-4.19175
31.4287
-4.30488
31.7321
-4.41487
-4.53025
31.9906
18.4257
2.8064
-18.3367
18.5154
2.77623
18.6053
2.74383
18.6955
2.70918
18.786
2.67225
18.8768
2.63304
18.968
2.59153
19.0595
2.54771
19.1515
2.50157
19.2439
2.45312
19.3369
2.40234
19.4305
2.34925
19.5248
2.29384
19.6198
2.23613
19.7157
2.17612
19.8125
2.11383
19.9102
2.04926
20.0091
1.98244
20.109
1.91339
20.2102
1.84212
20.3128
1.76865
20.4167
1.69302
20.5222
1.61525
20.6292
1.53537
20.7379
1.4534
20.8483
1.36939
20.9606
1.28335
21.0749
1.19534
21.1911
1.10539
21.3095
1.01353
21.43
0.919813
21.5528
0.824274
21.6779
0.726957
21.8055
0.627911
21.9355
0.52718
22.0682
0.424813
22.2035
0.32086
22.3415
0.215371
22.4824
0.108401
22.6261
-1.78916e-07
22.7727
-0.109775
22.9223
-0.220868
23.075
-0.333223
23.2309
-0.446781
23.3899
-0.561483
23.5521
-0.677269
23.7177
-0.794076
23.8866
-0.911844
24.0588
-1.03051
24.2346
-1.15001
24.4138
-1.27027
24.5965
-1.39124
24.7828
-1.51285
24.9727
-1.63502
25.1662
-1.7577
25.3634
-1.88081
25.5642
-2.00428
25.7688
-2.12805
25.9771
-2.25205
26.1892
-2.3762
26.405
-2.50044
26.6246
-2.62469
26.8481
-2.74889
27.0753
-2.87296
27.3063
-2.99683
27.5411
-3.12044
27.7797
-3.2437
28.0222
-3.36654
28.2684
-3.48891
28.5184
-3.61071
28.7722
-3.7319
29.0297
-3.85238
29.2909
-3.97209
29.556
-4.09095
29.8243
-4.20896
30.0978
-4.32578
30.3701
-4.44221
30.6609
-4.55544
-4.67404
30.9095
18.0367
2.92693
-17.956
18.1179
2.89444
18.1995
2.85966
18.2814
2.82257
18.3636
2.78317
18.4462
2.74142
18.5292
2.69733
18.6127
2.65088
18.6966
2.60207
18.7811
2.5509
18.8662
2.49736
18.952
2.44146
19.0386
2.38321
19.126
2.32261
19.2142
2.25968
19.3035
2.19442
19.3938
2.12685
19.4852
2.057
19.5778
1.98487
19.6717
1.91049
19.7669
1.83388
19.8636
1.75507
19.9619
1.67408
20.0617
1.59096
20.1633
1.50571
20.2666
1.41839
20.3717
1.32902
20.4789
1.23764
20.588
1.14429
20.6992
1.04902
20.8126
0.951849
20.9283
0.852836
21.0463
0.752022
21.1667
0.649455
21.2896
0.545181
21.415
0.439251
21.543
0.331715
21.6738
0.222625
21.8072
0.112035
21.9435
0
22.0827
-0.113425
22.2249
-0.228181
22.37
-0.344211
22.5182
-0.461455
22.6695
-0.579852
22.824
-0.69934
22.9817
-0.819857
23.1426
-0.941339
23.3069
-1.06372
23.4745
-1.18694
23.6455
-1.31092
23.8199
-1.43561
23.9978
-1.56093
24.1792
-1.68682
24.3641
-1.8132
24.5526
-1.94
24.7447
-2.06716
24.9404
-2.19461
25.1397
-2.32227
25.3426
-2.45007
25.5492
-2.57794
25.7594
-2.70581
25.9733
-2.83361