/*--------------------------------*- C++ -*----------------------------------*\
| =========                 |                                                 |
| \\      /  F ield         | OpenFOAM: The Open Source CFD Toolbox           |
|  \\    /   O peration     | Version:  2312                                  |
|   \\  /    A nd           | Website:  www.openfoam.com                      |
|    \\/     M anipulation  |                                                 |
\*---------------------------------------------------------------------------*/
FoamFile
{
    version     2.0;
    format      ascii;
    arch        "LSB;label=32;scalar=64";
    class       volVectorField;
    location    "2.4";
    object      flux;
}
// * * * * * * * * * * * * * * * * * * * * * * * * * * * * * * * * * * * * * //

dimensions      [0 1 -1 1 0 0 0];

internalField   nonuniform List<vector> 
100
(
(1.10002 0 0)
(0.813383 0 0)
(0.544526 0 0)
(0.292884 0 0)
(0.0578851 0 0)
(-0.161043 0 0)
(-0.364474 0 0)
(-0.552977 0 0)
(-0.727122 0 0)
(-0.887473 0 0)
(-1.03459 0 0)
(-1.16903 0 0)
(-1.29133 0 0)
(-1.40203 0 0)
(-1.50167 0 0)
(-1.59077 0 0)
(-1.66983 0 0)
(-1.73935 0 0)
(-1.79984 0 0)
(-1.85175 0 0)
(-1.89557 0 0)
(-1.93175 0 0)
(-1.96072 0 0)
(-1.98291 0 0)
(-1.99875 0 0)
(-2.00864 0 0)
(-2.01296 0 0)
(-2.01209 0 0)
(-2.00641 0 0)
(-1.99625 0 0)
(-1.98196 0 0)
(-1.96387 0 0)
(-1.94228 0 0)
(-1.91749 0 0)
(-1.8898 0 0)
(-1.85948 0 0)
(-1.82678 0 0)
(-1.79196 0 0)
(-1.75526 0 0)
(-1.7169 0 0)
(-1.67711 0 0)
(-1.63607 0 0)
(-1.59399 0 0)
(-1.55104 0 0)
(-1.50741 0 0)
(-1.46324 0 0)
(-1.4187 0 0)
(-1.37393 0 0)
(-1.32905 0 0)
(-1.28419 0 0)
(-1.23948 0 0)
(-1.195 0 0)
(-1.15087 0 0)
(-1.10718 0 0)
(-1.064 0 0)
(-1.02142 0 0)
(-0.979495 0 0)
(-0.9383 0 0)
(-0.897886 0 0)
(-0.858303 0 0)
(-0.819594 0 0)
(-0.7818 0 0)
(-0.74495 0 0)
(-0.709075 0 0)
(-0.674195 0 0)
(-0.64033 0 0)
(-0.607491 0 0)
(-0.57569 0 0)
(-0.54493 0 0)
(-0.515213 0 0)
(-0.486536 0 0)
(-0.458895 0 0)
(-0.432279 0 0)
(-0.406677 0 0)
(-0.382073 0 0)
(-0.35845 0 0)
(-0.335787 0 0)
(-0.314062 0 0)
(-0.293249 0 0)
(-0.273321 0 0)
(-0.25425 0 0)
(-0.236003 0 0)
(-0.218548 0 0)
(-0.201851 0 0)
(-0.185876 0 0)
(-0.170586 0 0)
(-0.155941 0 0)
(-0.141903 0 0)
(-0.12843 0 0)
(-0.115481 0 0)
(-0.103013 0 0)
(-0.0909822 0 0)
(-0.0793448 0 0)
(-0.0680558 0 0)
(-0.05707 0 0)
(-0.0463414 0 0)
(-0.0358239 0 0)
(-0.0254708 0 0)
(-0.0152354 0 0)
(-0.0050706 0 0)
)
;

boundaryField
{
    movingWall
    {
        type            calculated;
        value           uniform (1.24786 0 0);
    }
    fixedWalls
    {
        type            calculated;
        value           nonuniform List<vector> 
201
(
(1.10002 0 0)
(0.813383 0 0)
(0.544526 0 0)
(0.292884 0 0)
(0.0578851 0 0)
(-0.161043 0 0)
(-0.364474 0 0)
(-0.552977 0 0)
(-0.727122 0 0)
(-0.887473 0 0)
(-1.03459 0 0)
(-1.16903 0 0)
(-1.29133 0 0)
(-1.40203 0 0)
(-1.50167 0 0)
(-1.59077 0 0)
(-1.66983 0 0)
(-1.73935 0 0)
(-1.79984 0 0)
(-1.85175 0 0)
(-1.89557 0 0)
(-1.93175 0 0)
(-1.96072 0 0)
(-1.98291 0 0)
(-1.99875 0 0)
(-2.00864 0 0)
(-2.01296 0 0)
(-2.01209 0 0)
(-2.00641 0 0)
(-1.99625 0 0)
(-1.98196 0 0)
(-1.96387 0 0)
(-1.94228 0 0)
(-1.91749 0 0)
(-1.8898 0 0)
(-1.85948 0 0)
(-1.82678 0 0)
(-1.79196 0 0)
(-1.75526 0 0)
(-1.7169 0 0)
(-1.67711 0 0)
(-1.63607 0 0)
(-1.59399 0 0)
(-1.55104 0 0)
(-1.50741 0 0)
(-1.46324 0 0)
(-1.4187 0 0)
(-1.37393 0 0)
(-1.32905 0 0)
(-1.28419 0 0)
(-1.23948 0 0)
(-1.195 0 0)
(-1.15087 0 0)
(-1.10718 0 0)
(-1.064 0 0)
(-1.02142 0 0)
(-0.979495 0 0)
(-0.9383 0 0)
(-0.897886 0 0)
(-0.858303 0 0)
(-0.819594 0 0)
(-0.7818 0 0)
(-0.74495 0 0)
(-0.709075 0 0)
(-0.674195 0 0)
(-0.64033 0 0)
(-0.607491 0 0)
(-0.57569 0 0)
(-0.54493 0 0)
(-0.515213 0 0)
(-0.486536 0 0)
(-0.458895 0 0)
(-0.432279 0 0)
(-0.406677 0 0)
(-0.382073 0 0)
(-0.35845 0 0)
(-0.335787 0 0)
(-0.314062 0 0)
(-0.293249 0 0)
(-0.273321 0 0)
(-0.25425 0 0)
(-0.236003 0 0)
(-0.218548 0 0)
(-0.201851 0 0)
(-0.185876 0 0)
(-0.170586 0 0)
(-0.155941 0 0)
(-0.141903 0 0)
(-0.12843 0 0)
(-0.115481 0 0)
(-0.103013 0 0)
(-0.0909822 0 0)
(-0.0793448 0 0)
(-0.0680558 0 0)
(-0.05707 0 0)
(-0.0463414 0 0)
(-0.0358239 0 0)
(-0.0254708 0 0)
(-0.0152354 0 0)
(-0.0050706 0 0)
(0 0 0)
(1.10002 0 0)
(0.813383 0 0)
(0.544526 0 0)
(0.292884 0 0)
(0.0578851 0 0)
(-0.161043 0 0)
(-0.364474 0 0)
(-0.552977 0 0)
(-0.727122 0 0)
(-0.887473 0 0)
(-1.03459 0 0)
(-1.16903 0 0)
(-1.29133 0 0)
(-1.40203 0 0)
(-1.50167 0 0)
(-1.59077 0 0)
(-1.66983 0 0)
(-1.73935 0 0)
(-1.79984 0 0)
(-1.85175 0 0)
(-1.89557 0 0)
(-1.93175 0 0)
(-1.96072 0 0)
(-1.98291 0 0)
(-1.99875 0 0)
(-2.00864 0 0)
(-2.01296 0 0)
(-2.01209 0 0)
(-2.00641 0 0)
(-1.99625 0 0)
(-1.98196 0 0)
(-1.96387 0 0)
(-1.94228 0 0)
(-1.91749 0 0)
(-1.8898 0 0)
(-1.85948 0 0)
(-1.82678 0 0)
(-1.79196 0 0)
(-1.75526 0 0)
(-1.7169 0 0)
(-1.67711 0 0)
(-1.63607 0 0)
(-1.59399 0 0)
(-1.55104 0 0)
(-1.50741 0 0)
(-1.46324 0 0)
(-1.4187 0 0)
(-1.37393 0 0)
(-1.32905 0 0)
(-1.28419 0 0)
(-1.23948 0 0)
(-1.195 0 0)
(-1.15087 0 0)
(-1.10718 0 0)
(-1.064 0 0)
(-1.02142 0 0)
(-0.979495 0 0)
(-0.9383 0 0)
(-0.897886 0 0)
(-0.858303 0 0)
(-0.819594 0 0)
(-0.7818 0 0)
(-0.74495 0 0)
(-0.709075 0 0)
(-0.674195 0 0)
(-0.64033 0 0)
(-0.607491 0 0)
(-0.57569 0 0)
(-0.54493 0 0)
(-0.515213 0 0)
(-0.486536 0 0)
(-0.458895 0 0)
(-0.432279 0 0)
(-0.406677 0 0)
(-0.382073 0 0)
(-0.35845 0 0)
(-0.335787 0 0)
(-0.314062 0 0)
(-0.293249 0 0)
(-0.273321 0 0)
(-0.25425 0 0)
(-0.236003 0 0)
(-0.218548 0 0)
(-0.201851 0 0)
(-0.185876 0 0)
(-0.170586 0 0)
(-0.155941 0 0)
(-0.141903 0 0)
(-0.12843 0 0)
(-0.115481 0 0)
(-0.103013 0 0)
(-0.0909822 0 0)
(-0.0793448 0 0)
(-0.0680558 0 0)
(-0.05707 0 0)
(-0.0463414 0 0)
(-0.0358239 0 0)
(-0.0254708 0 0)
(-0.0152354 0 0)
(-0.0050706 0 0)
)
;
    }
    frontAndBack
    {
        type            empty;
    }
}


// ************************************************************************* //
