/*--------------------------------*- C++ -*----------------------------------*\
| =========                 |                                                 |
| \\      /  F ield         | OpenFOAM: The Open Source CFD Toolbox           |
|  \\    /   O peration     | Version:  2312                                  |
|   \\  /    A nd           | Website:  www.openfoam.com                      |
|    \\/     M anipulation  |                                                 |
\*---------------------------------------------------------------------------*/
FoamFile
{
    version     2.0;
    format      ascii;
    arch        "LSB;label=32;scalar=64";
    class       volScalarField;
    location    "2.4";
    object      gradTx;
}
// * * * * * * * * * * * * * * * * * * * * * * * * * * * * * * * * * * * * * //

dimensions      [0 -1 0 1 0 0 0];

internalField   nonuniform List<scalar> 
100
(
1.10002
0.813383
0.544526
0.292884
0.0578851
-0.161043
-0.364474
-0.552977
-0.727122
-0.887473
-1.03459
-1.16903
-1.29133
-1.40203
-1.50167
-1.59077
-1.66983
-1.73935
-1.79984
-1.85175
-1.89557
-1.93175
-1.96072
-1.98291
-1.99875
-2.00864
-2.01296
-2.01209
-2.00641
-1.99625
-1.98196
-1.96387
-1.94228
-1.91749
-1.8898
-1.85948
-1.82678
-1.79196
-1.75526
-1.7169
-1.67711
-1.63607
-1.59399
-1.55104
-1.50741
-1.46324
-1.4187
-1.37393
-1.32905
-1.28419
-1.23948
-1.195
-1.15087
-1.10718
-1.064
-1.02142
-0.979495
-0.9383
-0.897886
-0.858303
-0.819594
-0.7818
-0.74495
-0.709075
-0.674195
-0.64033
-0.607491
-0.57569
-0.54493
-0.515213
-0.486536
-0.458895
-0.432279
-0.406677
-0.382073
-0.35845
-0.335787
-0.314062
-0.293249
-0.273321
-0.25425
-0.236003
-0.218548
-0.201851
-0.185876
-0.170586
-0.155941
-0.141903
-0.12843
-0.115481
-0.103013
-0.0909822
-0.0793448
-0.0680558
-0.05707
-0.0463414
-0.0358239
-0.0254708
-0.0152354
-0.0050706
)
;

boundaryField
{
    movingWall
    {
        type            calculated;
        value           uniform 1.24786;
    }
    fixedWalls
    {
        type            calculated;
        value           nonuniform List<scalar> 
201
(
1.10002
0.813383
0.544526
0.292884
0.0578851
-0.161043
-0.364474
-0.552977
-0.727122
-0.887473
-1.03459
-1.16903
-1.29133
-1.40203
-1.50167
-1.59077
-1.66983
-1.73935
-1.79984
-1.85175
-1.89557
-1.93175
-1.96072
-1.98291
-1.99875
-2.00864
-2.01296
-2.01209
-2.00641
-1.99625
-1.98196
-1.96387
-1.94228
-1.91749
-1.8898
-1.85948
-1.82678
-1.79196
-1.75526
-1.7169
-1.67711
-1.63607
-1.59399
-1.55104
-1.50741
-1.46324
-1.4187
-1.37393
-1.32905
-1.28419
-1.23948
-1.195
-1.15087
-1.10718
-1.064
-1.02142
-0.979495
-0.9383
-0.897886
-0.858303
-0.819594
-0.7818
-0.74495
-0.709075
-0.674195
-0.64033
-0.607491
-0.57569
-0.54493
-0.515213
-0.486536
-0.458895
-0.432279
-0.406677
-0.382073
-0.35845
-0.335787
-0.314062
-0.293249
-0.273321
-0.25425
-0.236003
-0.218548
-0.201851
-0.185876
-0.170586
-0.155941
-0.141903
-0.12843
-0.115481
-0.103013
-0.0909822
-0.0793448
-0.0680558
-0.05707
-0.0463414
-0.0358239
-0.0254708
-0.0152354
-0.0050706
0
1.10002
0.813383
0.544526
0.292884
0.0578851
-0.161043
-0.364474
-0.552977
-0.727122
-0.887473
-1.03459
-1.16903
-1.29133
-1.40203
-1.50167
-1.59077
-1.66983
-1.73935
-1.79984
-1.85175
-1.89557
-1.93175
-1.96072
-1.98291
-1.99875
-2.00864
-2.01296
-2.01209
-2.00641
-1.99625
-1.98196
-1.96387
-1.94228
-1.91749
-1.8898
-1.85948
-1.82678
-1.79196
-1.75526
-1.7169
-1.67711
-1.63607
-1.59399
-1.55104
-1.50741
-1.46324
-1.4187
-1.37393
-1.32905
-1.28419
-1.23948
-1.195
-1.15087
-1.10718
-1.064
-1.02142
-0.979495
-0.9383
-0.897886
-0.858303
-0.819594
-0.7818
-0.74495
-0.709075
-0.674195
-0.64033
-0.607491
-0.57569
-0.54493
-0.515213
-0.486536
-0.458895
-0.432279
-0.406677
-0.382073
-0.35845
-0.335787
-0.314062
-0.293249
-0.273321
-0.25425
-0.236003
-0.218548
-0.201851
-0.185876
-0.170586
-0.155941
-0.141903
-0.12843
-0.115481
-0.103013
-0.0909822
-0.0793448
-0.0680558
-0.05707
-0.0463414
-0.0358239
-0.0254708
-0.0152354
-0.0050706
)
;
    }
    frontAndBack
    {
        type            empty;
    }
}


// ************************************************************************* //
