/*--------------------------------*- C++ -*----------------------------------*\
| =========                 |                                                 |
| \\      /  F ield         | OpenFOAM: The Open Source CFD Toolbox           |
|  \\    /   O peration     | Version:  2312                                  |
|   \\  /    A nd           | Website:  www.openfoam.com                      |
|    \\/     M anipulation  |                                                 |
\*---------------------------------------------------------------------------*/
FoamFile
{
    version     2.0;
    format      ascii;
    arch        "LSB;label=32;scalar=64";
    class       volVectorField;
    location    "2.9";
    object      flux;
}
// * * * * * * * * * * * * * * * * * * * * * * * * * * * * * * * * * * * * * //

dimensions      [0 1 -1 1 0 0 0];

internalField   nonuniform List<vector> 
100
(
(-0.98489 0 0)
(-0.698279 0 0)
(-0.429479 0 0)
(-0.177922 0 0)
(0.0569629 0 0)
(0.275749 0 0)
(0.479009 0 0)
(0.667314 0 0)
(0.841233 0 0)
(1.00133 0 0)
(1.14816 0 0)
(1.28229 0 0)
(1.40425 0 0)
(1.51459 0 0)
(1.61383 0 0)
(1.7025 0 0)
(1.78112 0 0)
(1.85017 0 0)
(1.91014 0 0)
(1.96153 0 0)
(2.00479 0 0)
(2.04038 0 0)
(2.06873 0 0)
(2.09029 0 0)
(2.10546 0 0)
(2.11466 0 0)
(2.11826 0 0)
(2.11665 0 0)
(2.11019 0 0)
(2.09924 0 0)
(2.08413 0 0)
(2.06519 0 0)
(2.04273 0 0)
(2.01705 0 0)
(1.98844 0 0)
(1.95717 0 0)
(1.9235 0 0)
(1.88769 0 0)
(1.84997 0 0)
(1.81058 0 0)
(1.76971 0 0)
(1.72759 0 0)
(1.6844 0 0)
(1.64033 0 0)
(1.59554 0 0)
(1.5502 0 0)
(1.50446 0 0)
(1.45847 0 0)
(1.41235 0 0)
(1.36624 0 0)
(1.32024 0 0)
(1.27447 0 0)
(1.22902 0 0)
(1.18399 0 0)
(1.13946 0 0)
(1.0955 0 0)
(1.05218 0 0)
(1.00958 0 0)
(0.967732 0 0)
(0.926703 0 0)
(0.886532 0 0)
(0.847257 0 0)
(0.808912 0 0)
(0.771525 0 0)
(0.735119 0 0)
(0.699711 0 0)
(0.665316 0 0)
(0.631944 0 0)
(0.599599 0 0)
(0.568284 0 0)
(0.537996 0 0)
(0.50873 0 0)
(0.480478 0 0)
(0.453228 0 0)
(0.426964 0 0)
(0.40167 0 0)
(0.377326 0 0)
(0.353909 0 0)
(0.331395 0 0)
(0.309756 0 0)
(0.288965 0 0)
(0.268989 0 0)
(0.249798 0 0)
(0.231357 0 0)
(0.21363 0 0)
(0.196581 0 0)
(0.180172 0 0)
(0.164363 0 0)
(0.149114 0 0)
(0.134383 0 0)
(0.120129 0 0)
(0.106308 0 0)
(0.0928763 0 0)
(0.0797899 0 0)
(0.0670037 0 0)
(0.0544724 0 0)
(0.04215 0 0)
(0.0299906 0 0)
(0.0179477 0 0)
(0.00597478 0 0)
)
;

boundaryField
{
    movingWall
    {
        type            calculated;
        value           uniform (-1.13272 0 0);
    }
    fixedWalls
    {
        type            calculated;
        value           nonuniform List<vector> 
201
(
(-0.98489 0 0)
(-0.698279 0 0)
(-0.429479 0 0)
(-0.177922 0 0)
(0.0569629 0 0)
(0.275749 0 0)
(0.479009 0 0)
(0.667314 0 0)
(0.841233 0 0)
(1.00133 0 0)
(1.14816 0 0)
(1.28229 0 0)
(1.40425 0 0)
(1.51459 0 0)
(1.61383 0 0)
(1.7025 0 0)
(1.78112 0 0)
(1.85017 0 0)
(1.91014 0 0)
(1.96153 0 0)
(2.00479 0 0)
(2.04038 0 0)
(2.06873 0 0)
(2.09029 0 0)
(2.10546 0 0)
(2.11466 0 0)
(2.11826 0 0)
(2.11665 0 0)
(2.11019 0 0)
(2.09924 0 0)
(2.08413 0 0)
(2.06519 0 0)
(2.04273 0 0)
(2.01705 0 0)
(1.98844 0 0)
(1.95717 0 0)
(1.9235 0 0)
(1.88769 0 0)
(1.84997 0 0)
(1.81058 0 0)
(1.76971 0 0)
(1.72759 0 0)
(1.6844 0 0)
(1.64033 0 0)
(1.59554 0 0)
(1.5502 0 0)
(1.50446 0 0)
(1.45847 0 0)
(1.41235 0 0)
(1.36624 0 0)
(1.32024 0 0)
(1.27447 0 0)
(1.22902 0 0)
(1.18399 0 0)
(1.13946 0 0)
(1.0955 0 0)
(1.05218 0 0)
(1.00958 0 0)
(0.967732 0 0)
(0.926703 0 0)
(0.886532 0 0)
(0.847257 0 0)
(0.808912 0 0)
(0.771525 0 0)
(0.735119 0 0)
(0.699711 0 0)
(0.665316 0 0)
(0.631944 0 0)
(0.599599 0 0)
(0.568284 0 0)
(0.537996 0 0)
(0.50873 0 0)
(0.480478 0 0)
(0.453228 0 0)
(0.426964 0 0)
(0.40167 0 0)
(0.377326 0 0)
(0.353909 0 0)
(0.331395 0 0)
(0.309756 0 0)
(0.288965 0 0)
(0.268989 0 0)
(0.249798 0 0)
(0.231357 0 0)
(0.21363 0 0)
(0.196581 0 0)
(0.180172 0 0)
(0.164363 0 0)
(0.149114 0 0)
(0.134383 0 0)
(0.120129 0 0)
(0.106308 0 0)
(0.0928763 0 0)
(0.0797899 0 0)
(0.0670037 0 0)
(0.0544724 0 0)
(0.04215 0 0)
(0.0299906 0 0)
(0.0179477 0 0)
(0.00597478 0 0)
(0 0 0)
(-0.98489 0 0)
(-0.698279 0 0)
(-0.429479 0 0)
(-0.177922 0 0)
(0.0569629 0 0)
(0.275749 0 0)
(0.479009 0 0)
(0.667314 0 0)
(0.841233 0 0)
(1.00133 0 0)
(1.14816 0 0)
(1.28229 0 0)
(1.40425 0 0)
(1.51459 0 0)
(1.61383 0 0)
(1.7025 0 0)
(1.78112 0 0)
(1.85017 0 0)
(1.91014 0 0)
(1.96153 0 0)
(2.00479 0 0)
(2.04038 0 0)
(2.06873 0 0)
(2.09029 0 0)
(2.10546 0 0)
(2.11466 0 0)
(2.11826 0 0)
(2.11665 0 0)
(2.11019 0 0)
(2.09924 0 0)
(2.08413 0 0)
(2.06519 0 0)
(2.04273 0 0)
(2.01705 0 0)
(1.98844 0 0)
(1.95717 0 0)
(1.9235 0 0)
(1.88769 0 0)
(1.84997 0 0)
(1.81058 0 0)
(1.76971 0 0)
(1.72759 0 0)
(1.6844 0 0)
(1.64033 0 0)
(1.59554 0 0)
(1.5502 0 0)
(1.50446 0 0)
(1.45847 0 0)
(1.41235 0 0)
(1.36624 0 0)
(1.32024 0 0)
(1.27447 0 0)
(1.22902 0 0)
(1.18399 0 0)
(1.13946 0 0)
(1.0955 0 0)
(1.05218 0 0)
(1.00958 0 0)
(0.967732 0 0)
(0.926703 0 0)
(0.886532 0 0)
(0.847257 0 0)
(0.808912 0 0)
(0.771525 0 0)
(0.735119 0 0)
(0.699711 0 0)
(0.665316 0 0)
(0.631944 0 0)
(0.599599 0 0)
(0.568284 0 0)
(0.537996 0 0)
(0.50873 0 0)
(0.480478 0 0)
(0.453228 0 0)
(0.426964 0 0)
(0.40167 0 0)
(0.377326 0 0)
(0.353909 0 0)
(0.331395 0 0)
(0.309756 0 0)
(0.288965 0 0)
(0.268989 0 0)
(0.249798 0 0)
(0.231357 0 0)
(0.21363 0 0)
(0.196581 0 0)
(0.180172 0 0)
(0.164363 0 0)
(0.149114 0 0)
(0.134383 0 0)
(0.120129 0 0)
(0.106308 0 0)
(0.0928763 0 0)
(0.0797899 0 0)
(0.0670037 0 0)
(0.0544724 0 0)
(0.04215 0 0)
(0.0299906 0 0)
(0.0179477 0 0)
(0.00597478 0 0)
)
;
    }
    frontAndBack
    {
        type            empty;
    }
}


// ************************************************************************* //
