/*--------------------------------*- C++ -*----------------------------------*\
| =========                 |                                                 |
| \\      /  F ield         | OpenFOAM: The Open Source CFD Toolbox           |
|  \\    /   O peration     | Version:  2312                                  |
|   \\  /    A nd           | Website:  www.openfoam.com                      |
|    \\/     M anipulation  |                                                 |
\*---------------------------------------------------------------------------*/
FoamFile
{
    version     2.0;
    format      ascii;
    arch        "LSB;label=32;scalar=64";
    class       volScalarField;
    location    "2.9";
    object      gradTx;
}
// * * * * * * * * * * * * * * * * * * * * * * * * * * * * * * * * * * * * * //

dimensions      [0 -1 0 1 0 0 0];

internalField   nonuniform List<scalar> 
100
(
-0.98489
-0.698279
-0.429479
-0.177922
0.0569629
0.275749
0.479009
0.667314
0.841233
1.00133
1.14816
1.28229
1.40425
1.51459
1.61383
1.7025
1.78112
1.85017
1.91014
1.96153
2.00479
2.04038
2.06873
2.09029
2.10546
2.11466
2.11826
2.11665
2.11019
2.09924
2.08413
2.06519
2.04273
2.01705
1.98844
1.95717
1.9235
1.88769
1.84997
1.81058
1.76971
1.72759
1.6844
1.64033
1.59554
1.5502
1.50446
1.45847
1.41235
1.36624
1.32024
1.27447
1.22902
1.18399
1.13946
1.0955
1.05218
1.00958
0.967732
0.926703
0.886532
0.847257
0.808912
0.771525
0.735119
0.699711
0.665316
0.631944
0.599599
0.568284
0.537996
0.50873
0.480478
0.453228
0.426964
0.40167
0.377326
0.353909
0.331395
0.309756
0.288965
0.268989
0.249798
0.231357
0.21363
0.196581
0.180172
0.164363
0.149114
0.134383
0.120129
0.106308
0.0928763
0.0797899
0.0670037
0.0544724
0.04215
0.0299906
0.0179477
0.00597478
)
;

boundaryField
{
    movingWall
    {
        type            calculated;
        value           uniform -1.13272;
    }
    fixedWalls
    {
        type            calculated;
        value           nonuniform List<scalar> 
201
(
-0.98489
-0.698279
-0.429479
-0.177922
0.0569629
0.275749
0.479009
0.667314
0.841233
1.00133
1.14816
1.28229
1.40425
1.51459
1.61383
1.7025
1.78112
1.85017
1.91014
1.96153
2.00479
2.04038
2.06873
2.09029
2.10546
2.11466
2.11826
2.11665
2.11019
2.09924
2.08413
2.06519
2.04273
2.01705
1.98844
1.95717
1.9235
1.88769
1.84997
1.81058
1.76971
1.72759
1.6844
1.64033
1.59554
1.5502
1.50446
1.45847
1.41235
1.36624
1.32024
1.27447
1.22902
1.18399
1.13946
1.0955
1.05218
1.00958
0.967732
0.926703
0.886532
0.847257
0.808912
0.771525
0.735119
0.699711
0.665316
0.631944
0.599599
0.568284
0.537996
0.50873
0.480478
0.453228
0.426964
0.40167
0.377326
0.353909
0.331395
0.309756
0.288965
0.268989
0.249798
0.231357
0.21363
0.196581
0.180172
0.164363
0.149114
0.134383
0.120129
0.106308
0.0928763
0.0797899
0.0670037
0.0544724
0.04215
0.0299906
0.0179477
0.00597478
0
-0.98489
-0.698279
-0.429479
-0.177922
0.0569629
0.275749
0.479009
0.667314
0.841233
1.00133
1.14816
1.28229
1.40425
1.51459
1.61383
1.7025
1.78112
1.85017
1.91014
1.96153
2.00479
2.04038
2.06873
2.09029
2.10546
2.11466
2.11826
2.11665
2.11019
2.09924
2.08413
2.06519
2.04273
2.01705
1.98844
1.95717
1.9235
1.88769
1.84997
1.81058
1.76971
1.72759
1.6844
1.64033
1.59554
1.5502
1.50446
1.45847
1.41235
1.36624
1.32024
1.27447
1.22902
1.18399
1.13946
1.0955
1.05218
1.00958
0.967732
0.926703
0.886532
0.847257
0.808912
0.771525
0.735119
0.699711
0.665316
0.631944
0.599599
0.568284
0.537996
0.50873
0.480478
0.453228
0.426964
0.40167
0.377326
0.353909
0.331395
0.309756
0.288965
0.268989
0.249798
0.231357
0.21363
0.196581
0.180172
0.164363
0.149114
0.134383
0.120129
0.106308
0.0928763
0.0797899
0.0670037
0.0544724
0.04215
0.0299906
0.0179477
0.00597478
)
;
    }
    frontAndBack
    {
        type            empty;
    }
}


// ************************************************************************* //
