/*--------------------------------*- C++ -*----------------------------------*\
| =========                 |                                                 |
| \\      /  F ield         | OpenFOAM: The Open Source CFD Toolbox           |
|  \\    /   O peration     | Version:  2312                                  |
|   \\  /    A nd           | Website:  www.openfoam.com                      |
|    \\/     M anipulation  |                                                 |
\*---------------------------------------------------------------------------*/
FoamFile
{
    version     2.0;
    format      ascii;
    arch        "LSB;label=32;scalar=64";
    class       surfaceScalarField;
    location    "0.929";
    object      phi;
}
// * * * * * * * * * * * * * * * * * * * * * * * * * * * * * * * * * * * * * //

dimensions      [0 3 -1 0 0 0 0];

oriented        oriented;

internalField   nonuniform List<scalar> 
62015
(
31.7064
0.16694
-32.689
30.7481
0.159453
29.8242
0.152183
28.9461
0.145186
28.127
0.138522
27.3808
0.132249
26.7201
0.126415
26.1547
0.12105
25.6904
0.11616
25.3279
0.111725
25.0637
0.107707
24.8907
0.104049
24.7997
0.100689
24.7808
0.0975626
24.8238
0.0946066
24.9194
0.0917655
25.0591
0.0889904
25.2357
0.0862394
25.443
0.0834778
25.6758
0.080677
25.9298
0.0778134
26.2016
0.0748684
26.4882
0.0718267
26.7873
0.0686764
27.097
0.0654082
27.4158
0.0620145
27.7425
0.0584897
28.0761
0.0548296
28.4158
0.0510314
28.761
0.0470928
29.1113
0.0430127
29.4662
0.0387903
29.8255
0.0344263
30.189
0.0299207
30.5566
0.025275
30.9281
0.02049
31.3035
0.0155682
31.6829
0.0105108
32.0662
0.00532061
32.4535
0
32.8448
-0.00544849
33.2403
-0.0110214
33.6399
-0.0167167
34.0439
-0.02253
34.4524
-0.0284589
34.8653
-0.0344993
35.283
-0.0406481
35.7054
-0.0469009
36.1327
-0.0532548
36.5651
-0.059705
37.0026
-0.0662479
37.4454
-0.0728793
37.8936
-0.0795954
38.3474
-0.0863915
38.8068
-0.0932634
39.2719
-0.100207
39.743
-0.107217
40.22
-0.11429
40.7031
-0.121421
41.1923
-0.128605
41.6879
-0.135838
42.1898
-0.143115
42.6981
-0.150432
43.213
-0.157782
43.7345
-0.165163
44.2626
-0.172569
44.7974
-0.179994
45.339
-0.187435
45.8875
-0.194886
46.4428
-0.202342
47.005
-0.209799
47.5742
-0.217251
48.1502
-0.224694
48.7337
-0.23212
49.3224
-0.239536
49.9237
-0.2469
50.5148
-0.254318
51.1659
-0.261443
-0.269335
51.6615
30.0611
0.321267
-30.9785
29.1733
0.307076
28.3264
0.293382
27.5322
0.280297
26.803
0.267931
26.1508
0.256378
25.5852
0.245702
25.1124
0.235927
24.7344
0.22703
24.4491
0.218949
24.251
0.211589
24.1323
0.204835
24.0842
0.198568
24.0973
0.192668
24.1629
0.187028
24.2728
0.181549
24.4201
0.176149
24.5986
0.170755
24.8032
0.16531
25.0296
0.159765
25.2742
0.154079
25.5342
0.148222
25.8071
0.142167
26.091
0.135894
26.3843
0.129387
26.6858
0.122633
26.9944
0.115623
27.3094
0.10835
27.63
0.100808
27.9557
0.0929942
28.2862
0.084907
28.6211
0.0765456
28.9602
0.0679103
29.3033
0.0590027
29.6504
0.0498248
30.0013
0.0403794
30.3561
0.0306701
30.7148
0.0207006
31.0773
0.0104757
31.4437
0
31.8142
-0.0107211
32.1887
-0.0216819
32.5673
-0.0328768
32.9502
-0.0442994
33.3374
-0.0559427
33.7291
-0.0678008
34.1254
-0.0798662
34.5264
-0.0921316
34.9322
-0.10459
35.3429
-0.117234
35.7587
-0.130055
36.1796
-0.143045
36.6058
-0.156197
37.0374
-0.169503
37.4745
-0.182952
37.9172
-0.196539
38.3656
-0.210253
38.8198
-0.224086
39.2799
-0.23803
39.746
-0.252075
40.2182
-0.266212
40.6966
-0.280432
41.1812
-0.294726
41.6721
-0.309085
42.1693
-0.3235
42.6731
-0.33796
43.1833
-0.352458
43.7001
-0.366982
44.2234
-0.381524
44.7534
-0.396075
45.29
-0.410624
45.8334
-0.425162
46.3833
-0.43968
46.9405
-0.454164
47.5028
-0.468623
48.077
-0.482984
48.6419
-0.49744
49.2627
-0.511343
-0.526683
49.7409
28.4887
0.463674
-29.3373
27.6762
0.443647
26.9113
0.424462
26.2053
0.406272
25.5689
0.389214
25.0113
0.373386
24.5387
0.358833
24.1537
0.345539
23.8554
0.333429
23.6395
0.322382
23.4995
0.312245
23.4276
0.302853
23.4154
0.294039
23.4548
0.285645
23.5382
0.27753
23.6589
0.269569
23.811
0.261655
23.9894
0.2537
24.19
0.245628
24.4091
0.237379
24.644
0.228902
24.8921
0.220157
25.1515
0.211111
25.4206
0.201738
25.6981
0.192018
25.9829
0.181935
26.2742
0.171476
26.5712
0.160633
26.8736
0.149399
27.1807
0.13777
27.4923
0.125745
27.8082
0.113323
28.1281
0.100504
28.4519
0.0872923
28.7796
0.0736899
29.111
0.0597014
29.4462
0.0453321
29.7852
0.0305873
30.1279
0.0154745
30.4746
0
30.8252
-0.0158282
31.1797
-0.0320017
31.5384
-0.048512
31.9012
-0.0653502
32.2684
-0.0825068
32.6399
-0.0999716
33.0159
-0.117735
33.3965
-0.135786
33.7818
-0.154114
34.172
-0.172709
34.5671
-0.191558
34.9672
-0.210651
35.3725
-0.229975
35.783
-0.249518
36.1989
-0.269269
36.6202
-0.289215
37.0471
-0.309344
37.4796
-0.329643
37.9179
-0.350098
38.362
-0.370698
38.8119
-0.391429
39.2679
-0.412277
39.7299
-0.43323
40.198
-0.454274
40.6723
-0.475395
41.1528
-0.49658
41.6395
-0.517815
42.1327
-0.539086
42.6321
-0.56038
43.138
-0.581682
43.6503
-0.602979
44.1691
-0.624257
44.6942
-0.645503
45.2263
-0.666695
45.7634
-0.687847
46.3117
-0.708855
46.8517
-0.729993
47.4438
-0.75034
-0.77272
47.9037
27.0121
0.595289
-27.7886
26.2781
0.570355
25.5978
0.546652
24.981
0.524353
24.436
0.503588
23.9689
0.484423
23.5827
0.466854
23.2772
0.450803
23.0491
0.436131
22.8929
0.422659
22.8019
0.410185
22.7686
0.398502
22.7855
0.38741
22.8457
0.376726
22.9426
0.366289
23.0708
0.355958
23.2253
0.345613
23.4021
0.335155
23.5976
0.324498
23.809
0.313576
24.0338
0.302332
24.2702
0.290719
24.5165
0.278703
24.7714
0.266252
25.0337
0.253344
25.3027
0.239962
25.5775
0.226091
25.8577
0.211721
26.1427
0.196846
26.4323
0.181462
26.7261
0.165566
27.024
0.14916
27.3258
0.132244
27.6313
0.114822
27.9406
0.096899
28.2536
0.0784804
28.5703
0.059573
28.8906
0.0401846
29.2148
0.0203239
29.5427
0
29.8745
-0.020777
30.2102
-0.0419964
30.55
-0.0636472
30.8939
-0.0857173
31.2419
-0.108195
31.5943
-0.131067
31.9511
-0.15432
32.3124
-0.177942
32.6783
-0.201917
33.049
-0.226233
33.4244
-0.250873
33.8048
-0.275824
34.1902
-0.301069
34.5807
-0.326595
34.9764
-0.352384
35.3775
-0.378422
35.7839
-0.404691
36.1958
-0.431175
36.6133
-0.457858
37.0364
-0.484724
37.4653
-0.511754
37.8999
-0.538932
38.3404
-0.566241
38.7868
-0.593663
39.2391
-0.62118
39.6975
-0.648776
40.162
-0.676432
40.6326
-0.704131
41.1093
-0.731854
41.5922
-0.759584
42.0813
-0.787303
42.5767
-0.814991
43.0781
-0.842635
43.5863
-0.870204
44.0993
-0.897718
44.623
-0.925041
45.1392
-0.952523
45.7042
-0.978994
-1.00804
46.1457
25.6416
0.717434
-26.3433
24.988
0.688551
24.3925
0.661304
23.8629
0.635849
23.4048
0.612278
23.0213
0.590596
22.7127
0.570728
22.4765
0.552529
22.3082
0.535798
22.2019
0.520307
22.1509
0.505815
22.1485
0.492088
22.1882
0.478908
22.2639
0.466077
22.3705
0.453424
22.5032
0.4408
22.658
0.428079
22.8316
0.415157
23.0212
0.401946
23.2244
0.388374
23.4393
0.374382
23.6642
0.359921
23.8977
0.344953
24.1389
0.329448
24.3868
0.313379
24.6406
0.29673
24.8999
0.279485
25.1641
0.261634
25.4328
0.24317
25.7058
0.224091
25.9828
0.204393
26.2638
0.184079
26.5484
0.16315
26.8368
0.141612
27.1287
0.11947
27.4243
0.096732
27.7235
0.0734059
28.0263
0.0495014
28.3329
0.0250288
28.6431
0
28.9572
-0.0255731
29.2751
-0.0516778
29.597
-0.0783
29.9229
-0.105426
30.2529
-0.13304
30.5872
-0.161127
30.9258
-0.189672
31.2688
-0.218658
31.6163
-0.248067
31.9685
-0.277884
32.3253
-0.308089
32.6869
-0.338665
33.0535
-0.369594
33.425
-0.400856
33.8016
-0.432434
34.1833
-0.464306
34.5703
-0.496454
34.9626
-0.528858
35.3603
-0.561498
35.7635
-0.594353
36.1723
-0.627403
36.5866
-0.660626
37.0066
-0.694003
37.4324
-0.727511
37.8639
-0.761131
38.3012
-0.794839
38.7444
-0.828615
39.1935
-0.862437
39.6485
-0.896283
40.1095
-0.930132
40.5764
-0.963961
41.0495
-0.997749
41.5284
-1.03148
42.0137
-1.06511
42.5037
-1.09867
43.004
-1.13199
43.4973
-1.16549
44.0366
-1.19778
-1.23314
44.46
24.3802
0.831492
-25.0058
23.8071
0.799611
23.2945
0.769744
22.8477
0.742
22.4697
0.716398
22.1611
0.692871
21.9201
0.671269
21.7429
0.651381
21.6244
0.632957
21.5587
0.615732
21.5396
0.599443
21.5613
0.583841
21.6181
0.568698
21.7052
0.553814
21.8179
0.539013
21.9527
0.524146
22.1061
0.509086
22.2754
0.493728
22.4584
0.477983
22.6531
0.46178
22.8579
0.445056
23.0715
0.427765
23.2928
0.409867
23.5208
0.39133
23.7549
0.37213
23.9944
0.352248
24.2389
0.331669
24.488
0.310384
24.7413
0.288386
24.9987
0.265672
25.2599
0.242242
25.5248
0.218097
25.7933
0.19324
26.0655
0.167678
26.3411
0.141419
26.6203
0.114469
26.903
0.0868412
27.1893
0.0585452
27.4792
0.0295936
27.7727
0
28.07
-0.0302214
28.3711
-0.0610556
28.6761
-0.0924864
28.9851
-0.124497
29.2981
-0.157071
29.6152
-0.19019
29.9365
-0.223834
30.2622
-0.257986
30.5923
-0.292626
30.9269
-0.327732
31.2661
-0.363285
31.6099
-0.399264
31.9586
-0.435648
32.312
-0.472413
32.6704
-0.509539
33.0339
-0.547002
33.4024
-0.58478
33.7761
-0.62285
34.155
-0.661187
34.5393
-0.699769
34.9289
-0.738571
35.3239
-0.777569
35.7244
-0.816739
36.1305
-0.856056
36.5421
-0.895495
36.9593
-0.935032
37.3823
-0.97464
37.8109
-1.0143
38.2452
-1.05397
38.6854
-1.09365
39.1312
-1.13329
39.5829
-1.17288
40.0403
-1.21239
40.5039
-1.25179
40.972
-1.29109
41.4499
-1.33011
41.9213
-1.36933
42.4362
-1.40715
-1.44847
42.842
23.2267
0.938843
-23.776
22.7322
0.90486
22.2983
0.873201
21.928
0.843902
21.6219
0.8169
21.3787
0.792046
21.1953
0.769125
21.0673
0.747873
20.9894
0.728007
20.9561
0.709239
20.9621
0.691297
21.0021
0.673926
21.0715
0.6569
21.1661
0.640019
21.2824
0.623113
21.4171
0.606033
21.5677
0.588658
21.7319
0.570882
21.9078
0.552619
22.0938
0.533798
22.2887
0.514359
22.4912
0.494256
22.7006
0.473448
22.916
0.451906
23.137
0.429605
23.3629
0.406526
23.5934
0.382656
23.8281
0.357985
24.0669
0.332508
24.3095
0.306223
24.5558
0.279129
24.8057
0.25123
25.059
0.22253
25.3159
0.193037
25.5761
0.162758
25.8398
0.131705
26.107
0.0998894
26.3777
0.0673235
26.6519
0.0340221
26.9297
0
27.2112
-0.0347263
27.4964
-0.0701392
27.7854
-0.106221
28.0783
-0.142953
28.3751
-0.180315
28.676
-0.218288
28.9811
-0.256848
29.2903
-0.295976
29.6039
-0.335649
29.9219
-0.375844
30.2443
-0.416538
30.5713
-0.457707
30.9029
-0.499326
31.2393
-0.541371
31.5804
-0.583816
31.9265
-0.626636
32.2775
-0.669806
32.6334
-0.713298
32.9945
-0.757087
33.3607
-0.801145
33.7321
-0.845444
34.1088
-0.889959
34.4907
-0.93466
34.8781
-0.979521
35.2708
-1.02451
35.6689
-1.06961
36.0726
-1.11477
36.4817
-1.15999
36.8963
-1.20522
37.3165
-1.25044
37.7423
-1.29562
38.1736
-1.34072
38.6105
-1.38574
39.0533
-1.43061
39.5005
-1.47537
39.957
-1.5198
40.4076
-1.56445
40.8992
-1.60752
-1.65449
41.2881
22.1768
1.04079
-22.6516
21.7571
1.0055
21.396
0.972751
21.0944
0.942483
20.8513
0.914555
20.6641
0.888748
20.5289
0.864793
20.4411
0.842393
20.3958
0.821243
20.388
0.80105
20.4131
0.781539
20.4668
0.762462
20.545
0.743596
20.6443
0.724752
20.7619
0.705763
20.8951
0.686489
21.0418
0.666811
21.2002
0.646628
21.3686
0.625859
21.5459
0.604434
21.7309
0.582296
21.9227
0.559398
22.1207
0.535704
22.3241
0.511183
22.5325
0.485813
22.7455
0.459576
22.9627
0.432458
23.184
0.404452
23.409
0.375553
23.6377
0.345759
23.8699
0.315072
24.1056
0.283496
24.3446
0.251037
24.587
0.217703
24.8328
0.183504
25.0819
0.148452
25.3344
0.11256
25.5904
0.0758438
25.8498
0.0383179
26.1127
0
26.3792
-0.0390918
26.6494
-0.0789383
26.9233
-0.119519
27.201
-0.160814
27.4826
-0.2028
27.7682
-0.245454
28.0578
-0.288755
28.3515
-0.332677
28.6494
-0.377195
28.9516
-0.422285
29.2582
-0.46792
29.5692
-0.514074
29.8847
-0.56072
30.2048
-0.60783
30.5296
-0.655376
30.8591
-0.703331
31.1934
-0.751665
31.5326
-0.800348
31.8767
-0.849352
32.2257
-0.898647
32.5798
-0.948201
32.939
-0.997986
33.3033
-1.04797
33.6728
-1.09812
34.0475
-1.14841
34.4275
-1.1988
34.8127
-1.24927
35.2032
-1.29978
35.5991
-1.3503
36.0003
-1.4008
36.4069
-1.45124
36.8189
-1.5016
37.2362
-1.55184
37.6592
-1.60192
38.0864
-1.65186
38.5226
-1.70144
38.9532
-1.75123
39.4227
-1.7993
-1.8516
39.7955
21.224
1.13853
-21.628
20.8736
1.10259
20.5782
1.06929
20.337
1.03849
20.148
1.00997
20.0077
0.983455
19.9121
0.958644
19.8568
0.935222
19.8372
0.912878
19.8493
0.891322
19.8887
0.870285
19.9521
0.84953
20.0361
0.828846
20.1379
0.808052
20.2551
0.786991
20.3856
0.76553
20.5276
0.743557
20.6796
0.720977
20.8405
0.697711
21.009
0.673694
21.1844
0.648871
21.3658
0.6232
21.5528
0.596643
21.7447
0.569173
21.9412
0.540768
22.1419
0.511411
22.3467
0.481091
22.5552
0.449802
22.7672
0.417538
22.9828
0.3843
23.2017
0.35009
23.424
0.314914
23.6495
0.278779
23.8784
0.241694
24.1104
0.203671
24.3458
0.164723
24.5845
0.124865
24.8265
0.0841132
25.0719
0.0424853
25.3208
0
25.5732
-0.0433227
25.8292
-0.0874615
26.0889
-0.132395
26.3522
-0.178099
26.6194
-0.22455
26.8904
-0.271723
27.1654
-0.319593
27.4444
-0.368134
27.7275
-0.417317
28.0147
-0.467116
28.3063
-0.517502
28.6021
-0.568446
28.9023
-0.619919
29.207
-0.67189
29.5162
-0.724329
29.83
-0.777204
30.1485
-0.830485
30.4717
-0.884139
30.7996
-0.938134
31.1324
-0.992437
31.4701
-1.04702
31.8126
-1.10184
32.1601
-1.15686
32.5127
-1.21207
32.8702
-1.26741
33.2329
-1.32286
33.6006
-1.37838
33.9734
-1.43393
34.3514
-1.48949
34.7346
-1.54501
35.1229
-1.60047
35.5164
-1.65582
35.915
-1.71103
36.3191
-1.76606
36.7273
-1.82093
37.144
-1.87539
37.5557
-1.93007
38.004
-1.98287
-2.04023
38.3613
20.3606
1.23309
-20.6988
20.0727
1.19701
19.8351
1.16355
19.646
1.1325
19.5025
1.10359
19.4009
1.07651
19.3374
1.05094
19.3079
1.02656
19.3085
1.00306
19.3354
0.98016
19.3854
0.957611
19.4554
0.935185
19.5428
0.912687
19.6453
0.889945
19.7607
0.866813
19.8876
0.843168
20.0244
0.818905
20.1698
0.793934
20.323
0.768181
20.4829
0.741585
20.6489
0.714095
20.8203
0.68567
20.9967
0.656276
21.1777
0.625886
21.3629
0.594482
21.5521
0.562047
21.7449
0.528572
21.9413
0.494051
22.1412
0.458481
22.3444
0.421863
22.5508
0.384201
22.7604
0.345501
22.9732
0.305772
23.1892
0.265025
23.4084
0.223273
23.6308
0.18053
23.8565
0.136813
24.0854
0.092139
24.3176
0.0465279
24.5532
0
24.7923
-0.047423
25.0349
-0.0957182
25.281
-0.144861
25.5308
-0.194828
25.7843
-0.245592
26.0416
-0.297125
26.3027
-0.349402
26.5678
-0.402393
26.8368
-0.456069
27.1099
-0.510399
27.3872
-0.565353
27.6686
-0.620901
27.9544
-0.677009
28.2444
-0.733645
28.5389
-0.790777
28.8378
-0.84837
29.1412
-0.90639
29.4492
-0.964804
29.7618
-1.02358
30.0791
-1.08267
30.4011
-1.14205
30.7278
-1.20168
31.0594
-1.26153
31.3957
-1.32155
31.737
-1.38172
32.0831
-1.44199
32.4342
-1.50232
32.7902
-1.56269
33.1511
-1.62304
33.517
-1.68335
33.8879
-1.74358
34.2638
-1.80368
34.6446
-1.86362
35.0308
-1.92335
35.4209
-1.9829
35.819
-2.042
36.2126
-2.10131
36.6407
-2.15862
-2.22074
36.9832
19.5777
1.32532
-19.8564
19.345
1.28944
19.1574
1.25607
19.0122
1.22495
18.9063
1.19575
18.8362
1.16817
18.7983
1.14187
18.789
1.11653
18.805
1.09188
18.843
1.06763
18.9004
1.04357
18.9747
1.01946
19.0636
0.995141
19.1652
0.970446
19.278
0.945242
19.4006
0.919413
19.5317
0.892861
19.6705
0.865505
19.8159
0.837275
19.9674
0.808114
20.1243
0.777974
20.2861
0.746818
20.4525
0.714614
20.623
0.681338
20.7975
0.646971
20.9757
0.611501
21.1573
0.574918
21.3423
0.537219
21.5306
0.498402
21.7221
0.458468
21.9168
0.417424
22.1145
0.375276
22.3153
0.332036
22.5192
0.287714
22.7263
0.242326
22.9364
0.195886
23.1497
0.148414
23.3663
0.0999284
23.5861
0.0504495
23.8092
0
24.0356
-0.0513969
24.2655
-0.103717
24.4989
-0.156933
24.7359
-0.21102
24.9765
-0.265949
25.2207
-0.321692
25.4687
-0.378219
25.7206
-0.435498
25.9763
-0.4935
26.236
-0.552191
26.4997
-0.611539
26.7676
-0.671511
27.0395
-0.732072
27.3157
-0.793187
27.5961
-0.85482
27.8809
-0.916937
28.17
-0.9795
28.4635
-1.04247
28.7616
-1.10582
29.0641
-1.16949
29.3712
-1.23347
29.6829
-1.2977
29.9993
-1.36215
30.3203
-1.42678
30.646
-1.49155
30.9764
-1.55641
31.3116
-1.62134
31.6516
-1.68629
31.9963
-1.75122
32.3458
-1.81608
32.7001
-1.88084
33.0592
-1.94546
33.4231
-2.0099
33.792
-2.0741
34.1648
-2.13809
34.5453
-2.2016
34.9216
-2.26531
35.3305
-2.3269
-2.39353
35.6589
18.8662
1.41587
-19.0924
18.6812
1.38041
18.5358
1.34726
18.4271
1.31612
18.3519
1.28667
18.3071
1.25859
18.2894
1.23154
18.2957
1.20523
18.3232
1.1794
18.3692
1.15379
18.4315
1.12818
18.508
1.10238
18.5969
1.07622
18.6968
1.04957
18.8062
1.02228
18.924
0.994267
19.0493
0.96543
19.1812
0.935695
19.3191
0.904999
19.4623
0.873288
19.6105
0.840518
19.7631
0.806655
19.9199
0.77167
20.0805
0.73554
20.2448
0.698251
20.4126
0.659789
20.5836
0.620148
20.7579
0.579324
20.9353
0.537319
21.1158
0.494135
21.2993
0.449778
21.4858
0.404258
21.6753
0.357586
21.8678
0.309776
22.0634
0.260843
22.262
0.210804
22.4637
0.159679
22.6686
0.107488
22.8766
0.0542539
23.0879
0
23.3025
-0.0552486
23.5204
-0.111466
23.7417
-0.168623
23.9665
-0.226694
24.1949
-0.285647
24.4268
-0.345452
24.6624
-0.406078
24.9018
-0.467492
25.1449
-0.52966
25.3919
-0.592549
25.6428
-0.656124
25.8976
-0.720349
26.1565
-0.785187
26.4195
-0.850602
26.6866
-0.916555
26.9579
-0.98301
27.2335
-1.04993
27.5133
-1.11727
27.7975
-1.18499
28.086
-1.25305
28.379
-1.32142
28.6764
-1.39005
28.9783
-1.45889
29.2847
-1.52792
29.5956
-1.59708
29.9111
-1.66634
30.2311
-1.73564
30.5558
-1.80496
30.8851
-1.87424
31.2189
-1.94344
31.5574
-2.01252
31.9006
-2.08144
32.2483
-2.15016
32.6008
-2.2186
32.9571
-2.28682
33.3208
-2.35451
33.6806
-2.4224
34.0711
-2.48805
-2.55893
34.386
18.2171
1.50524
-18.398
18.0726
1.47028
17.9623
1.43738
17.8834
1.40623
17.833
1.37649
17.8082
1.34786
17.8062
1.32003
17.8243
1.29271
17.8601
1.26566
17.9116
1.23864
17.9768
1.21146
18.0541
1.18395
18.1419
1.15594
18.2391
1.12731
18.3446
1.09794
18.4573
1.06774
18.5767
1.03662
18.7018
1.00451
18.8323
0.971359
18.9676
0.937115
19.1073
0.901737
19.2512
0.865193
19.3988
0.827457
19.5501
0.78851
19.7047
0.748336
19.8626
0.706928
20.0237
0.664278
20.1878
0.620385
20.3549
0.575251
20.525
0.528881
20.698
0.481282
20.8739
0.432465
21.0528
0.382442
21.2346
0.331227
21.4193
0.278839
21.6071
0.225295
21.7978
0.170616
21.9916
0.114825
22.1886
0.0579443
22.3887
0
22.592
-0.0589817
22.7986
-0.118973
23.0085
-0.179944
23.2219
-0.241866
23.4386
-0.304707
23.6589
-0.368434
23.8828
-0.433015
24.1103
-0.498414
24.3414
-0.564597
24.5764
-0.631527
24.8151
-0.699167
25.0577
-0.767481
25.3042
-0.83643
25.5546
-0.905974
25.8091
-0.976074
26.0677
-1.04669
26.3303
-1.11778
26.5971
-1.1893
26.8681
-1.26122
27.1434
-1.33348
27.4229
-1.40605
27.7066
-1.47888
27.9948
-1.55193
28.2872
-1.62515
28.5841
-1.69851
28.8853
-1.77195
29.191
-1.84543
29.5011
-1.91891
29.8156
-1.99234
30.1346
-2.06567
30.458
-2.13887
30.786
-2.21188
31.1182
-2.28466
31.4552
-2.35714
31.7958
-2.42937
32.1434
-2.50103
32.4874
-2.57288
32.8605
-2.64239
-2.7173
33.1625
17.622
1.59376
-17.7643
17.5112
1.55929
17.4297
1.52661
17.3749
1.49538
17.3442
1.4653
17.3349
1.43605
17.3448
1.40737
17.3716
1.37898
17.4134
1.35066
17.4684
1.3222
17.535
1.29343
17.6118
1.26417
17.6977
1.23429
17.7917
1.20367
17.8928
1.17221
18.0003
1.13982
18.1137
1.10642
18.2322
1.07195
18.3554
1.03636
18.4831
0.999604
18.6147
0.96164
18.7502
0.922443
18.8891
0.881988
19.0314
0.84026
19.177
0.797245
19.3256
0.752935
19.4772
0.707327
19.6318
0.660421
19.7892
0.612219
19.9495
0.562727
20.1126
0.511955
20.2786
0.459914
20.4474
0.406618
20.619
0.352083
20.7936
0.296327
20.971
0.239371
21.1515
0.181236
21.3349
0.121945
21.5213
0.0615245
21.7109
0
21.9036
-0.0626001
22.0995
-0.126247
22.2986
-0.190909
22.5011
-0.256555
22.7069
-0.323152
22.9161
-0.390666
23.1289
-0.459061
23.3451
-0.528303
23.565
-0.598354
23.7885
-0.669175
24.0157
-0.740728
24.2466
-0.812974
24.4813
-0.885873
24.7199
-0.959383
24.9624
-1.03346
25.2088
-1.10807
25.4592
-1.18316
25.7136
-1.25869
25.9721
-1.33462
26.2347
-1.4109
26.5014
-1.48749
26.7722
-1.56434
27.0472
-1.64141
27.3265
-1.71864
27.6099
-1.796
27.8976
-1.87344
28.1896
-1.9509
28.4858
-2.02835
28.7863
-2.10573
29.0911
-2.183
29.4002
-2.26011
29.7136
-2.33701
30.0311
-2.41366
30.3533
-2.48998
30.6789
-2.56601
31.0111
-2.64145
31.3401
-2.71706
31.6965
-2.79024
-2.86894
31.9862
17.073
1.68163
-17.1832
16.99
1.64759
16.9319
1.61503
16.8962
1.58364
16.8809
1.55312
16.8836
1.52318
16.9024
1.49357
16.9354
1.46405
16.9811
1.43442
17.0379
1.40448
17.1047
1.37406
17.1802
1.34304
17.2636
1.31127
17.3539
1.27866
17.4505
1.2451
17.5527
1.21052
17.66
1.17485
17.772
1.13803
17.8883
1.10002
18.0086
1.06076
18.1325
1.02024
18.26
0.978418
18.3907
0.935279
18.5246
0.890808
18.6615
0.844994
18.8013
0.79783
18.944
0.749315
19.0895
0.69945
19.2378
0.648239
19.3889
0.595691
19.5427
0.541815
19.6993
0.486623
19.8586
0.430132
20.0207
0.372358
20.1856
0.313322
20.3534
0.253043
20.5241
0.191546
20.6977
0.128855
20.8742
0.0649975
21.0538
0
21.2365
-0.0661075
21.4222
-0.133294
21.6112
-0.201528
21.8034
-0.270775
21.9988
-0.341002
22.1976
-0.412173
22.3998
-0.48425
22.6054
-0.557197
22.8145
-0.630974
23.0272
-0.705543
23.2434
-0.780862
23.4633
-0.85689
23.6869
-0.933585
23.9142
-1.01091
24.1453
-1.08881
24.3802
-1.16724
24.6189
-1.24617
24.8616
-1.32554
25.1081
-1.40532
25.3587
-1.48545
25.6132
-1.56588
25.8717
-1.64658
26.1343
-1.72748
26.4009
-1.80855
26.6716
-1.88973
26.9464
-1.97098
27.2253
-2.05224
27.5083
-2.13348
27.7955
-2.21462
28.0867
-2.29564
28.3821
-2.37648
28.6817
-2.45708
28.9852
-2.5374
29.2932
-2.61738
29.6045
-2.69703
29.9221
-2.77605
30.2368
-2.85522
30.5774
-2.93188
-3.01417
30.8552
16.5635
1.76898
-16.6472
16.5029
1.73525
16.4634
1.7027
16.4429
1.67103
16.4394
1.63997
16.4511
1.60925
16.4763
1.57864
16.5136
1.54792
16.5616
1.51692
16.6191
1.48545
16.6851
1.45337
16.7586
1.42055
16.8389
1.38689
16.9254
1.35227
17.0173
1.31661
17.1142
1.27985
17.2156
1.24191
17.3213
1.20276
17.4309
1.16233
17.5441
1.12061
17.6607
1.07755
17.7805
1.03313
17.9034
0.987345
18.0293
0.94017
18.1581
0.891599
18.2896
0.841629
18.4239
0.790259
18.5609
0.737492
18.7006
0.683333
18.8429
0.627792
18.988
0.570879
19.1357
0.51261
19.2861
0.453
19.4392
0.392068
19.595
0.329835
19.7537
0.266323
19.9151
0.201557
20.0794
0.135562
20.2466
0.0683666
20.4168
-1.38497e-07
20.59
-0.069507
20.7662
-0.140123
20.9455
-0.211813
21.1279
-0.284544
21.3136
-0.358278
21.5025
-0.43298
21.6947
-0.508611
21.8902
-0.585131
22.0891
-0.662501
22.2915
-0.740678
22.4974
-0.819622
22.7068
-0.899288
22.9198
-0.979634
23.1364
-1.06061
23.3566
-1.14218
23.5806
-1.22429
23.8083
-1.3069
24.0397
-1.38996
24.275
-1.47342
24.514
-1.55723
24.757
-1.64135
25.0038
-1.72572
25.2545
-1.81029
25.5091
-1.89502
25.7677
-1.97986
26.0302
-2.06474
26.2967
-2.14963
26.5671
-2.23447
26.8415
-2.31921
27.1199
-2.4038
27.4022
-2.48818
27.6886
-2.5723
27.9788
-2.65613
28.2732
-2.73957
28.5709
-2.82266
28.8746
-2.90509
29.1757
-2.98763
29.5011
-3.06761
-3.15328
29.7676
16.0873
1.85584
-16.1495
16.0448
1.82228
16.0199
1.78961
16.0111
1.75754
16.0166
1.72583
16.0349
1.69423
16.0647
1.66254
16.1046
1.63057
16.1537
1.59815
16.2109
1.56511
16.2754
1.53134
16.3465
1.49671
16.4234
1.46113
16.5057
1.42449
16.5929
1.38674
16.6845
1.34779
16.7803
1.30761
16.8798
1.26613
16.9829
1.22332
17.0894
1.17914
17.199
1.13358
17.3116
1.0866
17.4271
1.0382
17.5455
0.988362
17.6665
0.93708
17.7902
0.884352
17.9166
0.830179
18.0456
0.774566
18.1771
0.717519
18.3113
0.659049
18.448
0.599168
18.5874
0.537892
18.7294
0.475239
18.874
0.411227
19.0213
0.34588
19.1713
0.279221
19.3241
0.211275
19.4796
0.14207
19.638
0.071635
19.7993
0
19.9634
-0.0728027
20.1306
-0.146739
20.3008
-0.221776
20.474
-0.297875
20.6504
-0.375
20.8299
-0.453113
21.0126
-0.532173
21.1986
-0.61214
21.3879
-0.692972
21.5805
-0.774626
21.7766
-0.857059
21.976
-0.940226
22.1789
-1.02408
22.3854
-1.10858
22.5953
-1.19367
22.8089
-1.27931
23.0261
-1.36545
23.2469
-1.45204
23.4714
-1.53903
23.6996
-1.62637
23.9315
-1.71401
24.1671
-1.8019
24.4066
-1.88998
24.6498
-1.97821
24.8968
-2.06653
25.1476
-2.15489
25.4022
-2.24324
25.6607
-2.33152
25.9229
-2.41968
26.189
-2.50766
26.459
-2.59542
26.7327
-2.6829
27.0102
-2.77005
27.2918
-2.85679
27.5764
-2.94315
27.8669
-3.02881
28.1549
-3.11456
28.4659
-3.19768
-3.28655
28.7216
15.6396
1.94221
-15.6845
15.6113
1.90867
15.5979
1.87573
15.5979
1.84314
15.6101
1.81067
15.6331
1.77811
15.6658
1.74528
15.7072
1.71198
15.7563
1.67809
15.8125
1.64345
15.875
1.60796
15.9432
1.5715
16.0166
1.53399
16.0948
1.49534
16.1772
1.45549
16.2637
1.41437
16.3539
1.37194
16.4475
1.32816
16.5444
1.28298
16.6444
1.23638
16.7474
1.18834
16.8532
1.13884
16.9617
1.08786
17.0729
1.0354
17.1867
0.981454
17.303
0.926017
17.4219
0.869094
17.5433
0.81069
17.6672
0.750815
17.7936
0.689479
17.9226
0.626697
18.0541
0.562485
18.1881
0.496862
18.3247
0.42985
18.4639
0.36147
18.6058
0.291748
18.7504
0.220711
18.8977
0.148386
19.0477
0.0748056
19.2006
0
19.3563
-0.0759971
19.5149
-0.153151
19.6764
-0.231426
19.841
-0.310784
20.0085
-0.391186
20.1792
-0.472593
20.3529
-0.554964
20.5299
-0.638256
20.71
-0.722426
20.8934
-0.80743
21.0801
-0.893223
21.2701
-0.979758
21.4634
-1.06699
21.6602
-1.15487
21.8604
-1.24334
22.0641
-1.33237
22.2713
-1.4219
22.482
-1.51187
22.6962
-1.60225
22.9141
-1.69296
23.1355
-1.78398
23.3605
-1.87523
23.5892
-1.96667
23.8216
-2.05824
24.0576
-2.1499
24.2972
-2.24157
24.5406
-2.33322
24.7876
-2.42478
25.0383
-2.5162
25.2927
-2.60743
25.5508
-2.69841
25.8126
-2.78907
26.078
-2.87939
26.3472
-2.96926
26.6195
-3.05872
26.8973
-3.14746
27.1729
-3.23625
27.4701
-3.32236
-3.41424
27.7155
15.216
2.02803
-15.2473
15.1988
1.99435
15.1942
1.96101
15.2009
1.92778
15.2178
1.89446
15.244
1.86086
15.2784
1.8268
15.3202
1.79214
15.3687
1.75673
15.4233
1.72046
15.4835
1.68322
15.5486
1.64492
15.6183
1.60547
15.6922
1.5648
15.77
1.52286
15.8514
1.47958
15.9362
1.43492
16.0242
1.38885
16.1152
1.34133
16.2091
1.29234
16.3057
1.24185
16.405
1.18986
16.507
1.13635
16.6114
1.08131
16.7183
1.02474
16.8277
0.966643
16.9396
0.907022
17.0538
0.845885
17.1705
0.783241
17.2897
0.719102
17.4113
0.653485
17.5353
0.586407
17.6619
0.517888
17.7909
0.447949
17.9226
0.376616
18.0568
0.303914
18.1936
0.22987
18.333
0.154516
18.4752
0.0778814
18.6201
0
18.7678
-0.0790939
18.9183
-0.159364
19.0717
-0.240774
19.228
-0.323284
19.3873
-0.406855
19.5495
-0.491445
19.7148
-0.577011
19.8831
-0.663511
20.0546
-0.7509
20.2292
-0.839132
20.407
-0.92816
20.588
-1.01794
20.7723
-1.10841
20.9599
-1.19954
21.1509
-1.29127
21.3452
-1.38355
21.5428
-1.47633
21.7439
-1.56955
21.9484
-1.66317
22.1564
-1.75712
22.3679
-1.85136
22.5828
-1.94584
22.8013
-2.04049
23.0233
-2.13526
23.2488
-2.23009
23.4778
-2.32494
23.7105
-2.41973
23.9466
-2.51443
24.1863
-2.60896
24.4296
-2.70327
24.6764
-2.79731
24.9267
-2.89102
25.1805
-2.98434
25.4381
-3.07719
25.6985
-3.1696
25.9642
-3.26125
26.2279
-3.35293
26.512
-3.44188
-3.5366
26.7475
14.8131
2.11325
-14.8337
14.8044
2.07928
14.8063
2.04541
14.8179
2.01143
14.8381
1.97716
14.8662
1.94244
14.9013
1.9071
14.9429
1.87101
14.9902
1.83406
15.0428
1.79613
15.1003
1.75712
15.1622
1.71696
15.2281
1.67557
15.2979
1.63289
15.3711
1.58886
15.4476
1.54343
15.5273
1.49656
15.6098
1.44823
15.6952
1.39839
15.7833
1.34703
15.8739
1.29413
15.9671
1.23968
16.0628
1.18367
16.1609
1.1261
16.2613
1.06695
16.3642
1.00625
16.4694
0.943983
16.5769
0.880168
16.6868
0.814814
16.7991
0.747936
16.9138
0.679549
17.0308
0.609673
17.1503
0.538329
17.2723
0.46554
17.3967
0.39133
17.5237
0.315728
17.6532
0.238763
17.7853
0.160464
17.92
0.0808652
18.0574
0
18.1975
-0.0820959
18.3404
-0.165386
18.486
-0.24983
18.6345
-0.33539
18.7859
-0.422023
18.9401
-0.509688
19.0974
-0.598341
19.2576
-0.687936
19.4208
-0.778429
19.5871
-0.869771
19.7565
-0.961915
19.929
-1.05481
20.1047
-1.14841
20.2836
-1.24267
20.4657
-1.33752
20.6511
-1.43292
20.8397
-1.52882
21.0317
-1.62516
21.227
-1.72188
21.4256
-1.81894
21.6275
-1.91628
21.8329
-2.01383
22.0416
-2.11155
22.2537
-2.20938
22.4693
-2.30726
22.6882
-2.40513
22.9106
-2.50293
23.1364
-2.60061
23.3656
-2.6981
23.5982
-2.79536
23.8342
-2.89232
24.0737
-2.98891
24.3165
-3.08509
24.5628
-3.18078
24.812
-3.276
25.0662
-3.37042
25.3186
-3.46483
25.5902
-3.55648
-3.65388
25.8163
14.4279
2.19779
-14.4402
14.4257
2.16339
14.4324
2.12887
14.4474
2.09404
14.4697
2.05873
14.4987
2.02281
14.5339
1.98614
14.5745
1.94859
14.6203
1.91005
14.6706
1.87043
14.7252
1.82965
14.7838
1.78763
14.846
1.7443
14.9116
1.6996
14.9804
1.65349
15.0522
1.60593
15.1269
1.55687
15.2043
1.50629
15.2843
1.45416
15.3669
1.40047
15.4519
1.34519
15.5393
1.28832
15.629
1.22986
15.7211
1.16979
15.8155
1.10812
15.9121
1.04485
16.0111
0.979996
16.1123
0.913559
16.2158
0.845555
16.3216
0.775998
16.4297
0.704907
16.5402
0.6323
16.6531
0.558201
16.7683
0.482634
16.8859
0.405625
17.0061
0.327202
17.1287
0.247395
17.2538
0.166237
17.3815
0.08376
17.5118
-1.38396e-07
17.6447
-0.0850062
17.7804
-0.171221
17.9187
-0.258603
18.0598
-0.347113
18.2037
-0.436708
18.3504
-0.527345
18.5
-0.618977
18.6525
-0.71156
18.8079
-0.805046
18.9664
-0.899387
19.1278
-0.994533
19.2922
-1.09043
19.4597
-1.18704
19.6304
-1.2843
19.8041
-1.38215
19.981
-1.48055
20.161
-1.57945
20.3443
-1.67878
20.5307
-1.77848
20.7204
-1.87851
20.9134
-1.97881
21.1096
-2.07932
21.309
-2.17998
21.5118
-2.28073
21.7178
-2.38151
21.9271
-2.48227
22.1397
-2.58294
22.3556
-2.68347
22.5749
-2.78379
22.7974
-2.88385
23.0231
-2.98359
23.2522
-3.08293
23.4845
-3.18184
23.7202
-3.28023
23.9586
-3.37811
24.2018
-3.47516
24.4434
-3.57217
24.7031
-3.66637
-3.76631
24.9201
14.0581
2.28158
-14.0641
14.0606
2.24661
14.0708
2.21132
14.0879
2.17554
14.1114
2.13914
14.1407
2.10196
14.1752
2.0639
14.2146
2.02484
14.2584
1.9847
14.3063
1.94338
14.358
1.9008
14.4132
1.85691
14.4717
1.81164
14.5333
1.76494
14.5978
1.71677
14.6651
1.66708
14.735
1.61585
14.8075
1.56306
14.8824
1.50867
14.9597
1.45267
15.0394
1.39505
15.1213
1.3358
15.2055
1.27492
15.2919
1.2124
15.3806
1.14825
15.4714
1.08248
15.5645
1.01508
15.6597
0.946077
15.7572
0.875481
15.8569
0.803307
15.9589
0.729574
16.0631
0.654304
16.1697
0.577519
16.2786
0.499246
16.3899
0.419511
16.5035
0.338344
16.6196
0.255775
16.7382
0.171838
16.8592
0.086568
16.9828
0
17.109
-0.0878277
17.2378
-0.176876
17.3692
-0.267103
17.5033
-0.358468
17.6401
-0.450926
17.7797
-0.544434
17.922
-0.638944
18.0672
-0.734411
18.2153
-0.830784
18.3662
-0.928015
18.52
-1.02605
18.6768