/*--------------------------------*- C++ -*----------------------------------*\
| =========                 |                                                 |
| \\      /  F ield         | OpenFOAM: The Open Source CFD Toolbox           |
|  \\    /   O peration     | Version:  2312                                  |
|   \\  /    A nd           | Website:  www.openfoam.com                      |
|    \\/     M anipulation  |                                                 |
\*---------------------------------------------------------------------------*/
FoamFile
{
    version     2.0;
    format      ascii;
    arch        "LSB;label=32;scalar=64";
    class       surfaceScalarField;
    location    "0.053";
    object      phi;
}
// * * * * * * * * * * * * * * * * * * * * * * * * * * * * * * * * * * * * * //

dimensions      [0 3 -1 0 0 0 0];

oriented        oriented;

internalField   nonuniform List<scalar> 
62015
(
68.9848
0.362787
-68.9241
69.036
0.357438
69.0784
0.351799
69.1127
0.345876
69.1399
0.339676
69.1605
0.333206
69.1753
0.32647
69.1849
0.319476
69.1899
0.312229
69.191
0.304737
69.1887
0.297006
69.1835
0.289041
69.176
0.280851
69.1666
0.272441
69.1558
0.263818
69.144
0.254988
69.1317
0.245959
69.1192
0.236738
69.1069
0.227331
69.0952
0.217745
69.0844
0.207988
69.0747
0.198067
69.0666
0.187988
69.0603
0.17776
69.0559
0.16739
69.0539
0.156884
69.0543
0.146251
69.0573
0.135499
69.0633
0.124634
69.0722
0.113666
69.0842
0.102601
69.0995
0.0914465
69.1181
0.0802126
69.1402
0.0689055
69.1657
0.0575344
69.1948
0.0461066
69.2274
0.0346315
69.2636
0.023116
69.3032
0.0115694
69.3462
0
69.393
-0.011584
69.4431
-0.0231731
69.494
-0.0347605
69.5507
-0.0463331
69.6213
-0.0578889
69.666
-0.0694309
69.6764
-0.0808878
69.9004
-0.0922263
70.1259
-0.103966
69.0791
-0.11562
69.3212
-0.123851
75.9671
-0.135916
67.8523
-0.167455
31.1514
-0.147431
3.98677
-0.0409782
0.034312
-0.001481
-5.33547e-05
-4.25078e-07
-5.18192e-08
7.90446e-09
3.20393e-10
-1.05764e-11
-2.67733e-13
-1.66634e-14
-9.42492e-16
7.27465e-17
2.54012e-18
-5.33767e-20
-1.69078e-22
-2.24475e-22
-1.0062e-23
6.93811e-25
1.92851e-26
-4.45775e-28
2.7023e-30
-2.43405e-30
-9.15825e-32
9.01204e-33
2.30504e-34
-1.22909e-35
-1.98304e-37
-2.12278e-38
-8.13185e-40
1.72694e-40
4.57428e-42
-4.84555e-43
-1.13231e-44
3.13684e-46
3.70068e-48
3.88618e-48
1.0435e-49
-2.16309e-50
-5.30128e-52
5.32639e-53
1.24066e-54
4.37245e-56
1.20326e-57
-1.07167e-57
-2.57169e-59
5.08257e-60
-8.70048e-63
1.17577e-61
67.2705
0.718583
-67.2356
67.2976
0.707746
67.3173
0.696356
67.3304
0.684423
67.3375
0.671961
67.3393
0.658979
67.3364
0.64549
67.3293
0.631505
67.3187
0.617037
67.305
0.602097
67.2888
0.586698
67.2705
0.570851
67.2506
0.55457
67.2296
0.537866
67.2078
0.520753
67.1857
0.503243
67.1636
0.485349
67.1419
0.467085
67.121
0.448464
67.1011
0.429498
67.0826
0.410202
67.0657
0.39059
67.0508
0.370675
67.038
0.350471
67.0276
0.329993
67.0199
0.309255
67.0149
0.288271
67.0129
0.267057
67.0141
0.245626
67.0186
0.223995
67.0265
0.202177
67.038
0.180189
67.0531
0.158045
67.0719
0.135761
67.0944
0.113352
67.1208
0.0908352
67.1509
0.0682254
67.1849
0.0455386
67.2227
0.0227916
67.2641
0
67.3094
-0.0228196
67.3587
-0.0456504
67.4103
-0.0684771
67.4639
-0.0912796
67.5298
-0.114039
67.597
-0.13677
67.6139
-0.159421
67.7
-0.181773
68.0399
-0.204322
67.7181
-0.227961
66.5554
-0.247767
70.2831
-0.262828
73.7294
-0.309157
48.8657
-0.350691
12.9464
-0.183179
0.51686
-0.0191321
0.000196138
-0.000118094
-2.57823e-06
2.06103e-07
3.05816e-09
1.17498e-10
5.27526e-12
-1.0479e-12
-2.02148e-14
1.35279e-15
1.25676e-17
2.14109e-18
6.02259e-20
-1.06645e-20
-1.7018e-22
1.28635e-23
9.42079e-26
2.5088e-26
5.8576e-28
-1.4007e-28
-2.03284e-30
2.51166e-31
2.60121e-33
1.77789e-34
4.87495e-36
-2.5603e-36
-3.66273e-38
7.9679e-39
9.83448e-41
-7.02582e-42
-5.51812e-44
-5.5262e-44
-7.86885e-46
3.28383e-46
4.18788e-48
-8.23291e-49
-9.88807e-51
-6.27198e-52
-9.32077e-54
1.60099e-53
1.99385e-55
-7.4487e-56
-9.14298e-58
1.15775e-58
5.96356e-61
1.90239e-61
65.5944
1.06742
-65.5829
65.5995
1.05098
65.5985
1.03375
65.5921
1.01574
65.5808
0.996966
65.5653
0.977449
65.5461
0.957203
65.5237
0.936243
65.4986
0.914588
65.4713
0.892253
65.4422
0.869256
65.4118
0.845615
65.3805
0.821346
65.3487
0.796468
65.3168
0.771
65.2851
0.744959
65.254
0.718363
65.2238
0.691232
65.1948
0.663586
65.1673
0.635442
65.1416
0.606821
65.118
0.577743
65.0966
0.548227
65.0778
0.518293
65.0617
0.487964
65.0486
0.457258
65.0385
0.426197
65.0318
0.394802
65.0285
0.363095
65.0287
0.331096
65.0326
0.298829
65.0404
0.266314
65.052
0.233574
65.0675
0.200632
65.0871
0.167509
65.1107
0.13423
65.1383
0.100816
65.17
0.0672903
65.2057
0.0336777
65.2455
0
65.2891
-0.0337184
65.337
-0.0674531
65.3885
-0.101181
65.4414
-0.134878
65.5013
-0.168511
65.5744
-0.202078
65.6196
-0.235592
65.6416
-0.268785
65.8811
-0.301659
66.0573
-0.335995
65.0066
-0.369396
65.5928
-0.391493
71.9516
-0.430853
62.2277
-0.528772
26.8787
-0.432692
3.0285
-0.101467
0.0201619
-0.00265763
-3.13782e-05
5.17457e-07
-2.1036e-08
1.04239e-08
1.5115e-10
-1.99339e-11
-1.74719e-13
-9.25947e-15
-3.04207e-16
1.1156e-16
1.35156e-18
-1.9611e-19
-1.48464e-21
-1.32885e-22
-3.16464e-24
1.49387e-24
1.61538e-26
-3.36488e-27
-2.72315e-29
-1.96006e-31
-2.21765e-32
2.66483e-32
2.75345e-34
-9.34182e-35
-8.16787e-37
1.03583e-37
6.46885e-40
5.59213e-40
5.65508e-42
-3.60293e-42
-3.19605e-44
9.24402e-45
7.6656e-47
6.35531e-48
6.78925e-50
-1.73093e-49
-1.49215e-51
7.92082e-52
6.6977e-54
-1.12541e-54
-9.7415e-57
-9.27052e-57
1.56276e-59
3.51486e-59
63.9471
1.40918
-63.9564
63.9325
1.38706
63.913
1.36393
63.8891
1.3398
63.8615
1.3147
63.8305
1.28865
63.7968
1.26166
63.7606
1.23376
63.7226
1.20496
63.6831
1.1753
63.6425
1.14479
63.6013
1.11345
63.5597
1.0813
63.5182
1.04838
63.4772
1.01469
63.4369
0.980275
63.3976
0.945144
63.3597
0.909326
63.3234
0.872844
63.2891
0.835724
63.2569
0.79799
63.2271
0.759669
63.1999
0.720784
63.1755
0.681363
63.1542
0.641432
63.1361
0.601018
63.1214
0.560147
63.1103
0.518846
63.1028
0.477143
63.0991
0.435066
63.0993
0.392643
63.1035
0.349902
63.1118
0.306871
63.1242
0.26358
63.1409
0.220057
63.1618
0.176331
63.187
0.132433
63.2164
0.0883917
63.2501
0.0442374
63.2879
0
63.3299
-0.0442899
63.3762
-0.0886013
63.4268
-0.132905
63.4799
-0.177169
63.5362
-0.221354
63.6056
-0.265434
63.6721
-0.309446
63.6915
-0.353235
63.8052
-0.396363
64.1324
-0.440246
63.6911
-0.486135
62.7601
-0.521905
67.0422
-0.552244
68.4948
-0.657371
42.0481
-0.708367
9.62655
-0.314072
0.282202
-0.0243187
-2.74329e-05
-8.23011e-05
-1.04642e-06
2.23589e-07
1.81129e-09
-5.30455e-11
1.02165e-12
-9.33692e-13
-9.75155e-15
2.26277e-15
1.57643e-17
-1.5764e-19
1.23907e-20
-1.3028e-20
-1.17705e-22
3.63413e-23
2.48774e-25
-1.56222e-26
3.83773e-29
-2.3063e-28
-1.94329e-30
9.26346e-31
6.46055e-33
-1.23287e-33
-6.54437e-36
-4.75667e-36
-3.86717e-38
3.38627e-38
2.35353e-40
-8.93159e-41
-5.76262e-43
-5.36712e-44
-4.68752e-46
1.606e-45
1.0787e-47
-7.24722e-48
-4.75085e-50
9.3761e-51
6.26795e-53
8.92857e-53
5.62374e-55
-6.96064e-55
1.30437e-56
1.60206e-55
62.325
1.74375
-62.3526
62.2931
1.7159
62.2573
1.68683
62.2181
1.65657
62.176
1.62514
62.1314
1.59257
62.0847
1.55888
62.0365
1.52408
61.987
1.48822
61.9367
1.4513
61.886
1.41337
61.8351
1.37444
61.7845
1.33454
61.7345
1.29371
61.6853
1.25195
61.6374
1.20931
61.5909
1.16582
61.5461
1.12149
61.5034
1.07637
61.4629
1.03047
61.4249
0.983837
61.3896
0.936493
61.3572
0.888471
61.328
0.839801
61.302
0.790516
61.2794
0.740648
61.2605
0.690228
61.2453
0.639291
61.2341
0.587868
61.2268
0.535994
61.2236
0.483702
61.2246
0.431026
61.2298
0.378001
61.2394
0.324661
61.2534
0.271042
61.2717
0.217178
61.2945
0.163107
61.3217
0.108862
61.3534
0.0544809
61.3895
0
61.4298
-0.0545443
61.4745
-0.109115
61.5237
-0.163675
61.5767
-0.218189
61.6317
-0.272615
61.6953
-0.326901
61.7699
-0.381068
61.8119
-0.435108
61.8516
-0.488478
62.1196
-0.541539
62.1903
-0.597516
61.1059
-0.649596
62.4126
-0.682195
68.2277
-0.760435
54.9603
-0.920158
20.8226
-0.662895
1.77768
-0.121544
0.00654582
-0.00207266
-1.59371e-05
1.73585e-06
2.2088e-09
6.44919e-09
6.35769e-11
-2.19655e-11
-1.41464e-13
1.34966e-14
-3.81417e-18
9.72731e-17
7.91754e-19
-3.39981e-19
-2.06165e-21
2.86849e-22
6.85246e-25
1.74473e-24
1.28729e-26
-8.20392e-27
-4.87112e-29
1.27415e-29
5.97548e-32
3.56908e-32
2.50921e-34
-2.87645e-34
-1.67259e-36
7.82942e-37
4.1992e-39
3.94565e-40
3.05965e-42
-1.34952e-41
-7.53672e-44
6.02029e-44
3.26502e-46
-7.06671e-47
-3.87695e-49
-7.74908e-49
-4.03469e-51
5.72981e-51
2.96412e-53
-1.52574e-53
5.05876e-54
2.46513e-53
60.7276
2.07103
-60.7713
60.6806
2.03742
60.6305
2.00241
60.5779
1.96603
60.5231
1.9283
60.4665
1.88924
60.4086
1.84889
60.3498
1.80727
60.2903
1.76441
60.2305
1.72034
60.1709
1.67509
60.1116
1.62869
60.053
1.58117
59.9955
1.53256
59.9393
1.48289
59.8846
1.43219
59.8318
1.3805
59.781
1.32785
59.7326
1.27428
59.6867
1.21981
59.6436
1.16448
59.6035
1.10834
59.5665
1.05141
59.5328
0.993724
59.5027
0.935328
59.4762
0.876256
59.4535
0.816545
59.4348
0.756234
59.4201
0.695361
59.4096
0.633964
59.4033
0.572082
59.4014
0.509756
59.4039
0.447026
59.4108
0.38393
59.4223
0.320511
59.4383
0.256808
59.4589
0.192864
59.4841
0.12872
59.5138
0.0644181
59.5481
0
59.5868
-0.0644915
59.63
-0.129014
59.6777
-0.193523
59.73
-0.257978
59.7849
-0.322336
59.8443
-0.386535
59.9171
-0.450552
59.9815
-0.514456
60.0047
-0.577901
60.1528
-0.640333
60.4493
-0.704583
59.8612
-0.770925
59.2952
-0.818245
64.157
-0.868147
62.7849
-1.04466
34.7287
-1.04543
6.47945
-0.384208
0.12346
-0.0217896
-8.89438e-05
-3.51357e-05
-3.68132e-07
1.86376e-07
1.1385e-09
-2.01081e-10
-5.80261e-13
-6.20816e-13
-4.88925e-15
2.85429e-15
1.58043e-17
-3.4982e-18
-1.1661e-20
-1.17165e-20
-7.9858e-23
6.65004e-23
3.50536e-25
-1.18615e-25
-5.0411e-28
-2.40051e-28
-1.53867e-30
2.26209e-30
1.14767e-32
-6.3761e-33
-2.9652e-35
-2.53698e-36
-1.87783e-38
1.05245e-37
5.09282e-40
-4.6515e-40
-2.17522e-42
4.94064e-43
2.31109e-45
6.21581e-45
2.80293e-47
-4.36832e-47
-1.98234e-49
1.06271e-49
3.30896e-52
3.85546e-52
-6.60584e-54
-3.94159e-51
59.1556
2.39096
-59.2134
59.0954
2.3516
59.0329
2.31066
58.9686
2.26818
58.9027
2.22418
58.8358
2.1787
58.7681
2.13176
58.6999
2.08339
58.6317
2.03363
58.5637
1.9825
58.4963
1.93005
58.4297
1.8763
58.3642
1.82128
58.3001
1.76504
58.2377
1.70761
58.1772
1.64902
58.1188
1.58932
58.0629
1.52853
58.0095
1.4667
57.9589
1.40386
57.9113
1.34006
57.867
1.27533
57.8259
1.20971
57.7885
1.14325
57.7547
1.07598
57.7247
1.00795
57.6987
0.939199
57.6768
0.869771
57.6591
0.79971
57.6457
0.729059
57.6367
0.657861
57.6321
0.586161
57.6321
0.514006
57.6367
0.441439
57.6459
0.368507
57.6597
0.295256
57.6782
0.221733
57.7015
0.147984
57.7294
0.0740577
57.7619
0
57.7991
-0.0741404
57.8409
-0.148315
57.8872
-0.222475
57.9383
-0.296573
57.9931
-0.370563
58.0506
-0.444384
58.118
-0.517973
58.1934
-0.591389
58.2335
-0.664556
58.2935
-0.736625
58.5789
-0.808684
58.5367
-0.885206
57.4885
-0.952627
59.4978
-0.994349
64.3327
-1.12337
48.0327
-1.32607
15.8379
-0.840227
1.00491
-0.123019
0.00179236
-0.00141724
-8.35512e-06
2.18002e-06
7.96552e-09
3.23066e-09
2.71215e-11
-2.19508e-11
-1.13483e-13
3.49989e-14
1.25464e-16
6.92612e-17
4.61033e-19
-5.00044e-19
-2.40967e-21
1.01657e-21
3.98825e-24
1.44702e-24
8.86564e-27
-1.66796e-26
-7.60662e-29
4.88816e-29
2.02907e-31
1.38879e-32
1.07292e-34
-7.72024e-34
-3.33107e-36
3.38677e-36
1.40551e-38
-3.25227e-39
-1.32908e-41
-4.67312e-41
-1.87668e-43
3.13066e-43
1.25966e-45
-6.89549e-46
-2.90756e-48
-3.45669e-48
-1.11244e-50
3.47311e-50
-1.35909e-49
-1.0489e-48
57.6102
2.70353
-57.6801
57.5385
2.65842
57.4652
2.61159
57.3906
2.56305
57.3152
2.51284
57.2392
2.46099
57.163
2.40754
57.0868
2.35251
57.011
2.29594
56.9359
2.23787
56.8618
2.17833
56.7888
2.11736
56.7173
2.055
56.6476
1.99128
56.5798
1.92625
56.5143
1.85994
56.4511
1.79239
56.3906
1.72365
56.3329
1.65375
56.2783
1.58275
56.2268
1.51067
56.1788
1.43757
56.1342
1.36349
56.0934
1.28848
56.0564
1.21258
56.0234
1.13583
55.9945
1.05829
55.9698
0.979996
55.9495
0.901004
55.9335
0.821359
55.922
0.741111
55.9151
0.660308
55.9128
0.579001
55.9152
0.49724
55.9223
0.415075
55.9342
0.332558
55.9508
0.249739
55.9723
0.166672
55.9984
0.0834081
56.0294
0
56.0651
-0.0834994
56.1054
-0.167037
56.1504
-0.250559
56.2001
-0.334011
56.2545
-0.417342
56.3115
-0.500496
56.3741
-0.583392
56.4498
-0.666023
56.5127
-0.748484
56.5428
-0.830171
56.7177
-0.910564
56.9725
-0.994172
56.2902
-1.07897
56.105
-1.13467
61.1973
-1.2091
57.3041
-1.46048
28.8532
-1.35965
4.44832
-0.426472
0.0567153
-0.0187374
-7.82658e-05
-1.09351e-05
-1.28681e-07
1.56336e-07
7.69987e-10
-3.06701e-10
-1.1192e-12
-3.42844e-13
-2.43602e-15
3.52096e-15
1.58377e-17
-8.1271e-18
-2.98935e-20
-7.67504e-21
-4.75679e-23
1.16144e-22
4.87043e-25
-3.559e-25
-1.34641e-27
-5.87907e-29
-5.60814e-31
5.36972e-30
2.11065e-32
-2.3429e-32
-8.81229e-35
2.03696e-35
7.38891e-38
3.32213e-37
1.21266e-39
-2.12623e-39
-7.74607e-42
4.20183e-42
1.6075e-44
2.61952e-44
8.6472e-47
-2.54403e-46
2.37258e-48
1.29557e-48
-6.2807e-48
2.575e-47
56.0922
3.00873
-56.1726
56.0105
2.95792
55.9279
2.90523
55.8445
2.85069
55.7608
2.79433
55.677
2.7362
55.5934
2.67632
55.5104
2.61472
55.4281
2.55146
55.3468
2.48656
55.2668
2.42006
55.1884
2.35201
55.1118
2.28244
55.0372
2.2114
54.9648
2.13893
54.8949
2.06506
54.8276
1.98985
54.7632
1.91334
54.7019
1.83557
54.6437
1.75659
54.5889
1.67645
54.5377
1.5952
54.4901
1.51288
54.4464
1.42954
54.4067
1.34523
54.371
1.26
54.3395
1.17391
54.3124
1.087
54.2897
0.999327
54.2715
0.910945
54.2578
0.821905
54.2488
0.732261
54.2445
0.642069
54.2449
0.551382
54.2502
0.460256
54.2602
0.368746
54.2751
0.276909
54.2948
0.184801
54.3194
0.0924788
54.3488
0
54.383
-0.0925779
54.422
-0.185197
54.4656
-0.277799
54.514
-0.370324
54.5674
-0.462717
54.6244
-0.55492
54.6846
-0.646857
54.7553
-0.738456
54.8316
-0.829821
54.8723
-0.920779
54.9501
-1.01018
55.239
-1.10008
55.111
-1.19586
54.1539
-1.27596
56.6473
-1.32665
60.3928
-1.51297
42.3334
-1.7381
12.4199
-0.993329
0.613299
-0.122667
0.000439326
-0.00103767
-4.95689e-06
2.436e-06
8.87718e-09
1.16995e-09
1.12608e-11
-2.34101e-11
-9.97428e-14
6.10278e-14
2.13602e-16
3.35303e-17
2.33609e-19
-7.67274e-19
-3.01169e-21
2.47686e-21
8.67576e-24
1.1174e-25
2.59557e-27
-3.55863e-26
-1.29628e-28
1.5491e-28
5.3651e-31
-1.22301e-31
-3.98258e-34
-2.24643e-33
-7.57246e-36
1.37599e-35
4.61218e-38
-2.41435e-38
-8.5092e-41
-1.86424e-40
-5.71437e-43
1.64384e-42
5.25452e-45
-4.51385e-45
9.82181e-47
3.04288e-47
1.53935e-45
1.70896e-44
54.6025
3.3066
-54.692
54.5123
3.25013
54.4216
3.19164
54.3307
3.13116
54.2398
3.06874
54.1493
3.0044
54.0594
2.93819
53.9704
2.87014
53.8826
2.80029
53.796
2.72868
53.7111
2.65536
53.628
2.58036
53.547
2.50373
53.4683
2.42552
53.392
2.34577
53.3183
2.26452
53.2476
2.18182
53.1798
2.09772
53.1153
2.01227
53.0541
1.92552
52.9965
1.83752
52.9425
1.74832
52.8924
1.65797
52.8462
1.56653
52.804
1.47404
52.7661
1.38056
52.7324
1.28616
52.7032
1.19087
52.6784
1.09476
52.6582
0.997892
52.6426
0.900313
52.6317
0.802084
52.6256
0.703265
52.6243
0.603914
52.6278
0.50409
52.6362
0.403854
52.6494
0.303266
52.6676
0.202387
52.6906
0.101278
52.7186
0
52.7514
-0.101384
52.789
-0.202812
52.8314
-0.304221
52.8785
-0.405549
52.9306
-0.50673
52.9872
-0.607708
53.0467
-0.708414
53.1124
-0.808747
53.1905
-0.908725
53.2535
-1.00846
53.2912
-1.10707
53.4819
-1.20416
53.6989
-1.30597
52.9825
-1.40746
53.0959
-1.46974
58.1264
-1.57115
52.5171
-1.89466
24.6235
-1.66687
3.27211
-0.467731
0.0303492
-0.017237
-6.47486e-05
1.08693e-06
-3.96687e-08
1.48054e-07
6.04331e-10
-4.31647e-10
-1.4582e-12
-8.80368e-14
-1.005e-15
4.83034e-15
1.79829e-17
-1.65459e-17
-5.43818e-20
1.20358e-21
-9.83802e-24
2.25386e-22
7.71734e-25
-9.83786e-25
-3.17549e-27
7.06915e-28
2.08673e-30
1.45053e-29
4.57471e-32
-8.52088e-32
-2.66077e-34
1.31053e-34
4.30825e-37
1.25473e-36
3.61126e-39
-1.01232e-38
-3.0226e-41
2.429e-41
7.77808e-44
1.43787e-43
-2.79402e-44
-4.37394e-45
1.05995e-43
2.50167e-43
53.1418
3.59719
-53.2391
53.0443
3.53511
52.9467
3.47089
52.8493
3.40455
52.7524
3.33614
52.6562
3.26569
52.5609
3.19325
52.4669
3.11885
52.3742
3.04253
52.2833
2.96435
52.1941
2.88433
52.1071
2.80253
52.0224
2.71899
51.9401
2.63377
51.8605
2.5469
51.7837
2.45843
51.71
2.36843
51.6394
2.27693
51.5722
2.18399
51.5085
2.08966
51.4485
1.994
51.3922
1.89706
51.3398
1.79889
51.2915
1.69956
51.2473
1.59912
51.2074
1.49762
51.1719
1.39513
51.1408
1.2917
51.1142
1.1874
51.0922
1.08228
51.075
0.976404
51.0624
0.869839
51.0547
0.762645
51.0518
0.654883
51.0537
0.546619
51.0606
0.437915
51.0724
0.328836
51.0891
0.219447
51.1107
0.109813
51.1372
0
51.1687
-0.109926
51.205
-0.219898
51.2462
-0.32985
51.2921
-0.439714
51.3428
-0.549424
51.3984
-0.658912
51.4579
-0.768117
51.5208
-0.876943
51.5944
-0.985314
51.6719
-1.09338
51.7154
-1.20087
51.8053
-1.30633
52.0888
-1.41285
51.915
-1.52655
51.0597
-1.61778
53.7808
-1.67701
56.6523
-1.92042
38.0266
-2.15837
10.2784
-1.15387
0.425251
-0.128552
2.94831e-05
-0.000891415
-3.53918e-06
2.8871e-06
9.50492e-09
-3.60759e-10
3.23854e-12
-2.91462e-11
-1.03822e-13
1.06244e-13
3.3194e-16
-2.02108e-17
2.1721e-20
-1.36759e-18
-4.45252e-21
6.02532e-21
1.83037e-23
-3.93875e-24
-1.06348e-26
-8.96614e-26
-2.67542e-28
5.06799e-28
1.48866e-30
-6.71462e-31
-2.08134e-33
-8.02556e-33
-2.1886e-35
5.96058e-35
1.67578e-37
-1.22465e-37
-3.77782e-40
-9.71236e-40
-2.35162e-42
9.37289e-42
-1.56843e-42
-4.26069e-43
-8.03744e-42
-1.31992e-40
51.7106
3.88054
-51.8145
51.6068
3.81293
51.5034
3.74305
51.4005
3.67094
51.2985
3.59664
51.1974
3.52018
51.0976
3.44162
50.9993
3.36098
50.9027
3.27832
50.808
3.19368
50.7154
3.10711
50.6251
3.01865
50.5372
2.92835
50.452
2.83627
50.3696
2.74245
50.2903
2.64694
50.214
2.5498
50.1411
2.45108
50.0717
2.35084
50.0059
2.24913
49.9438
2.146
49.8856
2.04153
49.8314
1.93575
49.7813
1.82874
49.7354
1.72056
49.6938
1.61126
49.6566
1.50091
49.6239
1.38957
49.5958
1.2773
49.5723
1.16417
49.5535
1.05025
49.5395
0.935586
49.5304
0.820261
49.526
0.704336
49.5266
0.587879
49.5321
0.470958
49.5425
0.353641
49.5578
0.235996
49.5781
0.118092
49.6033
0
49.6335
-0.118211
49.6685
-0.236471
49.7084
-0.354709
49.7531
-0.472855
49.8026
-0.590836
49.857
-0.70858
49.916
-0.826024
49.978
-0.943088
50.0465
-1.05965
50.1266
-1.17576
50.1913
-1.29155
50.2358
-1.40586
50.4316
-1.51841
50.6245
-1.6371
49.9214
-1.75412
50.2003
-1.82225
55.0154
-1.94857
48.6272
-2.33996
21.8472
-1.99224
2.64963
-0.528353
0.0200204
-0.0179109
-5.92548e-05
8.62798e-06
-7.65036e-10
1.69776e-07
5.81778e-10
-6.54938e-10
-1.97101e-12
2.08749e-13
9.59834e-17
7.97815e-15
2.48992e-17
-3.56827e-17
-1.0294e-19
2.12025e-20
5.2599e-23
5.31539e-22
1.51493e-24
-2.90518e-24
-8.08909e-27
3.23226e-27
9.54771e-30
4.89466e-29
1.27506e-31
-3.3651e-31
-8.9802e-34
5.74553e-34
1.71237e-36
6.16518e-36
1.46586e-38
-5.27735e-38
-1.287e-40
1.19149e-40
1.20531e-40
5.46267e-42
-7.32351e-40
-4.18407e-39
50.3092
4.15675
-50.4187
50.2002
4.08368
50.0919
4.00823
49.9844
3.93044
49.878
3.85034
49.7729
3.76798
49.6694
3.6834
49.5676
3.59665
49.4676
3.50777
49.3698
3.41681
49.2743
3.32382
49.1812
3.22885
49.0908
3.13194
49.0032
3.03316
48.9186
2.93255
48.8371
2.83016
48.7588
2.72606
48.684
2.6203
48.6127
2.51294
48.5452
2.40404
48.4814
2.29365
48.4216
2.18183
48.3659
2.06866
48.3143
1.95418
48.2669
1.83847
48.2239
1.72159
48.1854
1.6036
48.1513
1.48456
48.1219
1.36456
48.0971
1.24365
48.077
1.1219
48.0617
0.999383
48.0513
0.876165
48.0457
0.752317
48.045
0.627909
48.0492
0.503015
48.0583
0.377704
48.0724
0.252049
48.0914
0.126124
48.1154
0
48.1443
-0.126248
48.1781
-0.252547
48.2168
-0.378822
48.2603
-0.504999
48.3086
-0.631004
48.3617
-0.756759
48.4197
-0.882193
48.4815
-1.00724
48.547
-1.13178
48.6229
-1.25574
48.7022
-1.37932
48.7498
-1.50215
48.8452
-1.6225
49.1195
-1.74431
48.941
-1.87465
48.1664
-1.97676
50.8798
-2.04279
53.2722
-2.33628
35.0495
-2.59567
9.1099
-1.35396
0.345631
-0.146531
-0.000116508
-0.000953566
-3.18313e-06
3.87629e-06
1.13487e-08
-1.83867e-09
-1.95988e-12
-4.49924e-11
-1.35223e-13
2.04413e-13
5.65425e-16
-1.11588e-16
-2.52264e-19
-3.02938e-18
-8.30671e-21
1.60967e-20
4.27681e-23
-1.44798e-23
-4.11866e-26
-2.85348e-25
-7.15188e-28
1.8266e-27
4.65666e-30
-2.47176e-30
-7.24679e-33
-3.70478e-32
-8.51188e-35
2.84199e-34
6.92596e-37
-4.98371e-37
-1.52079e-39
-6.56476e-39
9.09899e-39
1.69996e-39
1.87318e-38
5.28662e-37
48.9379
4.4259
-49.0521
48.8245
4.34745
48.7121
4.26652
48.6008
4.18313
48.4909
4.09734
48.3825
4.00919
48.2758
3.91872
48.1711
3.82597
48.0685
3.731
47.9682
3.63386
47.8703
3.53459
47.775
3.43325
47.6825
3.32989
47.593
3.22456
47.5065
3.11732
47.4233
3.00823
47.3434
2.89734
47.2671
2.78472
47.1943
2.67042
47.1254
2.55451
47.0603
2.43704
46.9992
2.31809
46.9422
2.19771
46.8894
2.07597
46.8408
1.95294
46.7967
1.82868
46.757
1.70327
46.7218
1.57677
46.6912
1.44925
46.6653
1.32078
46.6441
1.19143
46.6277
1.06129
46.6161
0.930407
46.6094
0.798868
46.6075
0.666746
46.6106
0.534114
46.6185
0.401048
46.6314
0.267622
46.6493
0.133914
46.6721
0
46.6998
-0.134044
46.7324
-0.26814
46.7699
-0.402211
46.8122
-0.536179
46.8593
-0.669965
46.9111
-0.803492
46.9679
-0.936678
47.0292
-1.06946
47.0937
-1.20174
47.1644
-1.33339
47.2464
-1.46446
47.3142
-1.59513
47.3637
-1.72403
47.5552
-1.85081
47.7415
-1.98489
47.0864
-2.11696
47.3851
-2.19115
51.9291
-2.33504
45.6665
-2.79069
20.3067
-2.36443
2.40257
-0.628482
0.0169747
-0.0216573
-6.32693e-05
1.4982e-05
2.0447e-08
2.46986e-07
7.16368e-10
-1.13088e-09
-3.03051e-12
5.91715e-13
1.18878e-15
1.6665e-14
4.41557e-17
-8.63309e-17
-2.20386e-19
5.9512e-20
1.64107e-22
1.59421e-21
3.86652e-24
-9.55654e-24
-2.3401e-26
9.44416e-27
2.80299e-29
2.11651e-28
4.71952e-31
-1.4669e-30
-3.44082e-33
1.82856e-33
5.50247e-36
3.84714e-35
6.01528e-38
-2.99645e-37
-2.44172e-37
1.75003e-38
2.64514e-36
2.22762e-35
47.5968
4.68808
-47.7148
47.4798
4.60435
47.364
4.51803
47.2497
4.42915
47.1368
4.33778
47.0258
4.24394
46.9166
4.14769
46.8096
4.04908
46.7048
3.94815
46.6025
3.84495
46.5027
3.73955
46.4057
3.63198
46.3116
3.52231
46.2206
3.4106
46.1327
3.2969
46.0481
3.18127
45.967
3.06376
45.8894
2.94445
45.8155
2.8234
45.7455
2.70066
45.6793
2.57631
45.6172
2.45041
45.5592
2.32302
45.5054
2.19422
45.4559
2.06407
45.4108
1.93265
45.3702
1.80002
45.3341
1.66626
45.3026
1.53144
45.2757
1.39563
45.2536
1.25891
45.2362
1.12135
45.2236
0.983035
45.2158
0.844033
45.2129
0.704424
45.2149
0.564284
45.2218
0.423694
45.2337
0.282729
45.2504
0.141472
45.272
0
45.2986
-0.141606
45.33
-0.283265
45.3663
-0.424897
45.4075
-0.566421
45.4534
-0.707756
45.504
-0.84882
45.5594
-0.98953
45.6198
-1.12981
45.6839
-1.26958
45.7517
-1.40872
45.8293
-1.54715
45.9108
-1.68509
45.9635
-1.82216
46.058
-1.95631
46.3215
-2.09194
46.1752
-2.23771
45.4498
-2.35177
47.9535
-2.42155
50.2973
-2.75115
33.2677
-3.05931
8.71933
-1.62756
0.335256
-0.184692
-0.00017863
-0.00131495
-3.7255e-06
6.04327e-06
1.58034e-08
-3.26885e-09
-5.74916e-12
-8.89745e-11
-2.28259e-13
4.48017e-13
1.10743e-15
-2.20917e-16
-5.8542e-19
-8.56576e-18
-2.01784e-20
4.82681e-20
1.14139e-22
-2.95809e-23
-9.44614e-26
-1.15369e-24
-2.50623e-27
7.2699e-27
1.64931e-29
-5.16866e-30
-1.79391e-32
-2.12868e-31
-4.30113e-34
1.45672e-33
3.03497e-36
-9.79266e-37
-2.778e-35
-3.82402e-36
-7.27889e-36
-1.16614e-33
46.2858
4.94341
-46.407
46.166
4.85448
46.0475
4.76286
45.9307
4.66861
45.8156
4.57175
45.7024
4.47235
45.5913
4.37045
45.4825
4.26609
45.376
4.15933
45.2722
4.05022
45.171
3.93882
45.0727
3.82518
44.9773
3.70936
44.8851
3.59141
44.7962
3.4714
44.7106
3.34939
44.6285
3.22544
44.5501
3.09962
44.4754
2.97199
44.4045
2.84261
44.3376
2.71155
44.2747
2.57889
44.2159
2.44468
44.1614
2.30902
44.1112
2.17195
44.0653
2.03356
44.0239
1.89392
43.987
1.75311
43.9547
1.6112
43.9271
1.46826
43.9041
1.32438
43.8859
1.17964
43.8724
1.0341
43.8638
0.887853
43.86
0.740977
43.861
0.593553
43.8669
0.445662
43.8777
0.297384
43.8934
0.148803
43.914
-2.99094e-07
43.9394
-0.14894
43.9697
-0.297936
44.0049
-0.446902
44.0449
-0.595756
44.0896
-0.744412
44.1391
-0.892787
44.1932
-1.04079
44.2522
-1.18835
44.3157
-1.33538
44.3824
-1.48179
44.455
-1.62743
44.5384
-1.77235
44.6104
-1.91679
44.6633
-2.05926
44.8428
-2.19908
45.0378
-2.34686
44.4587
-2.49407
44.6481
-2.57571
48.8904
-2.72513
43.5503
-3.23993
19.8318
-2.81011
2.4569
-0.794107
0.0189447
-0.0307777
-8.01195e-05
1.92823e-05
3.01275e-08
4.63553e-07
1.15316e-09
-2.24644e-09
-5.41965e-12
7.35612e-13
1.76752e-15
4.44747e-14
1.01934e-16
-2.35393e-16
-5.40811e-19
5.50357e-20
2.41036e-22
6.0234e-21
1.27809e-23
-3.46309e-23
-7.63567e-26
4.87156e-27
4.16425e-29
1.12055e-27
2.21792e-30
-6.81706e-30
-1.44774e-32
-1.08074e-33
4.45067e-35
2.80912e-34
1.34054e-34
-9.51636e-35
-5.521e-33
-6.1685e-32
45.005
5.19198
-45.1286
44.8829
5.09795
44.7624
5.00115
44.6436
4.90162
44.5267
4.7994
44.412
4.69455
44.2994
4.58711
44.1892
4.47714
44.0816
4.36468
43.9766
4.24979
43.8744
4.13254
43.7751
4.01296
43.6789
3.89114
43.5859
3.76712
43.4963
3.64096
43.41
3.51274
43.3273
3.38251
43.2482
3.25034
43.1729
3.1163
43.1015
2.98045
43.034
2.84288
42.9706
2.70364
42.9113
2.56281
42.8562
2.42046
42.8054
2.27667
42.759
2.13151
42.717
1.98506
42.6795
1.8374
42.6466
1.6886
42.6183
1.53875
42.5946
1.38791
42.5757
1.23619
42.5614
1.08364
42.552
0.930366
42.5474
0.77644
42.5475
0.621948
42.5526
0.466973
42.5624
0.3116
42.5771
0.155914
42.5967
0
42.6211
-0.156056
42.6503
-0.312166
42.6843
-0.468246
42.7231
-0.624209
42.7667
-0.779966
42.815
-0.935432
42.8679
-1.09052
42.9254
-1.24514
42.9878
-1.3992
43.0541
-1.55264
43.1239
-1.70532
43.2027
-1.85713
43.2867
-2.00832
43.3451
-2.1586
43.4339
-2.30558
43.684
-2.45351
43.5998
-2.61334
42.9029
-2.7416
45.0247
-2.81202
47.6645
-3.15643
32.5175
-3.55187
9.02005
-2.01161
0.38921
-0.257852
-0.000176979
-0.00233937
-5.72276e-06
1.09063e-05
2.5772e-08
-2.20225e-09
-3.96859e-12
-2.24171e-10
-5.00579e-13
1.10735e-12
2.48793e-15
1.52116e-16
-1.46e-19
-3.02551e-17
-6.27895e-20
1.58542e-19
3.41564e-22
7.40374e-23
1.18035e-26
-5.63426e-24
-1.09425e-26
3.04749e-26
6.33871e-29
3.1013e-29
2.11376e-32
-1.39865e-30
-1.78348e-33
7.60897e-33
4.99132e-32
4.91744e-33
-5.88011e-32
1.41285e-30
43.7542
5.43392
-43.8797
43.6303
5.3349
43.5083
5.23301
43.3881
5.12831
43.27
5.02085
43.1541
4.91066
43.0405
4.79781
42.9294
4.68235
42.8209
4.56433
42.7152
4.4438
42.6123
4.32083
42.5124
4.19547
42.4157
4.06779
42.3222
3.93784
42.2321
3.8057
42.1454
3.67142
42.0623
3.53507
41.9828
3.39672
41.9072
3.25645
41.8354
3.11432
41.7676
2.97039
41.7038
2.82476
41.6441
2.67749
41.5887
2.52865
41.5375
2.37832
41.4907
2.22659
41.4483
2.07352
41.4103
1.91921
41.3769
1.76372
41.3481
1.60714
41.3239
1.44956
41.3043
1.29106
41.2895
1.13171
41.2793
0.971612
41.2739
0.810844
41.2733
0.649493
41.2775
0.487646
41.2865
0.32539
41.3003
0.162812
41.3188
0
41.3422
-0.162957
41.3704
-0.32597
41.4033
-0.488949
41.441
-0.651807
41.4834
-0.814453
41.5305
-0.976797
41.5822
-1.13875
41.6384
-1.30022
41.6994
-1.46112
41.7649
-1.62136
41.8337
-1.78086
41.9078
-1.93944
41.9921
-2.09715
42.0689
-2.25429
42.1245
-2.4094
42.2856
-2.56115
42.4977
-2.72073
42.0222
-2.88331
42.0124
-2.9755
45.8808
-3.11598
42.1038
-3.67684
20.3015
-3.3469
2.82196
-1.06301
0.0276889
-0.0509635
-0.000119254
6.54738e-06
2.68895e-09
1.09975e-06
2.40004e-09
-5.02361e-09
-1.10942e-11
-2.46675e-12
-3.57313e-15
1.46828e-13
2.98339e-16
-6.96693e-16
-1.47519e-18
-7.76159e-19
-9.67304e-22
2.71683e-20
5.18313e-23
-1.29927e-22
-2.66227e-25
-2.59891e-25
-3.22807e-28
6.71102e-27
1.21223e-29
-3.05451e-29
-1.0478e-31
-1.09564e-31
3.96667e-31
1.98437e-31
6.92802e-30
1.01857e-28
42.5331
5.66935
-42.66
42.4081
5.56543
42.2849
5.45857
42.1638
5.34882
42.0448
5.23622
41.9282
5.12082
41.814
5.00269
41.7023
4.88186
41.5933
4.7584
41.4872
4.63237
41.384
4.50382
41.2838
4.37282
41.1868
4.23943
41.0931
4.10371
41.0028
3.96573
40.9159
3.82555
40.8327
3.68325
40.7531
3.53889
40.6773
3.39255
40.6054
3.2443
40.5374
3.09421
40.4734
2.94235
40.4136
2.78881
40.358
2.63367
40.3066
2.47699
40.2595
2.31887
40.2168
2.15937
40.1785
1.99859
40.1447
1.83661
40.1155
1.67351
40.0908
1.50938
40.0707
1.34429
40.0553
1.17835
40.0446
1.01163
40.0385
0.844221
40.0372
0.676216
40.0406
0.507701
40.0488
0.338767
40.0617
0.169503
40.0794
0
40.1018
-0.169651
40.1289
-0.339358
40.1608
-0.509031
40.1973
-0.678576
40.2385
-0.847903
40.2844
-1.01692
40.3349
-1.18553
40.3899
-1.35365
40.4495
-1.52117
40.5137
-1.68802
40.5819
-1.85411
40.6535
-2.01931
40.7329
-2.18347
40.8191
-2.34687
40.884
-2.50935
40.9645
-2.66832
41.1961
-2.82704
41.1936
-2.99919
40.5299
-3.14459
42.1303
-3.21474
45.2257
-3.54584
32.6078
-4.06233
10.0144
-2.54355
0.533585
-0.394241
3.0688e-05
-0.00519243
-1.12612e-05
2.21087e-05
4.79072e-08
1.83949e-08
3.29139e-11
-6.89917e-10
-1.37643e-12
2.93635e-12
6.13978e-15
5.31199e-15
8.11467e-18
-1.26072e-16
-2.36547e-19
5.26689e-19
1.07018e-21
1.6621e-21
2.38187e-24
-3.08163e-23
-5.48688e-26
1.18181e-25
2.37184e-28
6.45291e-28
-5.72577e-31
-9.85045e-30
-5.49897e-29
-3.10963e-30
1.46238e-28
-7.69537e-28
41.3416
5.89839
-41.4693
41.2158
5.78969
41.092
5.67796
40.9703
5.56326
40.8509
5.44564
40.7339
5.32516
40.6193
5.20186
40.5075
5.0758
40.3983
4.94704
40.2921
4.81563
40.1888
4.68165
40.0886
4.54515
39.9916
4.40619
39.8979
4.26485
39.8076
4.12118
39.7208
3.97526
39.6376
3.82716
39.5581
3.67695
39.4823
3.52471
39.4104
3.3705
39.3424
3.21441
39.2785
3.05651
39.2186
2.89688
39.1629
2.73561
39.1114
2.57276
39.0642
2.40843
39.0214
2.24269
38.9829
2.07563
38.9488
1.90735
38.9193
1.73791
38.8942
1.56742
38.8737
1.39595
38.8579
1.2236
38.8466
1.05045
38.84
0.876601
38.838
0.702139
38.8407
0.527156
38.8481
0.351743
38.8602
0.175993
38.877
0
38.8985
-0.176144
38.9247
-0.352345
38.9555
-0.528509
38.9909
-0.704541
39.031
-0.880348
39.0757
-1.05583
39.125
-1.23091
39.1787
-1.40547
39.2369
-1.57943
39.2997
-1.75268
39.3669
-1.92515
39.4375
-2.09674
39.5126
-2.26729
39.5974
-2.43676
39.6792
-2.60557
39.7379
-2.77244
39.8759
-2.93521
40.1039
-3.10454
39.7598
-3.28212
39.5188
-3.39008
42.8675
-3.50887
41.0724
-4.08689
21.6178
-3.97295
3.58554
-1.48899
0.0511199
-0.0959053