/*--------------------------------*- C++ -*----------------------------------*\
| =========                 |                                                 |
| \\      /  F ield         | OpenFOAM: The Open Source CFD Toolbox           |
|  \\    /   O peration     | Version:  2312                                  |
|   \\  /    A nd           | Website:  www.openfoam.com                      |
|    \\/     M anipulation  |                                                 |
\*---------------------------------------------------------------------------*/
FoamFile
{
    version     2.0;
    format      ascii;
    arch        "LSB;label=32;scalar=64";
    class       surfaceScalarField;
    location    "0.122";
    object      phi;
}
// * * * * * * * * * * * * * * * * * * * * * * * * * * * * * * * * * * * * * //

dimensions      [0 3 -1 0 0 0 0];

oriented        oriented;

internalField   nonuniform List<scalar> 
62015
(
35.0826
0.184721
-36.1558
34.0123
0.176394
32.9501
0.168163
31.902
0.160065
30.877
0.152148
29.8865
0.14447
28.9448
0.137095
28.0681
0.130093
27.2728
0.123526
26.573
0.117443
25.9789
0.111867
25.4949
0.106794
25.1196
0.102192
24.8473
0.0980087
24.6688
0.0941781
24.5731
0.0906309
24.5491
0.0872992
24.5862
0.0841209
24.6745
0.0810412
24.8058
0.0780138
24.9729
0.0749999
25.1698
0.071968
25.3916
0.0688922
25.6342
0.0657517
25.8944
0.0625305
26.1694
0.0592151
26.4571
0.0557953
26.7558
0.0522631
27.064
0.0486126
27.3806
0.0448389
27.7046
0.0409388
28.0354
0.0369097
28.3724
0.0327508
28.7151
0.0284607
29.0632
0.0240398
29.4163
0.0194882
29.7744
0.0148072
30.1373
0.00999759
30.5048
0.00506122
30.8769
0
31.2536
-0.00518409
31.635
-0.0104881
32.0209
-0.0159104
32.4116
-0.0214472
32.8069
-0.0270964
33.2071
-0.0328541
33.6121
-0.0387177
34.0221
-0.0446833
34.4372
-0.050748
34.8574
-0.0569076
35.2829
-0.0631587
35.7138
-0.0694973
36.1501
-0.0759198
36.592
-0.0824221
37.0395
-0.0889999
37.4929
-0.0956493
37.9521
-0.102366
38.4172
-0.109146
38.8885
-0.115985
39.3659
-0.122878
39.8495
-0.129821
40.3394
-0.13681
40.8357
-0.14384
41.3385
-0.150906
41.8479
-0.158004
42.3638
-0.165129
42.8864
-0.172277
43.4157
-0.179443
43.9517
-0.186622
44.4946
-0.193809
45.0443
-0.201001
45.6009
-0.208191
46.1642
-0.215375
46.735
-0.222547
47.311
-0.229712
47.8994
-0.23683
48.4777
-0.244005
49.1156
-0.250895
-0.25855
49.599
33.2559
0.355414
-34.2778
32.2398
0.339374
31.2362
0.323569
30.2526
0.308084
29.2987
0.293024
28.3871
0.278508
27.532
0.264664
26.7484
0.251614
26.0499
0.23946
25.4471
0.22826
24.9457
0.218024
24.5465
0.208709
24.2455
0.200231
24.0355
0.192475
23.9069
0.185314
23.8497
0.178617
23.8538
0.172264
23.91
0.166145
24.01
0.160167
24.1467
0.154249
24.3141
0.148326
24.5073
0.142343
24.7221
0.136257
24.955
0.130032
25.2034
0.12364
25.4651
0.117058
25.738
0.110269
26.0209
0.103258
26.3124
0.0960162
26.6116
0.0885344
26.9177
0.0808072
27.2302
0.0728308
27.5484
0.0646027
27.8721
0.0561222
28.2009
0.0473892
28.5346
0.0384046
28.873
0.0291706
29.216
0.0196895
29.5636
0.00996484
29.9157
0
30.2722
-0.0102006
30.6333
-0.0206323
30.9988
-0.0312902
31.369
-0.0421688
31.7437
-0.0532619
32.1232
-0.0645643
32.5074
-0.0760691
32.8965
-0.0877698
33.2905
-0.09966
33.6896
-0.111732
34.0938
-0.123979
34.5032
-0.136395
34.9179
-0.14897
35.3381
-0.161697
35.7637
-0.174569
36.195
-0.187578
36.632
-0.200715
37.0747
-0.213972
37.5233
-0.227342
37.9779
-0.240814
38.4386
-0.254381
38.9053
-0.268034
39.3782
-0.281765
39.8574
-0.295564
40.3429
-0.309423
40.8348
-0.323332
41.333
-0.337283
41.8378
-0.351267
42.3491
-0.365273
42.8669
-0.379294
43.3914
-0.393321
43.9225
-0.407342
44.46
-0.421352
45.0048
-0.435333
45.5546
-0.449299
46.1162
-0.463173
46.6686
-0.477152
47.2765
-0.490588
-0.505461
47.7427
31.4861
0.512462
-32.4556
30.5268
0.489372
29.5855
0.466713
28.6706
0.444628
27.7931
0.423281
26.9655
0.40285
26.2013
0.383511
25.5132
0.365412
24.9115
0.348654
24.4027
0.33327
23.9889
0.319222
23.6677
0.306409
23.4334
0.294683
23.2782
0.283871
23.1929
0.273792
23.1683
0.26427
23.1958
0.255146
23.2673
0.246279
23.3761
0.237547
23.5162
0.228849
23.6826
0.220101
23.8712
0.211235
24.0785
0.202193
24.3017
0.192931
24.5385
0.183412
24.7871
0.173608
25.0458
0.163495
25.3134
0.153056
25.589
0.142278
25.8716
0.13115
26.1607
0.119664
26.4556
0.107817
26.7561
0.0956057
27.0617
0.0830285
27.3721
0.0700862
27.6873
0.0567808
28.0071
0.0431153
28.3313
0.0290931
28.66
0.0147197
28.993
0
29.3304
-0.0150595
29.6722
-0.0304517
30.0184
-0.0461694
30.3691
-0.0622049
30.7243
-0.0785498
31.0841
-0.0951947
31.4486
-0.112131
31.8178
-0.12935
32.1918
-0.14684
32.5708
-0.164592
32.9547
-0.182595
33.3438
-0.200839
33.738
-0.219313
34.1375
-0.238004
34.5424
-0.256903
34.9527
-0.275998
35.3685
-0.295275
35.79
-0.314724
36.2171
-0.334333
36.6501
-0.354089
37.0888
-0.373979
37.5335
-0.393991
37.9842
-0.414112
38.4409
-0.43433
38.9037
-0.454631
39.3727
-0.475002
39.8479
-0.495431
40.3293
-0.515903
40.817
-0.536407
41.3111
-0.556927
41.8115
-0.577452
42.3183
-0.597967
42.8314
-0.61846
43.3514
-0.638911
43.8762
-0.659333
44.4123
-0.679623
44.94
-0.700053
45.5195
-0.71971
-0.741399
45.9676
29.7973
0.656674
-30.7126
28.8973
0.627248
28.0213
0.598517
27.1789
0.570681
26.3811
0.543962
25.6401
0.51858
24.9674
0.494729
24.373
0.472548
23.8636
0.4521
23.442
0.433361
23.1072
0.416227
22.8549
0.400529
22.6783
0.386063
22.5696
0.372603
22.5204
0.359929
22.5227
0.347834
22.5689
0.336134
22.6524
0.324666
22.7675
0.313294
22.9092
0.301904
23.0735
0.2904
23.2568
0.278705
23.4564
0.266755
23.67
0.254498
23.8955
0.241894
24.1315
0.228909
24.3766
0.215518
24.6297
0.2017
24.8901
0.18744
25.1571
0.172725
25.43
0.157549
25.7084
0.141906
25.9921
0.125794
26.2806
0.109211
26.5738
0.0921588
26.8715
0.0746401
27.1737
0.0566591
27.4801
0.0382211
27.7909
0.0193323
28.1059
0
28.4252
-0.0197676
28.7488
-0.0399614
29.0768
-0.0605721
29.409
-0.0815891
29.7457
-0.103002
30.0869
-0.124799
30.4327
-0.146968
30.7831
-0.169498
31.1382
-0.192374
31.4981
-0.215585
31.8628
-0.239117
32.2325
-0.262955
32.6073
-0.287086
32.9872
-0.311495
33.3723
-0.336167
33.7627
-0.361088
34.1585
-0.386242
34.5597
-0.411613
34.9664
-0.437185
35.3788
-0.462944
35.7968
-0.488872
36.2205
-0.514954
36.65
-0.541172
37.0853
-0.567511
37.5266
-0.593953
37.9738
-0.620481
38.427
-0.64708
38.8862
-0.67373
39.3515
-0.700416
39.8229
-0.72712
40.3004
-0.753825
40.7841
-0.780512
41.2738
-0.807168
41.7702
-0.833763
42.2713
-0.860317
42.783
-0.886696
43.2872
-0.913248
43.8399
-0.938813
-0.966946
44.2699
28.201
0.789054
-29.06
27.363
0.754067
26.5555
0.720103
25.7883
0.68742
25.0724
0.656276
24.4182
0.626904
23.835
0.599483
23.3295
0.574104
22.9051
0.550764
22.5616
0.529364
22.2959
0.509728
22.1024
0.491628
21.9742
0.474807
21.904
0.459006
21.8841
0.443977
21.9077
0.429496
21.9684
0.415363
22.0606
0.401406
22.1796
0.387481
22.3213
0.373466
22.4824
0.359262
22.6599
0.344785
22.8516
0.329968
23.0556
0.314757
23.2701
0.299107
23.494
0.282983
23.7261
0.266358
23.9655
0.24921
24.2116
0.231522
24.4637
0.213282
24.7213
0.194483
24.9842
0.175119
25.2519
0.155188
25.5243
0.134689
25.8012
0.113624
26.0825
0.0919976
26.368
0.0698147
26.6578
0.0470821
26.9517
0.0238074
27.2497
0
27.5519
-0.0243303
27.8583
-0.0491727
28.1689
-0.0745152
28.4838
-0.100345
28.803
-0.12665
29.1266
-0.153416
29.4546
-0.180628
29.7872
-0.208271
30.1243
-0.23633
30.4661
-0.264789
30.8127
-0.293631
31.1641
-0.32284
31.5204
-0.352399
31.8817
-0.382289
32.2481
-0.412493
32.6196
-0.442994
32.9963
-0.473771
33.3783
-0.504807
33.7656
-0.536081
34.1584
-0.567576
34.5566
-0.599271
34.9604
-0.631147
35.3697
-0.663183
35.7848
-0.695359
36.2055
-0.727656
36.632
-0.760051
37.0642
-0.792526
37.5023
-0.825059
37.9462
-0.857629
38.396
-0.890215
38.8517
-0.922797
39.3134
-0.955352
39.7808
-0.987864
40.2547
-1.0203
40.7331
-1.05267
41.2217
-1.08483
41.7033
-1.11719
42.2306
-1.14836
-1.18259
42.6428
26.7024
0.91071
-27.5025
25.9291
0.870992
25.1927
0.832688
24.5027
0.796089
23.8688
0.761462
23.2994
0.729018
22.8012
0.69888
22.3777
0.671068
22.0294
0.645495
21.7541
0.621986
21.5474
0.600298
21.4032
0.580154
21.3149
0.561262
21.2757
0.543342
21.2791
0.526132
21.3191
0.509398
21.3905
0.492937
21.4886
0.476573
21.6095
0.46016
21.7499
0.443574
21.9069
0.426714
22.0782
0.409495
22.2619
0.391849
22.4563
0.37372
22.6602
0.355063
22.8724
0.335842
23.092
0.316028
23.3184
0.2956
23.5508
0.27454
23.7889
0.252837
24.0321
0.230483
24.2803
0.207472
24.5331
0.183803
24.7903
0.159477
25.0518
0.134496
25.3175
0.108866
25.5874
0.082592
25.8613
0.0556834
26.1393
0.0281492
26.4213
0
26.7074
-0.0287523
26.9975
-0.0580948
27.2918
-0.0880138
27.5902
-0.118495
27.8929
-0.149522
28.1998
-0.18108
28.5111
-0.213151
28.8267
-0.245719
29.1469
-0.278764
29.4716
-0.312269
29.8009
-0.346214
30.1349
-0.38058
30.4737
-0.415346
30.8174
-0.450493
31.1659
-0.485999
31.5195
-0.521843
31.8781
-0.558003
32.2418
-0.594458
32.6107
-0.631185
32.9848
-0.668161
33.3643
-0.705365
33.7491
-0.742772
34.1393
-0.78036
34.535
-0.818104
34.9362
-0.855982
35.3429
-0.893969
35.7552
-0.932042
36.1732
-0.970175
36.5967
-1.00835
37.026
-1.04653
37.4609
-1.0847
37.9015
-1.12283
38.3478
-1.16091
38.8001
-1.19888
39.2569
-1.23679
39.7234
-1.27444
40.1835
-1.3123
40.6866
-1.3488
-1.38879
41.0815
25.3032
1.02282
-26.0419
24.5972
0.979249
23.9336
0.937522
23.3211
0.897931
22.7675
0.860715
22.279
0.826026
21.8593
0.793907
21.5095
0.764289
21.228
0.737002
21.0111
0.7118
20.8539
0.688389
20.7503
0.666458
20.6943
0.645697
20.6798
0.625814
20.7013
0.606543
20.7538
0.587651
20.8327
0.568936
20.9344
0.550224
21.0555
0.531372
21.1933
0.512257
21.3456
0.492779
21.5103
0.472854
21.6859
0.452414
21.871
0.431403
22.0645
0.409778
22.2655
0.387501
22.4733
0.364544
22.6872
0.340886
22.9067
0.316511
23.1315
0.291406
23.3611
0.265564
23.5954
0.238981
23.834
0.211657
24.0769
0.183591
24.324
0.154789
24.575
0.125256
24.8301
0.0950009
25.0891
0.0640321
25.3521
0.0323612
25.6189
0
25.8898
-0.0330376
26.1646
-0.0667368
26.4434
-0.101082
26.7263
-0.136057
27.0133
-0.171644
27.3044
-0.207825
27.5998
-0.244579
27.8995
-0.281889
28.2036
-0.319733
28.5121
-0.35809
28.825
-0.396939
29.1426
-0.436256
29.4648
-0.476021
29.7917
-0.516208
30.1233
-0.556795
30.4598
-0.597758
30.8012
-0.639072
31.1476
-0.680711
31.499
-0.722652
31.8554
-0.764868
32.217
-0.807334
32.5838
-0.850023
32.9558
-0.892908
33.3331
-0.935964
33.7157
-0.979163
34.1036
-1.02248
34.4969
-1.06588
34.8957
-1.10935
35.2999
-1.15285
35.7095
-1.19636
36.1246
-1.23984
36.5452
-1.28328
36.9712
-1.32664
37.4031
-1.36988
37.8394
-1.41304
38.2848
-1.45589
38.7243
-1.49898
39.2044
-1.54053
-1.58597
39.5828
24.0037
1.1266
-24.6787
23.3666
1.08009
22.7763
1.03585
22.2398
0.994136
21.763
0.955134
21.3496
0.918907
21.0009
0.885404
20.716
0.854466
20.4919
0.825849
20.3243
0.799253
20.208
0.774351
20.1375
0.75081
20.1073
0.728314
20.1122
0.706572
20.1475
0.685322
20.2089
0.664337
20.2929
0.643421
20.3963
0.622406
20.5163
0.601152
20.6508
0.579542
20.7977
0.557478
20.9556
0.534878
21.1231
0.511677
21.299
0.48782
21.4825
0.463264
21.6728
0.437973
21.8692
0.411921
22.0713
0.385085
22.2786
0.35745
22.4908
0.329006
22.7075
0.299745
22.9287
0.269665
23.154
0.238764
23.3834
0.207047
23.6167
0.174517
23.854
0.141182
24.0951
0.107051
24.3401
0.0721352
24.5888
0.0364469
24.8414
0
25.0978
-0.0371903
25.3582
-0.0751077
25.6224
-0.113734
25.8906
-0.153052
26.1627
-0.193041
26.439
-0.233681
26.7194
-0.274951
27.0039
-0.316828
27.2927
-0.35929
27.5859
-0.402314
27.8833
-0.445875
28.1853
-0.489949
28.4917
-0.53451
28.8027
-0.579532
29.1183
-0.62499
29.4387
-0.670857
29.7637
-0.717105
30.0936
-0.763706
30.4284
-0.810633
30.768
-0.857858
31.1126
-0.905351
31.4623
-0.953083
31.8169
-1.00103
32.1767
-1.04915
32.5416
-1.09742
32.9117
-1.14582
33.2869
-1.1943
33.6674
-1.24285
34.0531
-1.29142
34.4441
-1.33999
34.8403
-1.38853
35.2419
-1.43701
35.6486
-1.48539
36.061
-1.53364
36.4776
-1.58177
36.9029
-1.62957
37.3228
-1.67761
37.7811
-1.72396
-1.77455
38.1435
22.8027
1.2233
-23.4123
22.2349
1.17475
21.7167
1.12885
21.2532
1.0858
20.848
1.04569
20.5027
1.00849
20.2168
0.974061
19.988
0.942156
19.8125
0.912478
19.6858
0.88469
19.6031
0.858445
19.5592
0.833408
19.5494
0.809264
19.5692
0.78573
19.6148
0.762555
19.6825
0.73952
19.7695
0.71644
19.873
0.693153
19.9909
0.669528
20.1213
0.645451
20.2627
0.62083
20.4136
0.595586
20.5731
0.569655
20.7401
0.542987
20.9139
0.515539
21.0939
0.487277
21.2795
0.458175
21.4704
0.428213
21.6661
0.397376
21.8663
0.365655
22.0709
0.333043
22.2796
0.299539
22.4924
0.265143
22.709
0.229859
22.9295
0.193693
23.1537
0.156654
23.3817
0.118752
23.6133
0.0799997
23.8487
0.0404105
24.0878
0
24.3306
-0.0412149
24.5772
-0.083216
24.8277
-0.125984
25.082
-0.169499
25.3401
-0.213739
25.6023
-0.258681
25.8685
-0.304303
26.1387
-0.350581
26.4131
-0.397488
26.6916
-0.445001
26.9744
-0.493092
27.2615
-0.541734
27.553
-0.590899
27.849
-0.640561
28.1494
-0.690688
28.4543
-0.741254
28.7639
-0.792227
29.0781
-0.843577
29.3971
-0.895274
29.7207
-0.947287
30.0492
-0.999583
30.3825
-1.05213
30.7207
-1.1049
31.0639
-1.15786
31.4119
-1.21097
31.765
-1.26421
32.123
-1.31753
32.4861
-1.37091
32.8542
-1.42431
33.2274
-1.4777
33.6057
-1.53105
33.9891
-1.58432
34.3775
-1.63748
34.7713
-1.69047
35.1691
-1.74333
35.5753
-1.79583
35.9765
-1.84856
36.4139
-1.89947
-1.95491
36.7612
21.6977
1.31419
-22.2416
21.1983
1.26441
20.7493
1.21761
20.354
1.17388
20.0142
1.1332
19.7295
1.09546
19.4981
1.06042
19.3169
1.02779
19.1821
0.997221
19.089
0.968364
19.0334
0.940868
19.0106
0.9144
19.0167
0.888659
19.0479
0.863373
19.1009
0.838305
19.1728
0.813249
19.2611
0.788029
19.3637
0.762496
19.4786
0.736523
19.6045
0.710005
19.74
0.682852
19.884
0.654993
20.0355
0.626365
20.1939
0.596921
20.3584
0.566619
20.5285
0.535428
20.7039
0.503325
20.884
0.470289
21.0687
0.436307
21.2577
0.401371
21.4508
0.365477
21.6479
0.328622
21.8487
0.29081
22.0534
0.252044
22.2616
0.212333
22.4736
0.171686
22.6891
0.130114
22.9082
0.0876323
23.131
0.0442553
23.3573
0
23.5873
-0.0451151
23.821
-0.0910704
24.0584
-0.137845
24.2995
-0.185416
24.5445
-0.233761
24.7933
-0.282855
25.046
-0.332674
25.3026
-0.38319
25.5633
-0.434378
25.8281
-0.486209
26.097
-0.538654
26.3701
-0.591685
26.6474
-0.645272
26.929
-0.699384
27.215
-0.75399
27.5054
-0.809059
27.8002
-0.864557
28.0996
-0.920453
28.4035
-0.976713
28.712
-1.0333
29.0251
-1.09019
29.3429
-1.14734
29.6655
-1.20472
29.9927
-1.26229
30.3248
-1.32002
30.6616
-1.37787
31.0033
-1.4358
31.3499
-1.49379
31.7013
-1.55179
32.0575
-1.60976
32.4187
-1.66768
32.7848
-1.7255
33.1557
-1.7832
33.5318
-1.8407
33.9118
-1.89806
34.2997
-1.955
34.6831
-2.01219
35.1006
-2.06742
-2.12745
35.4334
20.6851
1.40043
-21.1643
20.2515
1.35017
19.8675
1.30309
19.5346
1.25919
19.2529
1.21834
19.021
1.18034
18.8362
1.1449
18.6951
1.11168
18.5937
1.08032
18.5281
1.05046
18.4941
1.02176
18.488
0.993894
18.5063
0.96658
18.5459
0.939562
18.604
0.91262
18.6783
0.88556
18.7666
0.858219
18.8673
0.830458
18.9788
0.802158
19.0998
0.77322
19.2293
0.743563
19.3663
0.713115
19.5102
0.681822
19.6601
0.649636
19.8157
0.616521
19.9765
0.582446
20.142
0.547388
20.3121
0.511331
20.4864
0.474262
20.6647
0.436175
20.847
0.397065
21.033
0.356933
21.2226
0.315782
21.4159
0.273618
21.6127
0.23045
21.813
0.186288
22.0168
0.141147
22.2241
0.0950401
22.4349
0.047985
22.6492
0
22.8671
-0.048895
23.0885
-0.098679
23.3136
-0.149329
23.5423
-0.200821
23.7747
-0.253131
24.0109
-0.306232
24.2509
-0.360097
24.4947
-0.414699
24.7424
-0.470007
24.9941
-0.525993
25.2498
-0.582626
25.5096
-0.639875
25.7735
-0.697708
26.0415
-0.756091
26.3138
-0.814992
26.5904
-0.874376
26.8712
-0.93421
27.1565
-0.994458
27.4461
-1.05509
27.7402
-1.11605
28.0387
-1.17733
28.3418
-1.23888
28.6494
-1.30065
28.9616
-1.36263
29.2785
-1.42476
29.5999
-1.48701
29.926
-1.54934
30.2568
-1.61171
30.5922
-1.67408
30.9324
-1.73642
31.2773
-1.79869
31.6269
-1.86084
31.9811
-1.92284
32.3403
-1.98463
32.7033
-2.04625
33.0739
-2.10742
33.4402
-2.16883
33.8388
-2.22817
-2.29253
34.1577
19.7599
1.48311
-20.1767
19.3881
1.43297
19.0635
1.3861
18.7865
1.34238
18.5557
1.30162
18.369
1.26355
18.2235
1.22782
18.1155
1.19408
18.0416
1.16196
17.998
1.13112
17.9812
1.10122
17.988
1.07196
18.0155
1.04308
18.0611
1.01434
18.1225
0.985533
18.1978
0.95648
18.2852
0.927031
18.3833
0.897057
18.4909
0.866449
18.6068
0.835114
18.7303
0.802976
18.8605
0.76997
18.9968
0.736042
19.1387
0.701152
19.2857
0.665262
19.4375
0.628346
19.5938
0.590383
19.7543
0.551358
19.9187
0.51126
20.087
0.470083
20.259
0.427825
20.4345
0.384488
20.6136
0.340075
20.7962
0.294595
20.9821
0.248057
21.1715
0.200474
21.3642
0.151859
21.5604
0.102229
21.7599
0.0516031
21.9629
0
22.1693
-0.0525587
22.3792
-0.10605
22.5926
-0.16045
22.8095
-0.215733
23.0301
-0.271872
23.2543
-0.32884
23.4822
-0.386608
23.7139
-0.445147
23.9493
-0.504424
24.1887
-0.564409
24.4319
-0.625069
24.679
-0.686371
24.9301
-0.748281
25.1853
-0.810765
25.4446
-0.873785
25.708
-0.937308
25.9756
-1.0013
26.2474
-1.06571
26.5235
-1.13052
26.8038
-1.19567
27.0885
-1.26115
27.3776
-1.32689
27.6711
-1.39287
27.9689
-1.45905
28.2713
-1.52538
28.5781
-1.59182
28.8893
-1.65834
29.2051
-1.72489
29.5254
-1.79143
29.8502
-1.85792
30.1795
-1.92432
30.5134
-1.99059
30.8518
-2.05669
31.1949
-2.12255
31.5417
-2.18821
31.8957
-2.25339
32.2458
-2.3188
32.6264
-2.38204
-2.45048
32.9321
18.9159
1.56317
-19.2741
18.6008
1.5136
18.3296
1.46726
18.1015
1.42396
17.9145
1.38343
17.7661
1.34536
17.6531
1.30938
17.5724
1.27513
17.5206
1.24226
17.4945
1.21042
17.4912
1.17932
17.5079
1.14866
17.5421
1.11821
17.5918
1.08774
17.6551
1.05707
17.7303
1.02603
17.816
0.994484
17.911
0.962312
18.0144
0.929413
18.1251
0.895701
18.2426
0.861107
18.3661
0.82557
18.4952
0.789042
18.6293
0.751483
18.7682
0.712859
18.9115
0.673148
19.0589
0.632329
19.2103
0.590389
19.3654
0.547319
19.5242
0.503115
19.6865
0.457776
19.8522
0.411305
20.0213
0.363707
20.1937
0.314991
20.3695
0.265169
20.5485
0.214253
20.7308
0.16226
20.9164
0.109207
21.1053
0.0551129
21.2975
0
21.4931
-0.0561094
21.6921
-0.113191
21.8944
-0.171219
22.1003
-0.230167
22.3097
-0.290006
22.5226
-0.350707
22.7391
-0.41224
22.9592
-0.474572
23.183
-0.537673
23.4106
-0.601507
23.6419
-0.666041
23.8771
-0.731239
24.1162
-0.797066
24.3591
-0.863485
24.6061
-0.930459
24.857
-0.99795
25.112
-1.06592
25.3711
-1.13432
25.6342
-1.20313
25.9016
-1.27229
26.1731
-1.34178
26.4488
-1.41154
26.7288
-1.48153
27.0131
-1.55171
27.3016
-1.62205
27.5944
-1.6925
27.8916
-1.76301
28.1931
-1.83354
28.4989
-1.90405
28.8091
-1.97449
29.1237
-2.04482
29.4426
-2.115
29.7658
-2.18499
30.0937
-2.25472
30.425
-2.32423
30.7632
-2.39321
31.0979
-2.46242
31.4612
-2.52935
-2.60165
31.7543
18.1461
1.64137
-18.4504
17.8819
1.59267
17.6577
1.54706
17.4717
1.50429
17.3219
1.46405
17.2054
1.42598
17.1193
1.38974
17.0607
1.35495
17.0266
1.32129
17.0144
1.28844
17.0214
1.2561
17.0454
1.22403
17.0845
1.19199
17.1367
1.15979
17.2007
1.12725
17.2749
1.09423
17.3584
1.06059
17.45
1.02623
17.5489
0.991062
17.6545
0.954996
17.766
0.917972
17.8831
0.879934
18.0051
0.840837
18.1318
0.800646
18.2629
0.759331
18.3981
0.716869
18.5371
0.673243
18.6799
0.628442
18.8262
0.582458
18.976
0.535289
19.1291
0.486935
19.2856
0.437401
19.4453
0.386693
19.6081
0.334821
19.7742
0.281798
19.9435
0.227638
20.1159
0.172358
20.2916
0.115978
20.4704
0.0585177
20.6525
0
20.8379
-0.059551
21.0265
-0.12011
21.2185
-0.181649
21.4138
-0.24414
21.6126
-0.307554
21.8148
-0.371859
22.0205
-0.437023
22.2297
-0.503014
22.4425
-0.569797
22.659
-0.637336
22.8791
-0.705597
23.1029
-0.774541
23.3305
-0.844132
23.5619
-0.914331
23.7971
-0.985098
24.0362
-1.05639
24.2792
-1.12818
24.5261
-1.20041
24.7771
-1.27304
25.032
-1.34604
25.291
-1.41936
25.5541
-1.49295
25.8213
-1.56678
26.0925
-1.6408
26.3679
-1.71496
26.6475
-1.78922
26.9312
-1.86353
27.2191
-1.93785
27.5112
-2.01214
27.8075
-2.08635
28.108
-2.16042
28.4127
-2.23432
28.7215
-2.30801
29.0347
-2.38141
29.3513
-2.45456
29.6745
-2.52716
29.9944
-2.59996
30.3414
-2.67041
-2.74635
30.6223
17.4431
1.71831
-17.699
17.2238
1.67064
17.0401
1.62584
16.89
1.58362
16.7712
1.54364
16.6811
1.50555
16.6169
1.46898
16.5761
1.43361
16.5561
1.39912
16.5546
1.3652
16.5695
1.3316
16.5989
1.29808
16.6411
1.26444
16.6947
1.2305
16.7584
1.19609
16.8311
1.16109
16.9118
1.12537
16.9997
1.08884
17.0942
1.05141
17.1945
1.01301
17.3003
0.973584
17.411
0.933075
17.5263
0.891445
17.646
0.84866
17.7696
0.804694
17.8971
0.759527
18.0282
0.713145
18.1628
0.665536
18.3008
0.616697
18.4421
0.566624
18.5866
0.515321
18.7343
0.462794
18.8851
0.409049
19.039
0.354099
19.196
0.297957
19.356
0.240638
19.5192
0.182163
19.6854
0.122549
19.8548
0.0618206
20.0273
0
20.203
-0.0628868
20.3819
-0.126813
20.564
-0.19175
20.7494
-0.257667
20.9381
-0.324535
21.1302
-0.39232
21.3256
-0.460988
21.5245
-0.530506
21.7269
-0.600837
21.9328
-0.671944
22.1422
-0.743791
22.3553
-0.816338
22.572
-0.889545
22.7924
-0.963373
23.0165
-1.03778
23.2443
-1.11273
23.476
-1.18817
23.7114
-1.26406
23.9507
-1.34036
24.1939
-1.41703
24.441
-1.49402
24.692
-1.57128
24.947
-1.64877
25.2059
-1.72644
25.4688
-1.80425
25.7357
-1.88215
26.0067
-1.96009
26.2816
-2.03803
26.5606
-2.11591
26.8437
-2.1937
27.1307
-2.27134
27.4218
-2.34878
27.7169
-2.42598
28.0162
-2.50287
28.3188
-2.57948
28.6277
-2.65551
28.9336
-2.73171
29.2649
-2.80549
-2.88486
29.5343
16.7994
1.79442
-17.0126
16.6189
1.74783
16.4698
1.70383
16.3498
1.66212
16.2567
1.62233
16.1881
1.58413
16.1416
1.54718
16.115
1.51115
16.106
1.47575
16.1127
1.44073
16.1335
1.40583
16.1666
1.37084
16.2108
1.33558
16.2648
1.29988
16.3275
1.2636
16.3982
1.22662
16.4759
1.18883
16.56
1.15014
16.6499
1.11047
16.7451
1.06976
16.8452
1.02796
16.9498
0.985009
17.0587
0.94088
17.1715
0.89554
17.2881
0.848967
17.4083
0.801142
17.5319
0.752052
17.6588
0.70169
17.789
0.650052
17.9223
0.597138
18.0586
0.542951
18.198
0.487499
18.3404
0.43079
18.4858
0.372839
18.6342
0.313658
18.7856
0.253266
18.9399
0.191682
19.0973
0.128927
19.2577
0.0650247
19.4212
-1.31737e-07
19.5877
-0.0661202
19.7574
-0.133308
19.9302
-0.201533
20.1062
-0.270764
20.2854
-0.340969
20.4679
-0.412114
20.6537
-0.484164
20.8428
-0.557083
21.0352
-0.630833
21.2311
-0.705377
21.4305
-0.780674
21.6333
-0.856685
21.8397
-0.933369
22.0496
-1.01068
22.2632
-1.08859
22.4803
-1.16703
22.7012
-1.24598
22.9257
-1.32539
23.1539
-1.4052
23.3859
-1.48538
23.6217
-1.56587
23.8612
-1.64664
24.1046
-1.72763
24.3518
-1.8088
24.6028
-1.89009
24.8577
-1.97146
25.1165
-2.05286
25.3792
-2.13424
25.6457
-2.21556
25.9161
-2.29675
26.1904
-2.37777
26.4685
-2.45858
26.7505
-2.53912
27.0366
-2.61932
27.3258
-2.69922
27.621
-2.7785
27.9135
-2.85794
28.23
-2.93488
-3.01749
28.4883
16.2079
1.86999
-16.3841
16.0605
1.82444
15.9404
1.78118
15.8454
1.73987
15.7734
1.70018
15.7223
1.66177
15.6899
1.62434
15.6744
1.58758
15.674
1.55122
15.6869
1.51503
15.7118
1.47879
15.7474
1.44231
15.7925
1.40541
15.8462
1.36794
15.9075
1.32979
15.9757
1.29083
16.0501
1.25098
16.1303
1.21015
16.2157
1.16826
16.3059
1.12527
16.4005
1.08111
16.4993
1.03575
16.602
0.98916
16.7084
0.941305
16.8183
0.892167
16.9315
0.84173
17.048
0.789983
17.1677
0.736922
17.2904
0.682543
17.4161
0.626848
17.5447
0.569842
17.6763
0.511533
17.8108
0.451933
17.9482
0.391055
18.0885
0.328914
18.2317
0.26553
18.3777
0.200923
18.5267
0.135116
18.6787
0.0681328
18.8336
0
18.9915
-0.0692546
19.1525
-0.139601
19.3165
-0.211009
19.4835
-0.283445
19.6538
-0.356876
19.8272
-0.431266
20.0037
-0.506579
20.1836
-0.582778
20.3667
-0.659824
20.5531
-0.737677
20.7429
-0.816295
20.936
-0.895639
21.1326
-0.975665
21.3326
-1.05633
21.5361
-1.13759
21.7431
-1.2194
21.9537
-1.30171
22.1678
-1.38447
22.3856
-1.46765
22.6069
-1.55119
22.8319
-1.63505
23.0606
-1.71917
23.2929
-1.8035
23.5289
-1.888
23.7687
-1.97262
24.0121
-2.05731
24.2593
-2.14201
24.5102
-2.22667
24.7649
-2.31125
25.0232
-2.39568
25.2854
-2.47993
25.5512
-2.56394
25.8207
-2.64765
26.0942
-2.73101
26.3707
-2.81402
26.6528
-2.89639
26.9326
-2.97889
27.2349
-3.05884
-3.14449
27.4827
15.6618
1.94521
-15.8064
15.5423
1.90059
15.4463
1.85794
15.3718
1.81692
15.317
1.7772
15.2799
1.73848
15.2587
1.70047
15.2519
1.6629
15.258
1.62552
15.2755
1.58812
15.3033
1.5505
15.3402
1.51249
15.3855
1.47393
15.4382
1.4347
15.4976
1.39467
15.5632
1.35374
15.6343
1.31183
15.7105
1.26887
15.7914
1.22479
15.8767
1.17953
15.966
1.13305
16.0592
1.08532
16.156
1.0363
16.2563
0.985972
16.3598
0.934312
16.4665
0.88131
16.5763
0.826958
16.689
0.77125
16.8047
0.714187
16.9233
0.655772
17.0447
0.596011
17.1689
0.534913
17.2959
0.472491
17.4258
0.40876
17.5584
0.343737
17.6938
0.277442
17.8321
0.209896
17.9732
0.141122
18.1171
0.0711481
18.264
0
18.4137
-0.0722927
18.5664
-0.145699
18.7221
-0.220187
18.8807
-0.295723
19.0424
-0.372272
19.2072
-0.449797
19.3751
-0.52826
19.5462
-0.607623
19.7204
-0.687845
19.8978
-0.768885
20.0785
-0.850702
20.2625
-0.933252
20.4497
-1.01649
20.6403
-1.10037
20.8343
-1.18485
21.0317
-1.26989
21.2325
-1.35542
21.4368
-1.44142
21.6445
-1.52782
21.8558
-1.61458
22.0705
-1.70165
22.2888
-1.78897
22.5107
-1.87651
22.7361
-1.96419
22.965
-2.05199
23.1976
-2.13983
23.4337
-2.22768
23.6735
-2.31547
23.9168
-2.40316
24.1637
-2.49069
24.4143
-2.578
24.6684
-2.66505
24.926
-2.75178
25.1874
-2.83813
25.4518
-2.9241
25.7215
-3.0094
25.9891
-3.0948
26.2779
-3.1776
-3.26614
26.5156
15.155
2.02015
-15.273
15.0587
1.97633
14.9826
1.93414
14.9249
1.89326
14.8839
1.85339
14.8579
1.81425
14.8456
1.77557
14.8455
1.73711
14.8564
1.69865
14.8771
1.65999
14.9067
1.62095
14.9442
1.58139
14.989
1.54116
15.0404
1.50014
15.0976
1.45824
15.1603
1.41535
15.228
1.3714
15.3003
1.32633
15.3768
1.28007
15.4573
1.23258
15.5416
1.18381
15.6294
1.13373
15.7206
1.08232
15.815
1.02956
15.9125
0.975421
16.013
0.919902
16.1164
0.862994
16.2227
0.804694
16.3317
0.745004
16.4436
0.683929
16.5581
0.621475
16.6754
0.557655
16.7954
0.49248
16.9181
0.425969
17.0435
0.358139
17.1716
0.28901
17.3025
0.218606
17.4361
0.146951
17.5725
0.0740731
17.7117
0
17.8537
-0.0752379
17.9986
-0.151609
18.1464
-0.229079
18.2971
-0.307613
18.4508
-0.387175
18.6074
-0.467728
18.7671
-0.549232
18.9298
-0.631647
19.0956
-0.714931
19.2645
-0.799043
19.4365
-0.883939
19.6118
-0.969574
19.7902
-1.0559
19.9719
-1.14288
20.1568
-1.23046
20.3451
-1.31858
20.5366
-1.40722
20.7315
-1.4963
20.9298
-1.58579
21.1314
-1.67563
21.3364
-1.76578
21.5448
-1.85617
21.7567
-1.94676
21.972
-2.0375
22.1907
-2.12832
22.4129
-2.21918
22.6385
-2.31003
22.8676
-2.40081
23.1002
-2.49146
23.3362
-2.58193
23.5757
-2.67216
23.8186
-2.7621
24.0649
-2.85171
24.3149
-2.94089
24.5677
-3.02968
24.8256
-3.11776
25.0815
-3.20591
25.3575
-3.29142
-3.38266
25.5855
14.6822
2.09483
-14.778
14.6052
2.05164
14.5453
2.00976
14.5011
1.96888
14.4711
1.92874
14.454
1.88906
14.4484
1.84962
14.4534
1.8102
14.4678
1.77059
14.4906
1.73063
14.5212
1.69015
14.5587
1.64901
14.6026
1.60709
14.6522
1.56429
14.7071
1.52051
14.7668
1.47567
14.831
1.4297
14.8994
1.38253
14.9717
1.33411
15.0476
1.28441
15.1271
1.23339
15.2097
1.181
15.2956
1.12724
15.3844
1.07208
15.4762
1.01551
15.5708
0.957523
15.6682
0.898109
15.7684
0.837271
15.8712
0.775011
15.9766
0.711334
16.0847
0.646251
16.1955
0.579773
16.3088
0.511914
16.4248
0.442694
16.5434
0.372129
16.6646
0.300244
16.7885
0.227062
16.915
0.152608
17.0443
0.0769107
17.1763
0
17.311
-0.0780929
17.4485
-0.157335
17.5889
-0.237692
17.732
-0.319127
17.8781
-0.401602
18.027
-0.48508
18.1788
-0.56952
18.3336
-0.654879
18.4915
-0.741117
18.6523
-0.828189
18.8162
-0.916049
18.9831
-1.00465
19.1532
-1.09395
19.3264
-1.1839
19.5027
-1.27445
19.6823
-1.36555
19.865
-1.45716
20.051
-1.54921
20.2402
-1.64166
20.4327
-1.73445
20.6284
-1.82754
20.8275
-1.92087
21.0298
-2.01438
21.2355
-2.10803
21.4445
-2.20175
21.6568
-2.29549
21.8724
-2.3892
22.0914
-2.48282
22.3137
-2.5763
22.5393
-2.66957
22.7683
-2.76258
23.0006
-2.85528
23.2361
-2.94761
23.4751
-3.03949
23.7169
-3.13095
23.9635
-3.22167
24.2084
-3.31243
24.4721
-3.40051
-3.4943
24.6909
14.2388
2.16924
-14.3162
14.1775
2.1265
14.1307
2.08476
14.0974
2.04374
14.0761
2.00319
14.0659
1.96289
14.0656
1.9226
14.0742
1.88215
14.091
1.84134
14.1152
1.80003
14.1461
1.75808
14.183
1.71535
14.2256
1.67174
14.2732
1.62715
14.3256
1.5815
14.3824
1.53471
14.4431
1.48673
14.5077
1.43749
14.5759
1.38694
14.6474
1.33506
14.7222
1.2818
14.8
1.22715
14.8807
1.17107
14.9643
1.11356
15.0507
1.0546
15.1398
0.994192
15.2315
0.932324
15.3258
0.869
15.4227
0.804225
15.5222
0.738006
15.6242
0.670354
15.7287
0.601283
15.8358
0.530807
15.9454
0.458947
16.0576
0.385721
16.1723
0.311154
16.2896
0.23527
16.4095
0.158097
16.532
0.0796636
16.6572
-1.31637e-07
16.785
-0.0808607
16.9156
-0.162884
17.0488
-0.246036
17.1849
-0.330277
17.3237
-0.415569
17.4653
-0.501873
17.6097
-0.589147
17.7571
-0.677349
17.9073
-0.766434
18.0605
-0.856358
18.2166
-0.947075
18.3757
-1.03854
18.5378
-1.1307
18.7029
-1.22351
18.8711
-1.31691
19.0424
-1.41087
19.2168
-1.50532
19.3943
-1.60021
19.5749
-1.6955
19.7587
-1.79112
19.9456
-1.88703
20.1358
-1.98317
20.3291
-2.07948
20.5256
-2.17591
20.7253
-2.27239
20.9282
-2.36889
21.1343
-2.46533
21.3436
-2.56166
21.5561
-2.65783
21.7719
-2.75377
21.9908
-2.84943
22.2129
-2.94474
22.4382
-3.03967
22.6668
-3.13411
22.898
-3.22811
23.1339
-3.32134
23.3682
-3.41456
23.6203
-3.50508
-3.60129
23.8303
13.8208
2.24331
-13.8831
13.7722
2.20085
13.7361
2.15909
13.7113
2.11779
13.6969
2.07673
13.692
2.03569
13.6955
1.99449
13.7068
1.95294
13.7252
1.91089
13.75
1.8682
13.7807
1.82474
13.8167
1.78041
13.8577
1.73509
13.9032
1.68872
13.953
1.64121
14.0067
1.59249
14.0642
1.54251
14.125
1.49121
14.1892
1.43857
14.2565
1.38453
14.3268
1.32908
14.4
1.27219
14.4759
1.21384
14.5545
1.15402
14.6358
1.09271
14.7196
1.02993
14.806
0.965655
14.8948
0.899898
14.9862
0.832664
15.08
0.763962
15.1762
0.693802
15.2749
0.6222
15.3761
0.549173
15.4797
0.474741
15.5858
0.398925
15.6944
0.321748
15.8055
0.243239
15.9191
0.163424
16.0352
0.0823339
16.1539
0
16.2752
-0.0835439
16.3992
-0.168262
16.5258
-0.254119
16.655
-0.341075
16.787
-0.429092
16.9217
-0.518127
17.0591
-0.608138
17.1994
-0.699082
17.3424
-0.790914
17.4883