/*--------------------------------*- C++ -*----------------------------------*\
| =========                 |                                                 |
| \\      /  F ield         | OpenFOAM: The Open Source CFD Toolbox           |
|  \\    /   O peration     | Version:  2312                                  |
|   \\  /    A nd           | Website:  www.openfoam.com                      |
|    \\/     M anipulation  |                                                 |
\*---------------------------------------------------------------------------*/
FoamFile
{
    version     2.0;
    format      ascii;
    arch        "LSB;label=32;scalar=64";
    class       surfaceScalarField;
    location    "0.641";
    object      phi;
}
// * * * * * * * * * * * * * * * * * * * * * * * * * * * * * * * * * * * * * //

dimensions      [0 3 -1 0 0 0 0];

oriented        oriented;

internalField   nonuniform List<scalar> 
62015
(
26.3005
0.138279
-26.2193
26.453
0.136902
26.6663
0.135714
26.9304
0.134651
27.2358
0.133651
27.5742
0.132661
27.9384
0.131636
28.3224
0.130538
28.7213
0.129337
29.131
0.128006
29.5485
0.126527
29.9712
0.124883
30.3971
0.123061
30.8248
0.121054
31.253
0.118853
31.6809
0.116453
32.108
0.11385
32.5338
0.111042
32.958
0.108027
33.3805
0.104806
33.8012
0.101377
34.2202
0.0977429
34.6375
0.0939036
35.0534
0.0898611
35.4679
0.0856178
35.8813
0.0811759
36.2939
0.076538
36.7058
0.0717071
37.1174
0.0666865
37.5288
0.0614795
37.9405
0.0560897
38.3527
0.0505202
38.7657
0.0447759
39.1797
0.0388597
39.595
0.0327765
40.012
0.0265298
40.431
0.0201247
40.8521
0.0135647
41.2757
0.006855
41.702
0
42.1313
-0.00699581
42.5638
-0.014127
42.9998
-0.0213898
43.4395
-0.0287782
43.8832
-0.0362881
44.3311
-0.0439136
44.7833
-0.0516504
45.2402
-0.0594925
45.7018
-0.0674356
46.1684
-0.0754735
46.6402
-0.0836013
47.1174
-0.0918134
47.6001
-0.100105
48.0884
-0.108469
48.5826
-0.116902
49.0827
-0.125396
49.5889
-0.133948
50.1013
-0.142551
50.6201
-0.151199
51.1453
-0.159887
51.6771
-0.168609
52.2155
-0.177359
52.7606
-0.186131
53.3125
-0.194921
53.8713
-0.203721
54.437
-0.212527
55.0097
-0.221331
55.5893
-0.23013
56.176
-0.238916
56.7698
-0.247684
57.3706
-0.256429
57.9785
-0.265143
58.5934
-0.273823
59.2158
-0.28246
59.8436
-0.291057
60.4838
-0.299578
61.1146
-0.308117
61.8026
-0.316349
-0.325275
62.3433
25.7569
0.275108
-25.6243
25.9474
0.272809
26.1861
0.270754
26.4643
0.268831
26.7744
0.26694
27.1096
0.264992
27.4643
0.262916
27.8338
0.260652
28.2144
0.25815
28.6028
0.255369
28.9968
0.25228
29.3944
0.248856
29.7941
0.245078
30.1947
0.240931
30.5954
0.236404
30.9955
0.231488
31.3947
0.226178
31.7926
0.22047
32.1891
0.214363
32.584
0.207856
32.9775
0.20095
33.3694
0.193647
33.76
0.185949
34.1495
0.17786
34.5379
0.169384
34.9255
0.160526
35.3126
0.151292
35.6993
0.141686
36.086
0.131715
36.4729
0.121386
36.8602
0.110705
37.2483
0.0996792
37.6374
0.088316
38.0277
0.0766235
38.4196
0.064609
38.8133
0.0522807
39.209
0.0396472
39.6071
0.0267166
40.0078
0.013498
40.4113
0
40.8179
-0.0137683
41.2278
-0.0277976
41.6412
-0.0420788
42.0584
-0.0566023
42.4795
-0.0713579
42.9049
-0.0863368
43.3346
-0.101528
43.7689
-0.116923
44.208
-0.13251
44.652
-0.148279
45.1011
-0.164221
45.5555
-0.180324
46.0153
-0.196578
46.4807
-0.212973
46.9519
-0.229497
47.4288
-0.24614
47.9118
-0.262891
48.4009
-0.279739
48.8961
-0.296673
49.3977
-0.313683
49.9056
-0.330756
50.4201
-0.347882
50.9411
-0.36505
51.4687
-0.382247
52.003
-0.399465
52.544
-0.41669
53.0919
-0.433912
53.6465
-0.45112
54.208
-0.468302
54.7764
-0.485446
55.3516
-0.502543
55.9338
-0.51958
56.5227
-0.536548
57.119
-0.55343
57.7206
-0.570233
58.3339
-0.586885
58.9389
-0.60357
59.5972
-0.619669
-0.63707
60.1202
25.2787
0.411346
-25.1072
25.4959
0.408396
25.7503
0.405639
26.0349
0.402936
26.3435
0.400162
26.671
0.397216
27.013
0.394008
27.3658
0.390469
27.7267
0.38654
28.0932
0.382174
28.4635
0.377333
28.8362
0.371988
29.2101
0.366116
29.5845
0.359698
29.9586
0.352723
30.332
0.34518
30.7045
0.337062
31.0758
0.328367
31.4457
0.319093
31.8144
0.30924
32.1818
0.298809
32.548
0.287805
32.9132
0.276231
33.2775
0.264092
33.6411
0.251395
34.0043
0.238146
34.3671
0.224354
34.7299
0.210027
35.093
0.195173
35.4565
0.179802
35.8206
0.163924
36.1858
0.147549
36.5522
0.130687
36.92
0.113349
37.2896
0.095548
37.6611
0.0772943
38.0348
0.0586003
38.411
0.0394779
38.7899
0.0199405
39.1717
0
39.5567
-0.0203301
39.945
-0.0410362
40.3369
-0.062105
40.7326
-0.0835228
41.1323
-0.105276
41.5362
-0.127349
41.9444
-0.149729
42.3572
-0.172401
42.7748
-0.195349
43.1972
-0.21856
43.6247
-0.242018
44.0573
-0.265708
44.4954
-0.289614
44.9389
-0.313722
45.3881
-0.338015
45.843
-0.362478
46.3037
-0.387094
46.7704
-0.411849
47.2432
-0.436727
47.7222
-0.46171
48.2074
-0.486783
48.6989
-0.51193
49.1968
-0.537134
49.7012
-0.562379
50.2121
-0.58765
50.7296
-0.612928
51.2537
-0.6382
51.7844
-0.663446
52.3218
-0.688653
52.8659
-0.713802
53.4166
-0.738879
53.9741
-0.763865
54.5382
-0.788747
55.1094
-0.813501
55.6858
-0.838138
56.2734
-0.862553
56.8536
-0.887008
57.4837
-0.91062
-0.936081
57.9879
24.8446
0.547481
-24.6463
25.0781
0.543991
25.34
0.540572
25.6246
0.53707
25.9271
0.533355
26.2435
0.529318
26.5706
0.524866
26.9056
0.519925
27.2462
0.514433
27.5908
0.508342
27.9379
0.501611
28.2866
0.49421
28.6359
0.486114
28.9852
0.477305
29.334
0.467769
29.6822
0.457498
30.0294
0.446484
30.3755
0.434725
30.7205
0.422219
31.0644
0.408968
31.4074
0.394975
31.7494
0.380245
32.0906
0.364783
32.4313
0.348596
32.7715
0.331694
33.1116
0.314083
33.4516
0.295776
33.7919
0.276782
34.1326
0.257112
34.474
0.23678
34.8164
0.215797
35.1599
0.194176
35.5048
0.171932
35.8514
0.149078
36.1998
0.125629
36.5504
0.1016
36.9033
0.077007
37.2587
0.0518651
37.617
0.0261906
37.9782
0
38.3427
-0.0266897
38.7106
-0.0538614
39.0821
-0.0814978
39.4574
-0.109581
39.8367
-0.138092
40.2202
-0.167014
40.608
-0.196328
41.0004
-0.226016
41.3974
-0.256056
41.7993
-0.286433
42.2062
-0.317124
42.6182
-0.348111
43.0355
-0.379374
43.4582
-0.410892
43.8864
-0.442647
44.3202
-0.474617
44.7598
-0.506782
45.2052
-0.539121
45.6565
-0.571615
46.1139
-0.604241
46.5774
-0.63698
47.047
-0.669809
47.5229
-0.702709
48.0051
-0.735658
48.4936
-0.768635
48.9885
-0.801618
49.4899
-0.834588
49.9977
-0.867521
50.512
-0.900398
51.0328
-0.933198
51.5601
-0.965898
52.0939
-0.998478
52.6342
-1.03092
53.1813
-1.06319
53.7336
-1.0953
54.2966
-1.12713
54.8528
-1.15899
55.4561
-1.18978
-1.22291
55.9415
24.4389
0.683741
-24.2245
24.6803
0.679705
24.943
0.675572
25.2226
0.671189
25.5155
0.666427
25.8186
0.661177
26.1294
0.65535
26.4458
0.64887
26.7662
0.641678
27.0893
0.633725
27.414
0.624973
27.7396
0.61539
28.0653
0.604953
28.3909
0.593644
28.716
0.58145
29.0403
0.568362
29.3637
0.554376
29.6863
0.539487
30.0079
0.523698
30.3286
0.507009
30.6486
0.489426
30.9679
0.470955
31.2867
0.451602
31.6052
0.431377
31.9235
0.41029
32.2419
0.388353
32.5605
0.365576
32.8796
0.341974
33.1994
0.317559
33.5201
0.292347
33.8419
0.266352
34.165
0.239591
34.4898
0.21208
34.8163
0.183835
35.1448
0.154876
35.4756
0.125219
35.8088
0.0948841
36.1447
0.0638894
36.4834
0.0322546
36.8253
0
37.1703
-0.0328543
37.5188
-0.0662877
37.871
-0.100279
38.227
-0.134806
38.587
-0.169848
38.9511
-0.205382
39.3196
-0.241387
39.6926
-0.277838
40.0702
-0.314713
40.4525
-0.351989
40.8398
-0.389643
41.2322
-0.42765
41.6297
-0.465986
42.0325
-0.504627
42.4408
-0.543549
42.8545
-0.582727
43.2739
-0.622137
43.699
-0.661753
44.1299
-0.70155
44.5666
-0.741504
45.0093
-0.781588
45.4581
-0.821777
45.9129
-0.862046
46.3738
-0.90237
46.841
-0.942722
47.3143
-0.983077
47.7939
-1.02341
48.2798
-1.06369
48.772
-1.1039
49.2705
-1.14401
49.7754
-1.184
50.2866
-1.22383
50.804
-1.26349
51.3281
-1.30293
51.8572
-1.34219
52.3966
-1.38108
52.9298
-1.42002
53.5075
-1.45765
-1.49809
53.9742
24.0508
0.820183
-23.8285
24.2935
0.815514
24.5521
0.810559
24.8232
0.805173
25.104
0.799232
25.3922
0.792633
25.6859
0.785291
25.9836
0.777136
26.284
0.768109
26.5861
0.758167
26.8893
0.747271
27.1928
0.735392
27.4964
0.722509
27.7995
0.708605
28.1022
0.693667
28.4041
0.677689
28.7053
0.660665
29.0057
0.642595
29.3054
0.62348
29.6044
0.603325
29.9029
0.582133
30.201
0.559914
30.4988
0.536677
30.7966
0.512431
31.0944
0.487188
31.3925
0.460963
31.691
0.433768
31.9903
0.405619
32.2904
0.376532
32.5916
0.346524
32.8941
0.315612
33.1981
0.283816
33.5038
0.251153
33.8115
0.217643
34.1213
0.183309
34.4334
0.148169
34.7481
0.112245
35.0655
0.0755611
35.3858
0.0381382
35.7092
0
36.036
-0.0388299
36.3662
-0.0783275
36.7001
-0.118468
37.0377
-0.159227
37.3794
-0.200579
37.7252
-0.242497
38.0753
-0.284957
38.4299
-0.327931
38.789
-0.371392
39.1528
-0.415314
39.5215
-0.45967
39.8952
-0.50443
40.2739
-0.549568
40.6578
-0.595055
41.0471
-0.640863
41.4417
-0.686964
41.8418
-0.733327
42.2475
-0.779924
42.6589
-0.826727
43.076
-0.873704
43.4989
-0.920828
43.9277
-0.968068
44.3624
-1.01539
44.8031
-1.06278
45.2498
-1.11019
45.7025
-1.1576
46.1613
-1.20497
46.6263
-1.25228
47.0973
-1.2995
47.5745
-1.3466
48.0578
-1.39354
48.5473
-1.4403
49.0428
-1.48685
49.5449
-1.53315
50.0517
-1.57921
50.5685
-1.62485
51.0796
-1.67054
51.6329
-1.7147
-1.76209
52.0815
23.6728
0.956754
-23.4491
23.912
0.95132
24.1629
0.945404
24.4229
0.938871
24.6901
0.931607
24.9625
0.923518
25.2389
0.914523
25.5179
0.904559
25.7988
0.893572
26.0808
0.88152
26.3634
0.86837
26.646
0.854094
26.9285
0.838671
27.2106
0.822088
27.4922
0.804334
27.7731
0.785402
28.0534
0.765289
28.3332
0.743996
28.6124
0.721526
28.8911
0.697883
29.1695
0.673075
29.4477
0.64711
29.7259
0.62
30.0042
0.591756
30.2828
0.562393
30.5619
0.531924
30.8417
0.500366
31.1223
0.467736
31.4039
0.434053
31.6869
0.399335
31.9712
0.363602
32.2573
0.326874
32.5451
0.289174
32.835
0.250524
33.1272
0.210946
33.4217
0.170465
33.7189
0.129104
34.0189
0.0868895
34.3218
0.0438462
34.6279
0
34.9374
-0.0446221
35.2503
-0.0899926
35.5668
-0.136084
35.8872
-0.182869
36.2115
-0.230317
36.54
-0.278401
36.8727
-0.327089
37.2097
-0.376354
37.5513
-0.426163
37.8976
-0.476487
38.2486
-0.527294
38.6044
-0.578553
38.9653
-0.630233
39.3313
-0.6823
39.7024
-0.734724
40.0789
-0.787472
40.4607
-0.84051
40.8479
-0.893807
41.2407
-0.947328
41.6391
-1.00104
42.0431
-1.05491
42.4528
-1.10891
42.8683
-1.16299
43.2896
-1.21714
43.7168
-1.2713
44.1498
-1.32546
44.5888
-1.37957
45.0337
-1.4336
45.4845
-1.48752
45.9413
-1.54129
46.404
-1.59488
46.8727
-1.64826
47.3473
-1.70139
47.8281
-1.75422
48.3138
-1.80679
48.8089
-1.85887
49.2987
-1.91098
49.8287
-1.96139
-2.01538
50.2597
23.3
1.09334
-23.0795
23.5322
1.08698
23.7729
1.07995
24.0203
1.07212
24.2729
1.06339
24.5292
1.05367
24.7882
1.04289
25.049
1.03099
25.3111
1.01792
25.5738
1.00365
25.8367
0.98815
26.0996
0.971386
26.3623
0.953343
26.6245
0.93401
26.8863
0.913377
27.1476
0.89144
27.4084
0.868197
27.6687
0.84365
27.9287
0.817802
28.1885
0.790661
28.4481
0.762235
28.7078
0.732534
28.9676
0.701571
29.2277
0.669358
29.4884
0.635913
29.7496
0.60125
30.0118
0.565388
30.2749
0.528346
30.5393
0.490143
30.8051
0.450802
31.0724
0.410343
31.3415
0.36879
31.6126
0.326167
31.8858
0.282498
32.1614
0.237808
32.4394
0.192125
32.7201
0.145475
33.0036
0.0978846
33.2902
0.0493834
33.5799
0
33.8729
-0.0502362
34.1695
-0.101295
34.4697
-0.153146
34.7737
-0.205757
35.0816
-0.259097
35.3935
-0.313134
35.7097
-0.367834
36.0302
-0.423165
36.3552
-0.479093
36.6847
-0.535584
37.0189
-0.592603
37.3579
-0.650116
37.7018
-0.708087
38.0507
-0.766481
38.4046
-0.825262
38.7637
-0.884395
39.1281
-0.943842
39.4978
-1.00357
39.8728
-1.06353
40.2533
-1.1237
40.6393
-1.18404
41.0309
-1.24451
41.4281
-1.30507
41.8309
-1.36568
42.2394
-1.42632
42.6536
-1.48693
43.0736
-1.54748
43.4993
-1.60794
43.9308
-1.66826
44.3681
-1.72841
44.8111
-1.78836
45.2599
-1.84805
45.7144
-1.90746
46.175
-1.96654
46.6403
-2.02531
47.1146
-2.08353
47.5842
-2.14177
48.0917
-2.19813
-2.2584
48.5059
22.929
1.22977
-22.715
23.1517
1.22233
23.3807
1.21402
23.6146
1.20474
23.8521
1.1944
24.0922
1.18292
24.3342
1.17023
24.5774
1.15628
24.8214
1.14104
25.0657
1.12445
25.31
1.10651
25.5543
1.08717
25.7983
1.06644
26.0419
1.0443
26.2851
1.02074
26.528
0.995753
26.7705
0.969348
27.0128
0.941524
27.2548
0.912287
27.4969
0.881644
27.7389
0.849606
27.9812
0.816185
28.2239
0.781393
28.467
0.745246
28.7108
0.707762
28.9554
0.668958
29.201
0.628853
29.4478
0.587469
29.696
0.544826
29.9456
0.500949
30.197
0.455861
30.4502
0.409588
30.7055
0.362154
30.963
0.313587
31.2229
0.263915
31.4853
0.213166
31.7505
0.161369
32.0185
0.108556
32.2896
0.0547553
32.5639
0
32.8415
-0.055678
33.1226
-0.112246
33.4073
-0.16967
33.6957
-0.227916
33.9881
-0.28695
34.2845
-0.346736
34.585
-0.407239
34.8898
-0.468422
35.199
-0.530248
35.5126
-0.59268
35.8309
-0.655682
36.1538
-0.719213
36.4816
-0.783236
36.8142
-0.847713
37.1518
-0.912604
37.4944
-0.977869
37.8421
-1.04347
38.195
-1.10936
38.5532
-1.17551
38.9167
-1.24188
39.2855
-1.30842
39.6598
-1.37509
40.0395
-1.44185
40.4246
-1.50866
40.8153
-1.57548
41.2116
-1.64227
41.6134
-1.70899
42.0208
-1.77559
42.4338
-1.84203
42.8524
-1.90828
43.2766
-1.97429
43.7065
-2.04002
44.1418
-2.10543
44.583
-2.17047
45.0287
-2.23515
45.4832
-2.29923
45.9333
-2.36332
46.4193
-2.42536
-2.4916
46.8174
22.5575
1.36588
-22.3523
22.7693
1.35718
22.9857
1.34745
23.2055
1.33658
23.4278
1.32449
23.6521
1.31113
23.8775
1.29642
24.1038
1.28032
24.3305
1.26279
24.5574
1.24381
24.7842
1.22334
25.0109
1.20138
25.2373
1.1779
25.4634
1.15289
25.6893
1.12636
25.9149
1.0983
26.1404
1.06871
26.3657
1.0376
26.591
1.00496
26.8165
0.970823
27.0421
0.935186
27.2682
0.898065
27.4947
0.859475
27.7219
0.819433
27.95
0.777957
28.179
0.735067
28.4091
0.690784
28.6406
0.64513
28.8735
0.598128
29.1081
0.549804
29.3444
0.500183
29.5827
0.449292
29.8232
0.39716
30.0659
0.343814
30.311
0.289285
30.5588
0.233604
30.8093
0.176802
31.0627
0.118912
31.3192
0.0599664
31.5789
0
31.8418
-0.0609528
32.1083
-0.122857
32.3784
-0.185675
32.6522
-0.249371
32.9298
-0.313908
33.2114
-0.379247
33.4971
-0.445351
33.787
-0.512179
34.0812
-0.579692
34.3798
-0.647849
34.6829
-0.716611
34.9906
-0.785936
35.303
-0.855782
35.6202
-0.926108
35.9422
-0.996871
36.2691
-1.06803
36.601
-1.13954
36.938
-1.21136
37.2801
-1.28344
37.6273
-1.35574
37.9798
-1.42822
38.3375
-1.50084
38.7005
-1.57354
39.0688
-1.64628
39.4425
-1.71903
39.8216
-1.79173
40.2061
-1.86434
40.596
-1.93682
40.9914
-2.00912
41.3921
-2.08119
41.7983
-2.153
42.21
-2.22449
42.6269
-2.29563
43.0496
-2.36635
43.4767
-2.43668
43.9121
-2.50636
44.3435
-2.57601
44.809
-2.64347
-2.71539
45.1916
22.1843
1.50147
-21.9892
22.3842
1.49136
22.5874
1.48005
22.7931
1.46746
23.0006
1.45352
23.2093
1.43815
23.4189
1.42132
23.629
1.40298
23.8393
1.38309
24.0497
1.36163
24.26
1.33858
24.4701
1.31392
24.6801
1.28765
24.8899
1.25974
25.0995
1.23021
25.309
1.19905
25.5184
1.16626
25.7279
1.13185
25.9376
1.09582
26.1475
1.05819
26.3579
1.01898
26.5687
0.978182
26.7802
0.935829
26.9926
0.891934
27.2058
0.846518
27.4202
0.7996
27.6359
0.751204
27.8529
0.701353
28.0716
0.650074
28.292
0.597391
28.5142
0.543333
28.7385
0.487928
28.965
0.431207
29.1938
0.3732
29.4251
0.313939
29.659
0.253456
29.8957
0.191786
30.1353
0.128962
30.378
0.0650217
30.6239
0
30.8731
-0.0660657
31.1257
-0.133138
31.3819
-0.201178
31.6418
-0.270145
31.9055
-0.340001
32.1731
-0.410705
32.4447
-0.482215
32.7205
-0.554489
33.0005
-0.627485
33.2848
-0.701161
33.5735
-0.775471
33.8667
-0.850373
34.1645
-0.925822
34.467
-1.00177
34.7742
-1.07818
35.0862
-1.155
35.403
-1.23218
35.7248
-1.30969
36.0516
-1.38746
36.3833
-1.46546
36.7202
-1.54364
37.0622
-1.62195
37.4093
-1.70035
37.7615
-1.77878
38.119
-1.8572
38.4817
-1.93556
38.8497
-2.01381
39.2229
-2.0919
39.6013
-2.1698
39.985
-2.24744
40.374
-2.32478
40.7682
-2.40178
41.1676
-2.47839
41.5725
-2.55454
41.9817
-2.63025
42.399
-2.70526
42.8125
-2.78023
43.2584
-2.85286
-2.93017
43.626
21.8085
1.63635
-21.6246
21.9962
1.62469
22.1862
1.61168
22.3779
1.59725
22.5709
1.58133
22.7647
1.56386
22.9591
1.54482
23.1537
1.52415
23.3485
1.50183
23.5434
1.47783
23.7381
1.45214
23.9328
1.42475
24.1273
1.39564
24.3218
1.3648
24.5162
1.33225
24.7106
1.29797
24.9051
1.26197
25.0999
1.22426
25.2949
1.18485
25.4903
1.14376
25.6863
1.10098
25.883
1.05655
26.0804
1.01047
26.2788
0.962766
26.4783
0.913462
26.679
0.862578
26.881
0.810137
27.0846
0.756165
27.2899
0.700689
27.4969
0.643737
27.7059
0.585338
27.917
0.525521
28.1304
0.46432
28.3461
0.401767
28.5643
0.337894
28.7852
0.272738
29.0089
0.206333
29.2355
0.138716
29.4652
0.069926
29.698
0
29.9342
-0.0710223
30.1737
-0.143101
30.4168
-0.216194
30.6636
-0.290261
30.914
-0.365259
31.1684
-0.441145
31.4267
-0.517875
31.6891
-0.595404
31.9556
-0.673688
32.2263
-0.752681
32.5014
-0.832337
32.7808
-0.912609
33.0648
-0.993449
33.3532
-1.07481
33.6463
-1.15665
33.9441
-1.23891
34.2466
-1.32154
34.5539
-1.4045
34.8661
-1.48774
35.1831
-1.57121
35.5051
-1.65485
35.832
-1.73862
36.1639
-1.82247
36.5009
-1.90635
36.8429
-1.9902
37.1899
-2.07397
37.5421
-2.15762
37.8993
-2.24109
38.2616
-2.32433
38.629
-2.4073
39.0015
-2.48993
39.3792
-2.57219
39.7617
-2.65401
40.1497
-2.73534
40.5418
-2.8162
40.9415
-2.89629
41.338
-2.97632
41.765
-3.05389
-3.13632
42.1184
21.43
1.77035
-21.2576
21.6052
1.757
21.7821
1.74217
21.9603
1.72578
22.1392
1.70779
22.3188
1.68815
22.4987
1.66681
22.6788
1.64375
22.859
1.61893
23.0392
1.59234
23.2193
1.56397
23.3995
1.5338
23.5796
1.50182
23.7597
1.46804
23.9399
1.43244
24.1203
1.39504
24.3009
1.35584
24.4818
1.31484
24.6631
1.27206
24.845
1.22751
25.0276
1.18121
25.211
1.13317
25.3953
1.08341
25.5806
1.03195
25.7672
0.978813
25.955
0.924024
26.1444
0.867608
26.3353
0.809591
26.5279
0.750001
26.7225
0.688868
26.9191
0.626222
27.1178
0.562095
27.3187
0.496522
27.5221
0.429535
27.7281
0.36117
27.9367
0.291465
28.1481
0.220456
28.3625
0.148182
28.5799
0.0746835
28.8004
0
29.0242
-0.0758268
29.2514
-0.152755
29.4821
-0.23074
29.7164
-0.30974
29.9544
-0.389709
30.1961
-0.470602
30.4418
-0.552372
30.6914
-0.634973
30.9452
-0.718357
31.203
-0.802476
31.4651
-0.887282
31.7315
-0.972725
32.0022
-1.05875
32.2774
-1.14532
32.5571
-1.23238
32.8414
-1.31986
33.1302
-1.40774
33.4237
-1.49594
33.722
-1.58442
34.0249
-1.67314
34.3327
-1.76202
34.6453
-1.85103
34.9628
-1.9401
35.2851
-2.02919
35.6123
-2.11824
35.9444
-2.2072
36.2814
-2.29601
36.6234
-2.38462
36.9703
-2.47298
37.3222
-2.56103
37.6789
-2.64872
38.0406
-2.73599
38.4072
-2.82281
38.7788
-2.90908
39.1546
-2.99484
39.5377
-3.07978
39.9177
-3.16464
40.3268
-3.24691
-3.33421
40.6665
21.0487
1.9033
-20.8879
21.2117
1.88814
21.3758
1.87138
21.5408
1.85295
21.7063
1.8328
21.8723
1.81089
22.0385
1.7872
22.2049
1.76168
22.3713
1.73432
22.5378
1.7051
22.7043
1.67401
22.8708
1.64103
23.0375
1.60617
23.2042
1.56942
23.3711
1.53077
23.5383
1.49025
23.7059
1.44784
23.8739
1.40357
24.0425
1.35744
24.2118
1.30947
24.3818
1.25967
24.5528
1.20806
24.7247
1.15467
24.8979
1.0995
25.0723
1.04259
25.2482
0.983963
25.4256
0.923642
25.6046
0.861656
25.7855
0.798035
25.9683
0.732809
26.1532
0.666011
26.3402
0.597675
26.5296
0.527834
26.7214
0.456525
26.9158
0.383785
27.1128
0.309653
27.3126
0.234167
27.5154
0.157369
27.7212
0.0792989
27.9301
0
28.1423
-0.0804845
28.3578
-0.16211
28.5767
-0.244832
28.7992
-0.328604
29.0254
-0.413379
29.2552
-0.49911
29.4889
-0.585747
29.7265
-0.673243
29.9681
-0.761546
30.2137
-0.850608
30.4634
-0.940376
30.7174
-1.0308
30.9756
-1.12182
31.2381
-1.2134
31.5051
-1.30547
31.7764
-1.39799
32.0523
-1.49089
32.3327
-1.58413
32.6177
-1.67765
32.9073
-1.77139
33.2015
-1.8653
33.5004
-1.95933
33.8041
-2.05341
34.1124
-2.1475
34.4255
-2.24153
34.7434
-2.33545
35.066
-2.4292
35.3934
-2.52273
35.7256
-2.61598
36.0625
-2.70889
36.4043
-2.80141
36.7508
-2.89348
37.1019
-2.98505
37.4581
-3.07604
37.8181
-3.16648
38.1852
-3.25605
38.5496
-3.3455
38.9415
-3.43227
-3.52419
39.268
20.6649
2.03503
-20.5156
20.8159
2.01796
20.9677
1.99918
21.1201
1.97861
21.2729
1.95624
21.426
1.93201
21.5793
1.9059
21.7327
1.87788
21.8863
1.84793
22.0399
1.81604
22.1936
1.7822
22.3474
1.7464
22.5014
1.70864
22.6556
1.66891
22.8102
1.62723
22.9651
1.58358
23.1205
1.53799
23.2765
1.49046
23.4332
1.441
23.5906
1.38964
23.7489
1.33638
23.9083
1.28125
24.0688
1.22426
24.2305
1.16544
24.3936
1.10482
24.5582
1.04242
24.7244
0.978265
24.8923
0.912388
25.0621
0.844818
25.2339
0.775588
25.4078
0.704731
25.5839
0.632283
25.7623
0.558279
25.9432
0.482758
26.1266
0.405757
26.3128
0.327317
26.5017
0.247478
26.6935
0.166284
26.8884
0.0837763
27.0863
0
27.2875
-0.0849997
27.4919
-0.171177
27.6998
-0.258484
27.9111
-0.346873
28.126
-0.436295
28.3446
-0.5267
28.5669
-0.618039
28.793
-0.710259
29.0231
-0.803309
29.2571
-0.897135
29.4951
-0.991685
29.7373
-1.08691
29.9836
-1.18274
30.2341
-1.27913
30.4889
-1.37603
30.748
-1.47338
31.0115
-1.57112
31.2794
-1.6692
31.5517
-1.76755
31.8285
-1.86612
32.1099
-1.96485
32.3958
-2.06369
32.6862
-2.16258
32.9812
-2.26145
33.2809
-2.36025
33.5851
-2.45892
33.894
-2.5574
34.2075
-2.65563
34.5256
-2.75356
34.8483
-2.85112
35.1756
-2.94825
35.5076
-3.0449
35.8441
-3.14102
36.1853
-3.23652
36.5304
-3.33142
36.8823
-3.4254
37.2317
-3.51924
37.607
-3.61029
-3.7066
37.9209
20.279
2.1654
-20.1409
20.4184
2.14634
20.5583
2.12544
20.6988
2.10268
20.8395
2.07801
20.9805
2.05141
21.1216
2.02283
21.2629
1.99227
21.4044
1.95971
21.5459
1.92513
21.6877
1.88852
21.8296
1.84989
21.9719
1.80922
22.1145
1.76652
22.2574
1.72179
22.4009
1.67504
22.545
1.62627
22.6897
1.57551
22.8352
1.52275
22.9816
1.46803
23.129
1.41135
23.2775
1.35274
23.4272
1.29221
23.5783
1.2298
23.7307
1.16553
23.8848
1.09942
24.0405
1.0315
24.198
0.961811
24.3574
0.890375
24.5188
0.817228
24.6824
0.742406
24.8482
0.665944
25.0163
0.587879
25.187
0.508252
25.3601
0.427102
25.536
0.344471
25.7146
0.260401
25.8962
0.174935
26.0806
0.0881198
26.2682
-1.78301e-07
26.4589
-0.0893768
26.6529
-0.179963
26.8503
-0.271709
27.051
-0.364566
27.2553
-0.458482
27.4632
-0.553406
27.6747
-0.649285
27.89
-0.746066
28.1091
-0.843694
28.3321
-0.942116
28.559
-1.04128
28.7899
-1.14112
29.0249
-1.24158
29.264
-1.34261
29.5072
-1.44416
29.7547
-1.54615
30.0064
-1.64854
30.2624
-1.75126
30.5227
-1.85425
30.7873
-1.95746
31.0564
-2.06082
31.3298
-2.16427
31.6077
-2.26776
31.89
-2.37122
32.1768
-2.47459
32.468
-2.57781
32.7637
-2.68081
33.0639
-2.78355
33.3686
-2.88594
33.6777
-2.98795
33.9913
-3.08949
34.3094
-3.19052
34.6318
-3.29098
34.9588
-3.39077
35.2896
-3.48993
35.6268
-3.58813
35.9619
-3.68614
36.3214
-3.78128
-3.88175
36.6232
19.8915
2.29429
-19.7643
20.0197
2.27314
20.1485
2.25008
20.2775
2.22506
20.4069
2.19805
20.5364
2.16902
20.6662
2.13795
20.7961
2.10482
20.9262
2.06961
21.0565
2.03232
21.1871
1.99294
21.318
1.95146
21.4493
1.90788
21.5809
1.86221
21.7131
1.81445
21.8459
1.76461
21.9794
1.71269
22.1136
1.65872
22.2488
1.6027
22.3849
1.54465
22.522
1.4846
22.6604
1.42255
22.8
1.35855
22.9411
1.2926
23.0836
1.22473
23.2278
1.15499
23.3737
1.08338
23.5214
1.00995
23.671
0.934733
23.8227
0.857756
23.9766
0.77906
24.1327
0.69868
24.2912
0.616656
24.4521
0.533028
24.6156
0.447838
24.7818
0.361129
24.9507
0.272945
25.1225
0.183331
25.2972
0.0923333
25.475
0
25.6559
-0.0936207
25.84
-0.188478
26.0274
-0.284523
26.2181
-0.381703
26.4124
-0.479965
26.6101
-0.579255
26.8114
-0.67952
27.0164
-0.780705
27.2251
-0.882752
27.4376
-0.985606
27.6539
-1.08921
27.8742
-1.1935
28.0984
-1.29843
28.3266
-1.40392
28.5588
-1.50993
28.7952
-1.6164
29.0356
-1.72325
29.2803
-1.83043
29.5291
-1.93788
29.7822
-2.04554
30.0395
-2.15334
30.3011
-2.26122
30.567
-2.36912
30.8371
-2.47698
31.1116
-2.58472
31.3905
-2.6923
31.6736
-2.79963
31.9611
-2.90667
32.2529
-3.01335
32.5491
-3.1196
32.8495
-3.22536
33.1543
-3.33057
33.4633
-3.43517
33.7767
-3.53907
34.0938
-3.64229
34.417
-3.74451
34.7383
-3.84649
35.0828
-3.94554
-4.04996
35.373
19.5029
2.42157
-19.3861
19.6206
2.39828
19.7386
2.37299
19.857
2.34566
19.9756
2.31626
20.0945
2.28478
20.2135
2.25118
20.3328
2.21546
20.4524
2.17759
20.5722
2.13758
20.6923
2.09541
20.8129
2.05109
20.9339
2.00461
21.0554
1.95599
21.1776
1.90521
21.3004
1.8523
21.424
1.79726
21.5485
1.74011
21.6739
1.68086
21.8003
1.61953
21.928
1.55614
22.0568
1.49072
22.1871
1.42328
22.3188
1.35385
22.452
1.28247
22.5869
1.20915
22.7236
1.13393
22.8621
1.05684
23.0026
0.977917
23.1452
0.897197
23.2899
0.814717
23.4369
0.730514
23.5863
0.644629
23.7381
0.557104
23.8925
0.467982
24.0495
0.377306
24.2093
0.285123
24.3719
0.191478
24.5374
0.096421
24.7059
0
24.8775
-0.0977346
25.0522
-0.196732
25.2302
-0.296938
25.4115
-0.398301
25.5962
-0.500766
25.7843
-0.604278
25.9759
-0.708781
26.1711
-0.814216
26.37
-0.920528
26.5725
-1.02766
26.7788
-1.13554
26.9889
-1.24413
27.2029
-1.35335
27.4207
-1.46314
27.6425
-1.57345
27.8683
-1.68421
28.098
-1.79536
28.3319
-1.90683
28.5698
-2.01856
28.8118
-2.13049
29.0579
-2.24255
29.3082
-2.35468
29.5626
-2.46681
29.8212
-2.57888
30.084
-2.69082
30.351
-2.80256
30.6222
-2.91405
30.8975
-3.02521
31.1771
-3.13598
31.4608
-3.24629
31.7487
-3.35608
32.0407
-3.46528
32.3369
-3.57384
32.6373
-3.68165
32.9413
-3.78875
33.2511
-3.8948
33.5593
-4.00058
33.8893
-4.10335
-4.21152
34.1683
19.1138
2.54714
-19.0069
19.2215
2.52166
19.3295
2.49409
19.4378
2.46441
19.5464
2.4326
19.6552
2.39863
19.7642
2.36249
19.8736
2.32416
19.9833
2.28362
20.0933
2.24089
20.2037
2.19594
20.3146
2.14878
20.4261
2.09941
20.5382
2.04784
20.6509
1.99407
20.7645
1.93811
20.8789
1.87998
20.9942
1.81969
21.1105
1.75725
21.228
1.69268
21.3467
1.62601
21.4667
1.55725
21.5882
1.48644
21.7111
1.4136
21.8356
1.33875
21.9619
1.26193
22.0899
1.18317
22.2198
1.1025
22.3517
1.01995
22.4857
0.935576
22.6219
0.849401
22.7603
0.761469
22.9011
0.67182
23.0444
0.580499
23.1902
0.487548
23.3386
0.393014
23.4897
0.296943
23.6437
0.199385
23.8004
0.100386
23.9602
0
24.123
-0.101723
24.2889
-0.20473
24.4579
-0.308967
24.6302
-0.414379
24.8059
-0.52091
24.9849
-0.628502
25.1673
-0.737098
25.3532
-0.84664
25.5427
-0.957067
25.7358
-1.06832
25.9326
-1.18034
26.133
-1.29305
26.3372
-1.40641
26.5452
-1.52034
26.7571
-1.63479
26.9728
-1.74968
27.1924
-1.86496
27.4159
-1.98056
27.6434
-2.0964
27.8748
-2.21243
28.1103
-2.32858
28.3498
-2.44479
28.5933
-2.56098
28.8409
-2.67708
29.0925
-2.79304
29.3481
-2.90878
29.6078
-3.02424
29.8716
-3.13934
30.1394
-3.25402
30.4113
-3.36822
30.6872
-3.48186
30.9671
-3.59487
31.251
-3.70721
31.539
-3.81876
31.8304
-3.92956
32.1274
-4.03926
32.423
-4.14866
32.7392
-4.25498
-4.36671
33.0075
18.7248
2.67092
-18.6273
18.8231
2.64319
18.9217
2.61331
19.0205
2.58126
19.1196
2.54701
19.219
2.51053
19.3188
2.47183
19.4189
2.43088
19.5193
2.38768
19.6202
2.34222
19.7216
2.2945
19.8236
2.24451
19.9261
2.19227
20.0294
2.13778
20.1334
2.08104
20.2383
2.02206
20.3441
1.96087
20.4509
1.89747
20.5588
1.83188
20.6679
1.76412
20.7783
1.69421
20.89
1.62218
21.0032
1.54805
21.1179
1.47185
21.2343
1.39361
21.3524
1.31336
21.4723
1.23112
21.5942
1.14695
21.718
1.06087
21.844
0.972917
21.9721
0.883136
22.1025
0.791566
22.2352
0.698249
22.3704
0.60323
22.5081
0.506553
22.6484
0.408267
22.7914
0.308418
22.9371
0.207057
23.0857
0.104233
23.2371
0
23.3916
-0.10559
23.5491
-0.212483
23.7097
-0.320623
23.8735
-0.429953
24.0406
-0.540416
24.2109
-0.651954
24.3847
-0.764506
24.5618
-0.878013
24.7424
-0.992413
24.9265
-1.10764
25.1142
-1.22364
25.3055
-1.34035
25.5004
-1.45769
25.699
-1.57561
25.9014
-1.69404
26.1075
-1.81291
26.3174
-1.93215
26.5311
-2.05171
26.7487
-2.17151
26.9701
-2.29148
27.1954
-2.41156
27.4246
-2.53167
27.6577
-2.65175
27.8947
-2.77173
28.1356
-2.89154
28.3805
-3.01111
28.6293
-3.13036
28.882
-3.24924
29.1386
-3.36767
29.3991
-3.48558
29.6635
-3.6029
29.9318
-3.71956
30.2039
-3.8355
30.48
-3.95063
30.7595
-4.06496
31.0443
-4.17814
31.3278
-4.29099
31.6308
-4.40069
-4.5158
31.8889
18.3366
2.79282
-18.2479
18.4259
2.76282
18.5156
2.7306
18.6056
2.69614
18.6959
2.65943
18.7866
2.62045
18.8776
2.57918
18.9691
2.53561
19.061
2.48974
19.1534
2.44157
19.2463
2.39108
19.3399
2.33829
19.4342
2.28319
19.5292
2.2258
19.6251
2.16611
19.7219
2.10416
19.8197
2.03994
19.9186
1.97347
20.0186
1.90477
20.1199
1.83387
20.2225
1.76078
20.3265
1.68552
20.4319
1.60814
20.539
1.52864
20.6478
1.44707
20.7583
1.36346
20.8706
1.27783
20.9849
1.19023
21.1011
1.10069
21.2195
1.00924
21.3401
0.915944
21.4629
0.820827
21.588
0.723935
21.7156
0.625315
21.8457
0.525013
21.9783
0.423077
22.1136
0.319557
22.2516
0.214502
22.3924
0.107965
22.536
-1.78202e-07
22.6826
-0.109339
22.8322
-0.219997
22.9848
-0.331917
23.1406
-0.44504
23.2995
-0.559307
23.4617
-0.674659
23.6271
-0.791034
23.7959
-0.908371
23.968
-1.02661
24.1436
-1.14568
24.3227
-1.26552
24.5053
-1.38606
24.6914
-1.50725
24.8811
-1.629
25.0744
-1.75126
25.2714
-1.87396
25.4721
-1.99703
25.6765
-2.12039
25.8845
-2.24399
26.0964
-2.36774
26.312
-2.49159
26.5314
-2.61546
26.7545
-2.73927
26.9815
-2.86296
27.2122
-2.98646
27.4467
-3.10969
27.6851
-3.23259
27.9272
-3.35508
28.1731
-3.47709
28.4228
-3.59855
28.6762
-3.71939
28.9334
-3.83954
29.1943
-3.95893
29.4591
-4.07746
29.727
-4.19516
30.0001
-4.31167
30.2721
-4.4278
30.5625
-4.54074
-4.65905
30.8107
17.9495
2.91278
-17.8691
18.0306
2.88048
18.112
2.8459
18.1937
2.80903
18.2758
2.76985
18.3583
2.72835
18.4412
2.68451
18.5246
2.63833
18.6085
2.5898
18.693
2.53892
18.7781
2.48569
18.8639
2.4301
18.9505
2.37217
19.0379
2.31191
19.1262
2.24932
19.2155
2.18441
19.3058
2.1172
19.3973
2.04771
19.4899
1.97595
19.5839
1.90195
19.6792
1.82573
19.776
1.74731
19.8743
1.66673
19.9742
1.584
20.0758
1.49917
20.1791
1.41226
20.2844
1.32331
20.3915
1.23235
20.5007
1.13943
20.612
1.04458
20.7254
0.947849
20.8411
0.849273
20.9591
0.748899
21.0795
0.646772
21.2024
0.542943
21.3278
0.437458
21.4558
0.330368
21.5865
0.221727
21.72
0.111586
21.8562
0
21.9954
-0.112975
22.1374
-0.227281
22.2825
-0.342861
22.4306
-0.459655
22.5819
-0.577602
22.7362
-0.696643
22.8938
-0.816713
23.0547
-0.937749
23.2188
-1.05969
23.3863
-1.18246
23.5571
-1.30601
23.7314
-1.43026
23.9092
-1.55514
24.0904
-1.68059
24.2751
-1.80655
24.4634
-1.93293
24.6553
-2.05967
24.8508
-2.18669
25.0498
-2.31394
25.2525
-2.44133
25.4589
-2.5688
25.6689
-2.69626
25.8826