/*--------------------------------*- C++ -*----------------------------------*\
| =========                 |                                                 |
| \\      /  F ield         | OpenFOAM: The Open Source CFD Toolbox           |
|  \\    /   O peration     | Version:  2312                                  |
|   \\  /    A nd           | Website:  www.openfoam.com                      |
|    \\/     M anipulation  |                                                 |
\*---------------------------------------------------------------------------*/
FoamFile
{
    version     2.0;
    format      ascii;
    arch        "LSB;label=32;scalar=64";
    class       volVectorField;
    location    "0.466";
    object      U;
}
// * * * * * * * * * * * * * * * * * * * * * * * * * * * * * * * * * * * * * //

dimensions      [0 1 -1 0 0 0 0];

internalField   nonuniform List<vector> 
31205
(
(235.906 0 0)
(238.119 0 0)
(240.272 0 0)
(242.367 0 0)
(244.408 0 0)
(246.395 0 0)
(248.331 0 0)
(250.217 0 0)
(252.055 0 0)
(253.847 0 0)
(255.594 0 0)
(257.298 0 0)
(258.958 0 0)
(260.578 0 0)
(262.156 0 0)
(263.696 0 0)
(265.197 0 0)
(266.66 0 0)
(268.086 0 0)
(269.476 0 0)
(270.83 0 0)
(272.149 0 0)
(273.434 0 0)
(274.686 0 0)
(275.904 0 0)
(277.089 0 0)
(278.242 0 0)
(279.362 0 0)
(280.452 0 0)
(281.509 0 0)
(282.536 0 0)
(283.532 0 0)
(284.498 0 0)
(285.433 0 0)
(286.339 0 0)
(287.214 0 0)
(288.059 0 0)
(288.875 0 0)
(289.662 0 0)
(290.419 0 0)
(291.146 0 0)
(291.844 0 0)
(292.512 0 0)
(293.151 0 0)
(293.76 0 0)
(294.34 0 0)
(294.889 0 0)
(295.409 0 0)
(295.899 0 0)
(296.358 0 0)
(296.787 0 0)
(297.185 0 0)
(297.551 0 0)
(297.886 0 0)
(298.189 0 0)
(298.46 0 0)
(298.698 0 0)
(298.903 0 0)
(299.073 0 0)
(299.21 0 0)
(299.311 0 0)
(299.376 0 0)
(299.404 0 0)
(299.395 0 0)
(299.347 0 0)
(299.26 0 0)
(299.131 0 0)
(298.961 0 0)
(298.747 0 0)
(298.489 0 0)
(298.183 0 0)
(297.83 0 0)
(297.424 0 0)
(296.969 0 0)
(296.451 0 0)
(295.895 0 0)
(295.22 0 0)
(294.64 0 0)
(293.549 0 0)
(238.253 0 0)
(240.339 0 0)
(242.371 0 0)
(244.35 0 0)
(246.28 0 0)
(248.161 0 0)
(249.996 0 0)
(251.786 0 0)
(253.532 0 0)
(255.235 0 0)
(256.897 0 0)
(258.518 0 0)
(260.101 0 0)
(261.645 0 0)
(263.152 0 0)
(264.622 0 0)
(266.056 0 0)
(267.455 0 0)
(268.82 0 0)
(270.151 0 0)
(271.45 0 0)
(272.715 0 0)
(273.948 0 0)
(275.15 0 0)
(276.321 0 0)
(277.461 0 0)
(278.57 0 0)
(279.649 0 0)
(280.699 0 0)
(281.72 0 0)
(282.711 0 0)
(283.673 0 0)
(284.607 0 0)
(285.512 0 0)
(286.389 0 0)
(287.238 0 0)
(288.058 0 0)
(288.851 0 0)
(289.616 0 0)
(290.353 0 0)
(291.062 0 0)
(291.744 0 0)
(292.398 0 0)
(293.024 0 0)
(293.622 0 0)
(294.192 0 0)
(294.734 0 0)
(295.248 0 0)
(295.734 0 0)
(296.191 0 0)
(296.619 0 0)
(297.019 0 0)
(297.389 0 0)
(297.73 0 0)
(298.04 0 0)
(298.321 0 0)
(298.571 0 0)
(298.79 0 0)
(298.977 0 0)
(299.133 0 0)
(299.256 0 0)
(299.345 0 0)
(299.4 0 0)
(299.421 0 0)
(299.406 0 0)
(299.355 0 0)
(299.266 0 0)
(299.139 0 0)
(298.973 0 0)
(298.765 0 0)
(298.515 0 0)
(298.222 0 0)
(297.883 0 0)
(297.498 0 0)
(297.058 0 0)
(296.583 0 0)
(296.006 0 0)
(295.506 0 0)
(294.573 0 0)
(240.569 0 0)
(242.534 0 0)
(244.45 0 0)
(246.319 0 0)
(248.143 0 0)
(249.923 0 0)
(251.661 0 0)
(253.358 0 0)
(255.014 0 0)
(256.631 0 0)
(258.211 0 0)
(259.754 0 0)
(261.26 0 0)
(262.731 0 0)
(264.167 0 0)
(265.57 0 0)
(266.94 0 0)
(268.277 0 0)
(269.582 0 0)
(270.855 0 0)
(272.098 0 0)
(273.311 0 0)
(274.493 0 0)
(275.646 0 0)
(276.77 0 0)
(277.865 0 0)
(278.931 0 0)
(279.97 0 0)
(280.98 0 0)
(281.963 0 0)
(282.919 0 0)
(283.847 0 0)
(284.749 0 0)
(285.624 0 0)
(286.472 0 0)
(287.294 0 0)
(288.089 0 0)
(288.858 0 0)
(289.6 0 0)
(290.317 0 0)
(291.008 0 0)
(291.672 0 0)
(292.31 0 0)
(292.922 0 0)
(293.508 0 0)
(294.067 0 0)
(294.6 0 0)
(295.107 0 0)
(295.587 0 0)
(296.04 0 0)
(296.467 0 0)
(296.866 0 0)
(297.237 0 0)
(297.581 0 0)
(297.897 0 0)
(298.185 0 0)
(298.445 0 0)
(298.675 0 0)
(298.876 0 0)
(299.047 0 0)
(299.187 0 0)
(299.297 0 0)
(299.375 0 0)
(299.422 0 0)
(299.435 0 0)
(299.415 0 0)
(299.36 0 0)
(299.27 0 0)
(299.144 0 0)
(298.981 0 0)
(298.779 0 0)
(298.538 0 0)
(298.255 0 0)
(297.931 0 0)
(297.558 0 0)
(297.153 0 0)
(296.66 0 0)
(296.229 0 0)
(295.431 0 0)
(242.793 0 0)
(244.645 0 0)
(246.453 0 0)
(248.219 0 0)
(249.944 0 0)
(251.629 0 0)
(253.275 0 0)
(254.884 0 0)
(256.456 0 0)
(257.992 0 0)
(259.494 0 0)
(260.961 0 0)
(262.395 0 0)
(263.797 0 0)
(265.166 0 0)
(266.504 0 0)
(267.812 0 0)
(269.089 0 0)
(270.337 0 0)
(271.555 0 0)
(272.745 0 0)
(273.906 0 0)
(275.04 0 0)
(276.145 0 0)
(277.224 0 0)
(278.276 0 0)
(279.301 0 0)
(280.299 0 0)
(281.272 0 0)
(282.218 0 0)
(283.139 0 0)
(284.035 0 0)
(284.905 0 0)
(285.75 0 0)
(286.57 0 0)
(287.364 0 0)
(288.135 0 0)
(288.88 0 0)
(289.601 0 0)
(290.297 0 0)
(290.968 0 0)
(291.615 0 0)
(292.237 0 0)
(292.835 0 0)
(293.408 0 0)
(293.956 0 0)
(294.48 0 0)
(294.978 0 0)
(295.452 0 0)
(295.9 0 0)
(296.323 0 0)
(296.72 0 0)
(297.092 0 0)
(297.438 0 0)
(297.758 0 0)
(298.051 0 0)
(298.317 0 0)
(298.557 0 0)
(298.769 0 0)
(298.953 0 0)
(299.109 0 0)
(299.236 0 0)
(299.334 0 0)
(299.402 0 0)
(299.44 0 0)
(299.447 0 0)
(299.422 0 0)
(299.365 0 0)
(299.275 0 0)
(299.15 0 0)
(298.99 0 0)
(298.795 0 0)
(298.561 0 0)
(298.291 0 0)
(297.976 0 0)
(297.633 0 0)
(297.212 0 0)
(296.842 0 0)
(296.156 0 0)
(244.905 0 0)
(246.653 0 0)
(248.361 0 0)
(250.03 0 0)
(251.662 0 0)
(253.258 0 0)
(254.819 0 0)
(256.345 0 0)
(257.838 0 0)
(259.298 0 0)
(260.726 0 0)
(262.122 0 0)
(263.488 0 0)
(264.824 0 0)
(266.13 0 0)
(267.407 0 0)
(268.656 0 0)
(269.876 0 0)
(271.069 0 0)
(272.235 0 0)
(273.374 0 0)
(274.486 0 0)
(275.573 0 0)
(276.634 0 0)
(277.669 0 0)
(278.679 0 0)
(279.664 0 0)
(280.624 0 0)
(281.56 0 0)
(282.472 0 0)
(283.359 0 0)
(284.222 0 0)
(285.062 0 0)
(285.878 0 0)
(286.671 0 0)
(287.44 0 0)
(288.185 0 0)
(288.908 0 0)
(289.607 0 0)
(290.283 0 0)
(290.936 0 0)
(291.565 0 0)
(292.172 0 0)
(292.755 0 0)
(293.315 0 0)
(293.852 0 0)
(294.365 0 0)
(294.855 0 0)
(295.322 0 0)
(295.764 0 0)
(296.183 0 0)
(296.579 0 0)
(296.949 0 0)
(297.296 0 0)
(297.618 0 0)
(297.916 0 0)
(298.188 0 0)
(298.435 0 0)
(298.656 0 0)
(298.852 0 0)
(299.021 0 0)
(299.163 0 0)
(299.278 0 0)
(299.366 0 0)
(299.426 0 0)
(299.457 0 0)
(299.458 0 0)
(299.43 0 0)
(299.371 0 0)
(299.281 0 0)
(299.159 0 0)
(299.004 0 0)
(298.814 0 0)
(298.591 0 0)
(298.329 0 0)
(298.039 0 0)
(297.681 0 0)
(297.366 0 0)
(296.778 0 0)
(246.904 0 0)
(248.554 0 0)
(250.169 0 0)
(251.749 0 0)
(253.295 0 0)
(254.807 0 0)
(256.288 0 0)
(257.737 0 0)
(259.155 0 0)
(260.543 0 0)
(261.902 0 0)
(263.232 0 0)
(264.533 0 0)
(265.807 0 0)
(267.053 0 0)
(268.272 0 0)
(269.465 0 0)
(270.632 0 0)
(271.773 0 0)
(272.888 0 0)
(273.979 0 0)
(275.045 0 0)
(276.087 0 0)
(277.105 0 0)
(278.099 0 0)
(279.069 0 0)
(280.016 0 0)
(280.939 0 0)
(281.84 0 0)
(282.718 0 0)
(283.573 0 0)
(284.406 0 0)
(285.216 0 0)
(286.005 0 0)
(286.771 0 0)
(287.515 0 0)
(288.237 0 0)
(288.937 0 0)
(289.615 0 0)
(290.271 0 0)
(290.906 0 0)
(291.518 0 0)
(292.109 0 0)
(292.678 0 0)
(293.226 0 0)
(293.751 0 0)
(294.254 0 0)
(294.736 0 0)
(295.195 0 0)
(295.632 0 0)
(296.046 0 0)
(296.438 0 0)
(296.808 0 0)
(297.154 0 0)
(297.478 0 0)
(297.778 0 0)
(298.055 0 0)
(298.309 0 0)
(298.538 0 0)
(298.743 0 0)
(298.924 0 0)
(299.08 0 0)
(299.21 0 0)
(299.315 0 0)
(299.394 0 0)
(299.446 0 0)
(299.471 0 0)
(299.469 0 0)
(299.438 0 0)
(299.379 0 0)
(299.29 0 0)
(299.172 0 0)
(299.021 0 0)
(298.841 0 0)
(298.624 0 0)
(298.382 0 0)
(298.08 0 0)
(297.814 0 0)
(297.311 0 0)
(248.793 0 0)
(250.354 0 0)
(251.882 0 0)
(253.378 0 0)
(254.843 0 0)
(256.278 0 0)
(257.684 0 0)
(259.06 0 0)
(260.409 0 0)
(261.729 0 0)
(263.023 0 0)
(264.29 0 0)
(265.53 0 0)
(266.745 0 0)
(267.934 0 0)
(269.099 0 0)
(270.239 0 0)
(271.355 0 0)
(272.447 0 0)
(273.515 0 0)
(274.56 0 0)
(275.582 0 0)
(276.581 0 0)
(277.558 0 0)
(278.512 0 0)
(279.444 0 0)
(280.354 0 0)
(281.243 0 0)
(282.11 0 0)
(282.956 0 0)
(283.78 0 0)
(284.584 0 0)
(285.366 0 0)
(286.127 0 0)
(286.868 0 0)
(287.587 0 0)
(288.287 0 0)
(288.965 0 0)
(289.623 0 0)
(290.26 0 0)
(290.877 0 0)
(291.473 0 0)
(292.049 0 0)
(292.604 0 0)
(293.138 0 0)
(293.652 0 0)
(294.146 0 0)
(294.618 0 0)
(295.07 0 0)
(295.501 0 0)
(295.91 0 0)
(296.299 0 0)
(296.666 0 0)
(297.012 0 0)
(297.337 0 0)
(297.639 0 0)
(297.92 0 0)
(298.179 0 0)
(298.415 0 0)
(298.628 0 0)
(298.819 0 0)
(298.986 0 0)
(299.13 0 0)
(299.25 0 0)
(299.346 0 0)
(299.418 0 0)
(299.464 0 0)
(299.485 0 0)
(299.479 0 0)
(299.448 0 0)
(299.389 0 0)
(299.303 0 0)
(299.188 0 0)
(299.044 0 0)
(298.869 0 0)
(298.67 0 0)
(298.418 0 0)
(298.195 0 0)
(297.768 0 0)
(250.581 0 0)
(252.058 0 0)
(253.505 0 0)
(254.923 0 0)
(256.313 0 0)
(257.675 0 0)
(259.01 0 0)
(260.319 0 0)
(261.601 0 0)
(262.859 0 0)
(264.091 0 0)
(265.298 0 0)
(266.481 0 0)
(267.641 0 0)
(268.777 0 0)
(269.889 0 0)
(270.979 0 0)
(272.046 0 0)
(273.092 0 0)
(274.115 0 0)
(275.116 0 0)
(276.096 0 0)
(277.055 0 0)
(277.992 0 0)
(278.909 0 0)
(279.805 0 0)
(280.68 0 0)
(281.535 0 0)
(282.37 0 0)
(283.185 0 0)
(283.98 0 0)
(284.755 0 0)
(285.51 0 0)
(286.246 0 0)
(286.962 0 0)
(287.658 0 0)
(288.335 0 0)
(288.992 0 0)
(289.631 0 0)
(290.249 0 0)
(290.849 0 0)
(291.429 0 0)
(291.99 0 0)
(292.531 0 0)
(293.053 0 0)
(293.556 0 0)
(294.039 0 0)
(294.502 0 0)
(294.947 0 0)
(295.371 0 0)
(295.776 0 0)
(296.16 0 0)
(296.525 0 0)
(296.87 0 0)
(297.194 0 0)
(297.498 0 0)
(297.782 0 0)
(298.045 0 0)
(298.287 0 0)
(298.507 0 0)
(298.707 0 0)
(298.884 0 0)
(299.04 0 0)
(299.174 0 0)
(299.285 0 0)
(299.373 0 0)
(299.438 0 0)
(299.48 0 0)
(299.497 0 0)
(299.49 0 0)
(299.458 0 0)
(299.401 0 0)
(299.317 0 0)
(299.208 0 0)
(299.069 0 0)
(298.909 0 0)
(298.701 0 0)
(298.517 0 0)
(298.157 0 0)
(252.274 0 0)
(253.673 0 0)
(255.044 0 0)
(256.389 0 0)
(257.708 0 0)
(259.002 0 0)
(260.272 0 0)
(261.516 0 0)
(262.737 0 0)
(263.935 0 0)
(265.109 0 0)
(266.26 0 0)
(267.389 0 0)
(268.496 0 0)
(269.581 0 0)
(270.645 0 0)
(271.687 0 0)
(272.709 0 0)
(273.709 0 0)
(274.689 0 0)
(275.649 0 0)
(276.589 0 0)
(277.509 0 0)
(278.409 0 0)
(279.29 0 0)
(280.151 0 0)
(280.994 0 0)
(281.817 0 0)
(282.621 0 0)
(283.406 0 0)
(284.172 0 0)
(284.92 0 0)
(285.649 0 0)
(286.36 0 0)
(287.052 0 0)
(287.726 0 0)
(288.382 0 0)
(289.019 0 0)
(289.638 0 0)
(290.239 0 0)
(290.821 0 0)
(291.386 0 0)
(291.932 0 0)
(292.46 0 0)
(292.97 0 0)
(293.461 0 0)
(293.934 0 0)
(294.389 0 0)
(294.825 0 0)
(295.243 0 0)
(295.642 0 0)
(296.023 0 0)
(296.385 0 0)
(296.728 0 0)
(297.051 0 0)
(297.356 0 0)
(297.642 0 0)
(297.908 0 0)
(298.155 0 0)
(298.381 0 0)
(298.588 0 0)
(298.775 0 0)
(298.941 0 0)
(299.086 0 0)
(299.211 0 0)
(299.314 0 0)
(299.396 0 0)
(299.456 0 0)
(299.493 0 0)
(299.509 0 0)
(299.501 0 0)
(299.469 0 0)
(299.414 0 0)
(299.335 0 0)
(299.229 0 0)
(299.103 0 0)
(298.936 0 0)
(298.786 0 0)
(298.485 0 0)
(253.879 0 0)
(255.205 0 0)
(256.505 0 0)
(257.782 0 0)
(259.035 0 0)
(260.265 0 0)
(261.472 0 0)
(262.657 0 0)
(263.819 0 0)
(264.96 0 0)
(266.08 0 0)
(267.178 0 0)
(268.256 0 0)
(269.313 0 0)
(270.35 0 0)
(271.367 0 0)
(272.365 0 0)
(273.342 0 0)
(274.301 0 0)
(275.24 0 0)
(276.161 0 0)
(277.062 0 0)
(277.945 0 0)
(278.81 0 0)
(279.657 0 0)
(280.485 0 0)
(281.295 0 0)
(282.087 0 0)
(282.862 0 0)
(283.619 0 0)
(284.358 0 0)
(285.079 0 0)
(285.783 0 0)
(286.47 0 0)
(287.14 0 0)
(287.792 0 0)
(288.427 0 0)
(289.044 0 0)
(289.645 0 0)
(290.228 0 0)
(290.795 0 0)
(291.344 0 0)
(291.875 0 0)
(292.39 0 0)
(292.888 0 0)
(293.368 0 0)
(293.831 0 0)
(294.277 0 0)
(294.705 0 0)
(295.117 0 0)
(295.51 0 0)
(295.886 0 0)
(296.245 0 0)
(296.585 0 0)
(296.908 0 0)
(297.213 0 0)
(297.5 0 0)
(297.769 0 0)
(298.019 0 0)
(298.251 0 0)
(298.464 0 0)
(298.658 0 0)
(298.833 0 0)
(298.989 0 0)
(299.126 0 0)
(299.242 0 0)
(299.339 0 0)
(299.415 0 0)
(299.471 0 0)
(299.506 0 0)
(299.52 0 0)
(299.512 0 0)
(299.481 0 0)
(299.43 0 0)
(299.353 0 0)
(299.258 0 0)
(299.126 0 0)
(299.007 0 0)
(298.76 0 0)
(255.401 0 0)
(256.659 0 0)
(257.893 0 0)
(259.106 0 0)
(260.297 0 0)
(261.466 0 0)
(262.615 0 0)
(263.743 0 0)
(264.851 0 0)
(265.938 0 0)
(267.006 0 0)
(268.055 0 0)
(269.084 0 0)
(270.094 0 0)
(271.086 0 0)
(272.059 0 0)
(273.013 0 0)
(273.949 0 0)
(274.868 0 0)
(275.768 0 0)
(276.651 0 0)
(277.516 0 0)
(278.364 0 0)
(279.195 0 0)
(280.009 0 0)
(280.805 0 0)
(281.585 0 0)
(282.348 0 0)
(283.094 0 0)
(283.824 0 0)
(284.537 0 0)
(285.233 0 0)
(285.913 0 0)
(286.577 0 0)
(287.224 0 0)
(287.855 0 0)
(288.47 0 0)
(289.069 0 0)
(289.652 0 0)
(290.218 0 0)
(290.768 0 0)
(291.302 0 0)
(291.82 0 0)
(292.322 0 0)
(292.808 0 0)
(293.277 0 0)
(293.73 0 0)
(294.167 0 0)
(294.588 0 0)
(294.992 0 0)
(295.38 0 0)
(295.751 0 0)
(296.106 0 0)
(296.444 0 0)
(296.765 0 0)
(297.07 0 0)
(297.357 0 0)
(297.627 0 0)
(297.881 0 0)
(298.117 0 0)
(298.335 0 0)
(298.536 0 0)
(298.719 0 0)
(298.884 0 0)
(299.031 0 0)
(299.159 0 0)
(299.269 0 0)
(299.36 0 0)
(299.432 0 0)
(299.484 0 0)
(299.517 0 0)
(299.53 0 0)
(299.522 0 0)
(299.495 0 0)
(299.445 0 0)
(299.377 0 0)
(299.277 0 0)
(299.185 0 0)
(298.986 0 0)
(256.846 0 0)
(258.04 0 0)
(259.212 0 0)
(260.365 0 0)
(261.497 0 0)
(262.61 0 0)
(263.704 0 0)
(264.778 0 0)
(265.834 0 0)
(266.872 0 0)
(267.891 0 0)
(268.892 0 0)
(269.875 0 0)
(270.841 0 0)
(271.789 0 0)
(272.72 0 0)
(273.634 0 0)
(274.531 0 0)
(275.411 0 0)
(276.275 0 0)
(277.122 0 0)
(277.952 0 0)
(278.767 0 0)
(279.565 0 0)
(280.347 0 0)
(281.114 0 0)
(281.864 0 0)
(282.599 0 0)
(283.318 0 0)
(284.021 0 0)
(284.709 0 0)
(285.381 0 0)
(286.038 0 0)
(286.68 0 0)
(287.306 0 0)
(287.917 0 0)
(288.513 0 0)
(289.093 0 0)
(289.658 0 0)
(290.208 0 0)
(290.743 0 0)
(291.262 0 0)
(291.767 0 0)
(292.256 0 0)
(292.73 0 0)
(293.188 0 0)
(293.632 0 0)
(294.059 0 0)
(294.472 0 0)
(294.869 0 0)
(295.251 0 0)
(295.617 0 0)
(295.968 0 0)
(296.303 0 0)
(296.622 0 0)
(296.926 0 0)
(297.213 0 0)
(297.485 0 0)
(297.74 0 0)
(297.979 0 0)
(298.202 0 0)
(298.408 0 0)
(298.598 0 0)
(298.771 0 0)
(298.927 0 0)
(299.066 0 0)
(299.187 0 0)
(299.291 0 0)
(299.377 0 0)
(299.445 0 0)
(299.495 0 0)
(299.527 0 0)
(299.54 0 0)
(299.534 0 0)
(299.508 0 0)
(299.465 0 0)
(299.393 0 0)
(299.326 0 0)
(299.169 0 0)
(258.219 0 0)
(259.353 0 0)
(260.467 0 0)
(261.563 0 0)
(262.64 0 0)
(263.7 0 0)
(264.742 0 0)
(265.766 0 0)
(266.773 0 0)
(267.763 0 0)
(268.736 0 0)
(269.692 0 0)
(270.632 0 0)
(271.555 0 0)
(272.463 0 0)
(273.354 0 0)
(274.229 0 0)
(275.088 0 0)
(275.932 0 0)
(276.76 0 0)
(277.573 0 0)
(278.371 0 0)
(279.153 0 0)
(279.921 0 0)
(280.673 0 0)
(281.41 0 0)
(282.133 0 0)
(282.84 0 0)
(283.533 0 0)
(284.212 0 0)
(284.875 0 0)
(285.525 0 0)
(286.159 0 0)
(286.779 0 0)
(287.385 0 0)
(287.977 0 0)
(288.554 0 0)
(289.116 0 0)
(289.664 0 0)
(290.198 0 0)
(290.718 0 0)
(291.223 0 0)
(291.714 0 0)
(292.191 0 0)
(292.653 0 0)
(293.101 0 0)
(293.535 0 0)
(293.954 0 0)
(294.358 0 0)
(294.749 0 0)
(295.124 0 0)
(295.485 0 0)
(295.831 0 0)
(296.163 0 0)
(296.48 0 0)
(296.782 0 0)
(297.069 0 0)
(297.341 0 0)
(297.598 0 0)
(297.839 0 0)
(298.066 0 0)
(298.277 0 0)
(298.472 0 0)
(298.652 0 0)
(298.816 0 0)
(298.963 0 0)
(299.095 0 0)
(299.21 0 0)
(299.309 0 0)
(299.392 0 0)
(299.457 0 0)
(299.505 0 0)
(299.536 0 0)
(299.55 0 0)
(299.544 0 0)
(299.524 0 0)
(299.477 0 0)
(299.433 0 0)
(299.314 0 0)
(259.524 0 0)
(260.602 0 0)
(261.661 0 0)
(262.704 0 0)
(263.729 0 0)
(264.739 0 0)
(265.732 0 0)
(266.708 0 0)
(267.669 0 0)
(268.614 0 0)
(269.543 0 0)
(270.457 0 0)
(271.356 0 0)
(272.239 0 0)
(273.107 0 0)
(273.96 0 0)
(274.799 0 0)
(275.623 0 0)
(276.432 0 0)
(277.227 0 0)
(278.007 0 0)
(278.773 0 0)
(279.525 0 0)
(280.262 0 0)
(280.986 0 0)
(281.696 0 0)
(282.391 0 0)
(283.073 0 0)
(283.741 0 0)
(284.395 0 0)
(285.036 0 0)
(285.663 0 0)
(286.276 0 0)
(286.876 0 0)
(287.462 0 0)
(288.034 0 0)
(288.593 0 0)
(289.139 0 0)
(289.671 0 0)
(290.189 0 0)
(290.694 0 0)
(291.185 0 0)
(291.663 0 0)
(292.128 0 0)
(292.579 0 0)
(293.016 0 0)
(293.44 0 0)
(293.85 0 0)
(294.247 0 0)
(294.63 0 0)
(294.999 0 0)
(295.355 0 0)
(295.696 0 0)
(296.024 0 0)
(296.338 0 0)
(296.638 0 0)
(296.924 0 0)
(297.196 0 0)
(297.454 0 0)
(297.698 0 0)
(297.927 0 0)
(298.141 0 0)
(298.341 0 0)
(298.527 0 0)
(298.698 0 0)
(298.853 0 0)
(298.994 0 0)
(299.119 0 0)
(299.23 0 0)
(299.324 0 0)
(299.403 0 0)
(299.466 0 0)
(299.513 0 0)
(299.544 0 0)
(299.558 0 0)
(299.557 0 0)
(299.533 0 0)
(299.509 0 0)
(299.424 0 0)
(260.766 0 0)
(261.79 0 0)
(262.798 0 0)
(263.791 0 0)
(264.768 0 0)
(265.729 0 0)
(266.676 0 0)
(267.608 0 0)
(268.525 0 0)
(269.427 0 0)
(270.315 0 0)
(271.189 0 0)
(272.048 0 0)
(272.893 0 0)
(273.724 0 0)
(274.542 0 0)
(275.345 0 0)
(276.135 0 0)
(276.911 0 0)
(277.674 0 0)
(278.423 0 0)
(279.159 0 0)
(279.882 0 0)
(280.591 0 0)
(281.287 0 0)
(281.971 0 0)
(282.641 0 0)
(283.298 0 0)
(283.942 0 0)
(284.573 0 0)
(285.191 0 0)
(285.796 0 0)
(286.389 0 0)
(286.969 0 0)
(287.536 0 0)
(288.09 0 0)
(288.631 0 0)
(289.16 0 0)
(289.676 0 0)
(290.18 0 0)
(290.67 0 0)
(291.148 0 0)
(291.614 0 0)
(292.066 0 0)
(292.506 0 0)
(292.933 0 0)
(293.347 0 0)
(293.749 0 0)
(294.137 0 0)
(294.513 0 0)
(294.876 0 0)
(295.226 0 0)
(295.563 0 0)
(295.887 0 0)
(296.198 0 0)
(296.495 0 0)
(296.78 0 0)
(297.051 0 0)
(297.309 0 0)
(297.554 0 0)
(297.785 0 0)
(298.003 0 0)
(298.207 0 0)
(298.397 0 0)
(298.574 0 0)
(298.736 0 0)
(298.885 0 0)
(299.019 0 0)
(299.139 0 0)
(299.245 0 0)
(299.336 0 0)
(299.412 0 0)
(299.473 0 0)
(299.52 0 0)
(299.55 0 0)
(299.567 0 0)
(299.564 0 0)
(299.557 0 0)
(299.502 0 0)
(261.948 0 0)
(262.922 0 0)
(263.881 0 0)
(264.827 0 0)
(265.757 0 0)
(266.674 0 0)
(267.577 0 0)
(268.467 0 0)
(269.342 0 0)
(270.204 0 0)
(271.053 0 0)
(271.888 0 0)
(272.711 0 0)
(273.52 0 0)
(274.316 0 0)
(275.099 0 0)
(275.869 0 0)
(276.627 0 0)
(277.371 0 0)
(278.104 0 0)
(278.823 0 0)
(279.53 0 0)
(280.225 0 0)
(280.907 0 0)
(281.577 0 0)
(282.235 0 0)
(282.881 0 0)
(283.514 0 0)
(284.135 0 0)
(284.744 0 0)
(285.341 0 0)
(285.925 0 0)
(286.498 0 0)
(287.059 0 0)
(287.607 0 0)
(288.144 0 0)
(288.669 0 0)
(289.181 0 0)
(289.682 0 0)
(290.171 0 0)
(290.647 0 0)
(291.112 0 0)
(291.565 0 0)
(292.006 0 0)
(292.435 0 0)
(292.851 0 0)
(293.256 0 0)
(293.649 0 0)
(294.03 0 0)
(294.398 0 0)
(294.755 0 0)
(295.099 0 0)
(295.431 0 0)
(295.751 0 0)
(296.058 0 0)
(296.353 0 0)
(296.636 0 0)
(296.906 0 0)
(297.164 0 0)
(297.41 0 0)
(297.642 0 0)
(297.862 0 0)
(298.069 0 0)
(298.264 0 0)
(298.445 0 0)
(298.613 0 0)
(298.769 0 0)
(298.911 0 0)
(299.039 0 0)
(299.154 0 0)
(299.256 0 0)
(299.344 0 0)
(299.418 0 0)
(299.478 0 0)
(299.524 0 0)
(299.557 0 0)
(299.571 0 0)
(299.581 0 0)
(299.553 0 0)
(263.073 0 0)
(264 0 0)
(264.914 0 0)
(265.814 0 0)
(266.702 0 0)
(267.576 0 0)
(268.438 0 0)
(269.287 0 0)
(270.124 0 0)
(270.948 0 0)
(271.759 0 0)
(272.558 0 0)
(273.345 0 0)
(274.12 0 0)
(274.882 0 0)
(275.633 0 0)
(276.372 0 0)
(277.098 0 0)
(277.813 0 0)
(278.516 0 0)
(279.208 0 0)
(279.887 0 0)
(280.555 0 0)
(281.212 0 0)
(281.857 0 0)
(282.49 0 0)
(283.112 0 0)
(283.722 0 0)
(284.321 0 0)
(284.909 0 0)
(285.485 0 0)
(286.05 0 0)
(286.603 0 0)
(287.146 0 0)
(287.677 0 0)
(288.196 0 0)
(288.705 0 0)
(289.202 0 0)
(289.687 0 0)
(290.162 0 0)
(290.625 0 0)
(291.077 0 0)
(291.518 0 0)
(291.947 0 0)
(292.365 0 0)
(292.772 0 0)
(293.167 0 0)
(293.552 0 0)
(293.924 0 0)
(294.285 0 0)
(294.635 0 0)
(294.974 0 0)
(295.301 0 0)
(295.616 0 0)
(295.92 0 0)
(296.212 0 0)
(296.493 0 0)
(296.762 0 0)
(297.019 0 0)
(297.264 0 0)
(297.498 0 0)
(297.719 0 0)
(297.929 0 0)
(298.127 0 0)
(298.312 0 0)
(298.485 0 0)
(298.646 0 0)
(298.795 0 0)
(298.931 0 0)
(299.055 0 0)
(299.166 0 0)
(299.264 0 0)
(299.35 0 0)
(299.422 0 0)
(299.481 0 0)
(299.528 0 0)
(299.559 0 0)
(299.583 0 0)
(299.579 0 0)
(264.145 0 0)
(265.028 0 0)
(265.899 0 0)
(266.757 0 0)
(267.603 0 0)
(268.438 0 0)
(269.261 0 0)
(270.072 0 0)
(270.871 0 0)
(271.658 0 0)
(272.435 0 0)
(273.199 0 0)
(273.953 0 0)
(274.695 0 0)
(275.425 0 0)
(276.145 0 0)
(276.854 0 0)
(277.551 0 0)
(278.237 0 0)
(278.912 0 0)
(279.577 0 0)
(280.23 0 0)
(280.873 0 0)
(281.504 0 0)
(282.125 0 0)
(282.735 0 0)
(283.335 0 0)
(283.923 0 0)
(284.501 0 0)
(285.068 0 0)
(285.624 0 0)
(286.17 0 0)
(286.705 0 0)
(287.23 0 0)
(287.744 0 0)
(288.247 0 0)
(288.739 0 0)
(289.221 0 0)
(289.693 0 0)
(290.153 0 0)
(290.603 0 0)
(291.043 0 0)
(291.472 0 0)
(291.89 0 0)
(292.298 0 0)
(292.694 0 0)
(293.081 0 0)
(293.456 0 0)
(293.821 0 0)
(294.175 0 0)
(294.518 0 0)
(294.851 0 0)
(295.172 0 0)
(295.483 0 0)
(295.783 0 0)
(296.072 0 0)
(296.35 0 0)
(296.617 0 0)
(296.873 0 0)
(297.118 0 0)
(297.352 0 0)
(297.575 0 0)
(297.786 0 0)
(297.987 0 0)
(298.175 0 0)
(298.353 0 0)
(298.519 0 0)
(298.673 0 0)
(298.816 0 0)
(298.947 0 0)
(299.066 0 0)
(299.174 0 0)
(299.269 0 0)
(299.352 0 0)
(299.423 0 0)
(299.483 0 0)
(299.528 0 0)
(299.565 0 0)
(299.583 0 0)
(265.167 0 0)
(266.008 0 0)
(266.838 0 0)
(267.657 0 0)
(268.464 0 0)
(269.261 0 0)
(270.047 0 0)
(270.821 0 0)
(271.585 0 0)
(272.339 0 0)
(273.081 0 0)
(273.813 0 0)
(274.535 0 0)
(275.246 0 0)
(275.946 0 0)
(276.636 0 0)
(277.316 0 0)
(277.985 0 0)
(278.644 0 0)
(279.293 0 0)
(279.932 0 0)
(280.56 0 0)
(281.178 0 0)
(281.786 0 0)
(282.384 0 0)
(282.972 0 0)
(283.549 0 0)
(284.117 0 0)
(284.674 0 0)
(285.222 0 0)
(285.759 0 0)
(286.286 0 0)
(286.804 0 0)
(287.311 0 0)
(287.808 0 0)
(288.296 0 0)
(288.773 0 0)
(289.24 0 0)
(289.698 0 0)
(290.145 0 0)
(290.582 0 0)
(291.01 0 0)
(291.427 0 0)
(291.834 0 0)
(292.231 0 0)
(292.619 0 0)
(292.996 0 0)
(293.363 0 0)
(293.72 0 0)
(294.066 0 0)
(294.403 0 0)
(294.73 0 0)
(295.046 0 0)
(295.352 0 0)
(295.648 0 0)
(295.934 0 0)
(296.209 0 0)
(296.474 0 0)
(296.728 0 0)
(296.973 0 0)
(297.206 0 0)
(297.43 0 0)
(297.642 0 0)
(297.844 0 0)
(298.036 0 0)
(298.217 0 0)
(298.387 0 0)
(298.546 0 0)
(298.694 0 0)
(298.832 0 0)
(298.958 0 0)
(299.074 0 0)
(299.178 0 0)
(299.271 0 0)
(299.352 0 0)
(299.423 0 0)
(299.481 0 0)
(299.529 0 0)
(299.566 0 0)
(266.142 0 0)
(266.944 0 0)
(267.735 0 0)
(268.516 0 0)
(269.287 0 0)
(270.047 0 0)
(270.798 0 0)
(271.539 0 0)
(272.269 0 0)
(272.99 0 0)
(273.701 0 0)
(274.402 0 0)
(275.093 0 0)
(275.774 0 0)
(276.446 0 0)
(277.108 0 0)
(277.76 0 0)
(278.403 0 0)
(279.036 0 0)
(279.659 0 0)
(280.273 0 0)
(280.877 0 0)
(281.472 0 0)
(282.057 0 0)
(282.633 0 0)
(283.199 0 0)
(283.756 0 0)
(284.304 0 0)
(284.841 0 0)
(285.37 0 0)
(285.889 0 0)
(286.399 0 0)
(286.899 0 0)
(287.39 0 0)
(287.871 0 0)
(288.343 0 0)
(288.806 0 0)
(289.259 0 0)
(289.703 0 0)
(290.137 0 0)
(290.562 0 0)
(290.977 0 0)
(291.383 0 0)
(291.78 0 0)
(292.167 0 0)
(292.545 0 0)
(292.913 0 0)
(293.271 0 0)
(293.621 0 0)
(293.96 0 0)
(294.29 0 0)
(294.611 0 0)
(294.922 0 0)
(295.223 0 0)
(295.514 0 0)
(295.796 0 0)
(296.069 0 0)
(296.331 0 0)
(296.584 0 0)
(296.827 0 0)
(297.06 0 0)
(297.283 0 0)
(297.497 0 0)
(297.7 0 0)
(297.894 0 0)
(298.077 0 0)
(298.251 0 0)
(298.414 0 0)
(298.567 0 0)
(298.71 0 0)
(298.843 0 0)
(298.965 0 0)
(299.077 0 0)
(299.179 0 0)
(299.269 0 0)
(299.35 0 0)
(299.419 0 0)
(299.477 0 0)
(299.532 0 0)
(267.072 0 0)
(267.837 0 0)
(268.591 0 0)
(269.337 0 0)
(270.073 0 0)
(270.799 0 0)
(271.517 0 0)
(272.225 0 0)
(272.924 0 0)
(273.613 0 0)
(274.294 0 0)
(274.965 0 0)
(275.628 0 0)
(276.281 0 0)
(276.925 0 0)
(277.56 0 0)
(278.186 0 0)
(278.803 0 0)
(279.411 0 0)
(280.011 0 0)
(280.601 0 0)
(281.182 0 0)
(281.755 0 0)
(282.318 0 0)
(282.873 0 0)
(283.419 0 0)
(283.956 0 0)
(284.484 0 0)
(285.003 0 0)
(285.513 0 0)
(286.015 0 0)
(286.507 0 0)
(286.991 0 0)
(287.466 0 0)
(287.932 0 0)
(288.389 0 0)
(288.837 0 0)
(289.277 0 0)
(289.707 0 0)
(290.129 0 0)
(290.542 0 0)
(290.946 0 0)
(291.341 0 0)
(291.727 0 0)
(292.104 0 0)
(292.472 0 0)
(292.832 0 0)
(293.182 0 0)
(293.523 0 0)
(293.856 0 0)
(294.179 0 0)
(294.494 0 0)
(294.799 0 0)
(295.095 0 0)
(295.383 0 0)
(295.661 0 0)
(295.93 0 0)
(296.19 0 0)
(296.44 0 0)
(296.682 0 0)
(296.914 0 0)
(297.137 0 0)
(297.351 0 0)
(297.555 0 0)
(297.75 0 0)
(297.936 0 0)
(298.112 0 0)
(298.278 0 0)
(298.436 0 0)
(298.583 0 0)
(298.721 0 0)
(298.849 0 0)
(298.968 0 0)
(299.077 0 0)
(299.176 0 0)
(299.265 0 0)
(299.345 0 0)
(299.412 0 0)
(299.481 0 0)
(267.96 0 0)
(268.689 0 0)
(269.41 0 0)
(270.121 0 0)
(270.824 0 0)
(271.519 0 0)
(272.204 0 0)
(272.882 0 0)
(273.55 0 0)
(274.211 0 0)
(274.862 0 0)
(275.506 0 0)
(276.14 0 0)
(276.767 0 0)
(277.385 0 0)
(277.994 0 0)
(278.595 0 0)
(279.188 0 0)
(279.773 0 0)
(280.349 0 0)
(280.917 0 0)
(281.476 0 0)
(282.027 0 0)
(282.57 0 0)
(283.104 0 0)
(283.63 0 0)
(284.148 0 0)
(284.657 0 0)
(285.159 0 0)
(285.651 0 0)
(286.136 0 0)
(286.612 0 0)
(287.08 0 0)
(287.539 0 0)
(287.99 0 0)
(288.433 0 0)
(288.868 0 0)
(289.294 0 0)
(289.712 0 0)
(290.121 0 0)
(290.522 0 0)
(290.915 0 0)
(291.299 0 0)
(291.675 0 0)
(292.043 0 0)
(292.402 0 0)
(292.753 0 0)
(293.095 0 0)
(293.429 0 0)
(293.754 0 0)
(294.071 0 0)
(294.379 0 0)
(294.679 0 0)
(294.97 0 0)
(295.253 0 0)
(295.527 0 0)
(295.792 0 0)
(296.049 0 0)
(296.298 0 0)
(296.537 0 0)
(296.768 0 0)
(296.99 0 0)
(297.204 0 0)
(297.409 0 0)
(297.605 0 0)
(297.792 0 0)
(297.97 0 0)
(298.139 0 0)
(298.3 0 0)
(298.451 0 0)
(298.594 0 0)
(298.727 0 0)
(298.852 0 0)
(298.967 0 0)
(299.073 0 0)
(299.17 0 0)
(299.259 0 0)
(299.334 0 0)
(299.416 0 0)
(268.808 0 0)
(269.504 0 0)
(270.191 0 0)
(270.871 0 0)
(271.543 0 0)
(272.207 0 0)
(272.862 0 0)
(273.51 0 0)
(274.15 0 0)
(274.783 0 0)
(275.407 0 0)
(276.024 0 0)
(276.632 0 0)
(277.233 0 0)
(277.826 0 0)
(278.411 0 0)
(278.989 0 0)
(279.558 0 0)
(280.12 0 0)
(280.674 0 0)
(281.22 0 0)
(281.759 0 0)
(282.289 0 0)
(282.812 0 0)
(283.327 0 0)
(283.834 0 0)
(284.333 0 0)
(284.825 0 0)
(285.309 0 0)
(285.785 0 0)
(286.253 0 0)
(286.713 0 0)
(287.166 0 0)
(287.61 0 0)
(288.047 0 0)
(288.476 0 0)
(288.897 0 0)
(289.311 0 0)
(289.716 0 0)
(290.114 0 0)
(290.503 0 0)
(290.885 0 0)
(291.259 0 0)
(291.625 0 0)
(291.983 0 0)
(292.333 0 0)
(292.675 0 0)
(293.009 0 0)
(293.336 0 0)
(293.654 0 0)
(293.964 0 0)
(294.266 0 0)
(294.561 0 0)
(294.847 0 0)
(295.125 0 0)
(295.395 0 0)
(295.657 0 0)
(295.91 0 0)
(296.156 0 0)
(296.394 0 0)
(296.623 0 0)
(296.844 0 0)
(297.057 0 0)
(297.262 0 0)
(297.458 0 0)
(297.646 0 0)
(297.826 0 0)
(297.998 0 0)
(298.161 0 0)
(298.316 0 0)
(298.462 0 0)
(298.6 0 0)
(298.729 0 0)
(298.85 0 0)
(298.963 0 0)
(299.066 0 0)
(299.162 0 0)
(299.244 0 0)
(299.339 0 0)
(269.618 0 0)
(270.282 0 0)
(270.939 0 0)
(271.588 0 0)
(272.23 0 0)
(272.865 0 0)
(273.493 0 0)
(274.113 0 0)
(274.726 0 0)
(275.331 0 0)
(275.929 0 0)
(276.52 0 0)
(277.104 0 0)
(277.681 0 0)
(278.25 0 0)
(278.812 0 0)
(279.366 0 0)
(279.914 0 0)
(280.454 0 0)
(280.987 0 0)
(281.512 0 0)
(282.031 0 0)
(282.541 0 0)
(283.045 0 0)
(283.542 0 0)
(284.031 0 0)
(284.512 0 0)
(284.987 0 0)
(285.454 0 0)
(285.914 0 0)
(286.366 0 0)
(286.811 0 0)
(287.249 0 0)
(287.679 0 0)
(288.102 0 0)
(288.518 0 0)
(288.926 0 0)
(289.327 0 0)
(289.72 0 0)
(290.106 0 0)
(290.485 0 0)
(290.856 0 0)
(291.22 0 0)
(291.576 0 0)
(291.925 0 0)
(292.266 0 0)
(292.6 0 0)
(292.926 0 0)
(293.245 0 0)
(293.556 0 0)
(293.86 0 0)
(294.156 0 0)
(294.444 0 0)
(294.725 0 0)
(294.999 0 0)
(295.265 0 0)
(295.523 0 0)
(295.773 0 0)
(296.016 0 0)
(296.251 0 0)
(296.479 0 0)
(296.698 0 0)
(296.91 0 0)
(297.115 0 0)
(297.311 0 0)
(297.5 0 0)
(297.681 0 0)
(297.854 0 0)
(298.019 0 0)
(298.176 0 0)
(298.326 0 0)
(298.468 0 0)
(298.601 0 0)
(298.727 0 0)
(298.845 0 0)
(298.954 0 0)
(299.057 0 0)
(299.145 0 0)
(299.25 0 0)
(270.392 0 0)
(271.027 0 0)
(271.654 0 0)
(272.275 0 0)
(272.888 0 0)
(273.496 0 0)
(274.096 0 0)
(274.69 0 0)
(275.277 0 0)
(275.857 0 0)
(276.43 0 0)
(276.997 0 0)
(277.557 0 0)
(278.11 0 0)
(278.657 0 0)
(279.196 0 0)
(279.729 0 0)
(280.256 0 0)
(280.775 0 0)
(281.288 0 0)
(281.793 0 0)
(282.292 0 0)
(282.785 0 0)
(283.27 0 0)
(283.748 0 0)
(284.22 0 0)
(284.685 0 0)
(285.143 0 0)
(285.594 0 0)
(286.038 0 0)
(286.475 0 0)
(286.906 0 0)
(287.329 0 0)
(287.746 0 0)
(288.156 0 0)
(288.558 0 0)
(288.954 0 0)
(289.343 0 0)
(289.724 0 0)
(290.099 0 0)
(290.467 0 0)
(290.828 0 0)
(291.182 0 0)
(291.528 0 0)
(291.868 0 0)
(292.201 0 0)
(292.526 0 0)
(292.845 0 0)
(293.156 0 0)
(293.46 0 0)
(293.758 0 0)
(294.048 0 0)
(294.33 0 0)
(294.606 0 0)
(294.875 0 0)
(295.136 0 0)
(295.39 0 0)
(295.637 0 0)
(295.877 0 0)
(296.11 0 0)
(296.335 0 0)
(296.553 0 0)
(296.764 0 0)
(296.967 0 0)
(297.164 0 0)
(297.353 0 0)
(297.534 0 0)
(297.708 0 0)
(297.875 0 0)
(298.035 0 0)
(298.187 0 0)
(298.331 0 0)
(298.468 0 0)
(298.598 0 0)
(298.721 0 0)
(298.835 0 0)
(298.944 0 0)
(299.037 0 0)
(299.151 0 0)
(271.133 0 0)
(271.739 0 0)
(272.338 0 0)
(272.931 0 0)
(273.519 0 0)
(274.099 0 0)
(274.674 0 0)
(275.243 0 0)
(275.805 0 0)
(276.361 0 0)
(276.911 0 0)
(277.454 0 0)
(277.992 0 0)
(278.523 0 0)
(279.048 0 0)
(279.566 0 0)
(280.078 0 0)
(280.584 0 0)
(281.084 0 0)
(281.577 0 0)
(282.064 0 0)
(282.545 0 0)
(283.019 0 0)
(283.486 0 0)
(283.948 0 0)
(284.403 0 0)
(284.851 0 0)
(285.293 0 0)
(285.729 0 0)
(286.158 0 0)
(286.581 0 0)
(286.997 0 0)
(287.407 0 0)
(287.81 0 0)
(288.207 0 0)
(288.597 0 0)
(288.981 0 0)
(289.358 0 0)
(289.728 0 0)
(290.092 0 0)
(290.45 0 0)
(290.8 0 0)
(291.144 0 0)
(291.482 0 0)
(291.813 0 0)
(292.137 0 0)
(292.454 0 0)
(292.765 0 0)
(293.069 0 0)
(293.367 0 0)
(293.657 0 0)
(293.941 0 0)
(294.219 0 0)
(294.489 0 0)
(294.753 0 0)
(295.01 0 0)
(295.26 0 0)
(295.504 0 0)
(295.74 0 0)
(295.97 0 0)
(296.193 0 0)
(296.409 0 0)
(296.618 0 0)
(296.821 0 0)
(297.016 0 0)
(297.205 0 0)
(297.387 0 0)
(297.561 0 0)
(297.729 0 0)
(297.89 0 0)
(298.044 0 0)
(298.192 0 0)
(298.332 0 0)
(298.465 0 0)
(298.591 0 0)
(298.71 0 0)
(298.824 0 0)
(298.922 0 0)
(299.043 0 0)
(271.841 0 0)
(272.42 0 0)
(272.993 0 0)
(273.56 0 0)
(274.122 0 0)
(274.678 0 0)
(275.228 0 0)
(275.773 0 0)
(276.312 0 0)
(276.845 0 0)
(277.372 0 0)
(277.894 0 0)
(278.409 0 0)
(278.919 0 0)
(279.423 0 0)
(279.922 0 0)
(280.414 0 0)
(280.9 0 0)
(281.381 0 0)
(281.856 0 0)
(282.325 0 0)
(282.787 0 0)
(283.244 0 0)
(283.695 0 0)
(284.14 0 0)
(284.579 0 0)
(285.012 0 0)
(285.439 0 0)
(285.86 0 0)
(286.274 0 0)
(286.683 0 0)
(287.086 0 0)
(287.482 0 0)
(287.873 0 0)
(288.257 0 0)
(288.635 0 0)
(289.007 0 0)
(289.373 0 0)
(289.732 0 0)
(290.086 0 0)
(290.433 0 0)