/*--------------------------------*- C++ -*----------------------------------*\
| =========                 |                                                 |
| \\      /  F ield         | OpenFOAM: The Open Source CFD Toolbox           |
|  \\    /   O peration     | Version:  2312                                  |
|   \\  /    A nd           | Website:  www.openfoam.com                      |
|    \\/     M anipulation  |                                                 |
\*---------------------------------------------------------------------------*/
FoamFile
{
    version     2.0;
    format      ascii;
    arch        "LSB;label=32;scalar=64";
    class       volVectorField;
    location    "0.197";
    object      U;
}
// * * * * * * * * * * * * * * * * * * * * * * * * * * * * * * * * * * * * * //

dimensions      [0 1 -1 0 0 0 0];

internalField   nonuniform List<vector> 
31205
(
(230.433 0 0)
(232.743 0 0)
(234.991 0 0)
(237.179 0 0)
(239.31 0 0)
(241.387 0 0)
(243.411 0 0)
(245.384 0 0)
(247.307 0 0)
(249.184 0 0)
(251.014 0 0)
(252.799 0 0)
(254.541 0 0)
(256.241 0 0)
(257.9 0 0)
(259.518 0 0)
(261.098 0 0)
(262.639 0 0)
(264.143 0 0)
(265.61 0 0)
(267.041 0 0)
(268.437 0 0)
(269.799 0 0)
(271.127 0 0)
(272.421 0 0)
(273.682 0 0)
(274.911 0 0)
(276.108 0 0)
(277.274 0 0)
(278.408 0 0)
(279.511 0 0)
(280.584 0 0)
(281.626 0 0)
(282.638 0 0)
(283.621 0 0)
(284.574 0 0)
(285.498 0 0)
(286.392 0 0)
(287.257 0 0)
(288.094 0 0)
(288.901 0 0)
(289.679 0 0)
(290.429 0 0)
(291.15 0 0)
(291.842 0 0)
(292.505 0 0)
(293.139 0 0)
(293.744 0 0)
(294.32 0 0)
(294.866 0 0)
(295.383 0 0)
(295.87 0 0)
(296.328 0 0)
(296.755 0 0)
(297.151 0 0)
(297.517 0 0)
(297.852 0 0)
(298.154 0 0)
(298.425 0 0)
(298.664 0 0)
(298.869 0 0)
(299.04 0 0)
(299.178 0 0)
(299.28 0 0)
(299.346 0 0)
(299.375 0 0)
(299.367 0 0)
(299.321 0 0)
(299.234 0 0)
(299.107 0 0)
(298.937 0 0)
(298.724 0 0)
(298.465 0 0)
(298.161 0 0)
(297.802 0 0)
(297.408 0 0)
(296.916 0 0)
(296.489 0 0)
(295.667 0 0)
(232.883 0 0)
(235.061 0 0)
(237.182 0 0)
(239.25 0 0)
(241.267 0 0)
(243.234 0 0)
(245.153 0 0)
(247.025 0 0)
(248.853 0 0)
(250.637 0 0)
(252.379 0 0)
(254.079 0 0)
(255.74 0 0)
(257.362 0 0)
(258.946 0 0)
(260.492 0 0)
(262.003 0 0)
(263.478 0 0)
(264.918 0 0)
(266.324 0 0)
(267.697 0 0)
(269.036 0 0)
(270.344 0 0)
(271.62 0 0)
(272.864 0 0)
(274.078 0 0)
(275.261 0 0)
(276.415 0 0)
(277.538 0 0)
(278.633 0 0)
(279.698 0 0)
(280.735 0 0)
(281.743 0 0)
(282.723 0 0)
(283.675 0 0)
(284.599 0 0)
(285.496 0 0)
(286.364 0 0)
(287.206 0 0)
(288.02 0 0)
(288.807 0 0)
(289.567 0 0)
(290.299 0 0)
(291.004 0 0)
(291.683 0 0)
(292.334 0 0)
(292.957 0 0)
(293.554 0 0)
(294.123 0 0)
(294.664 0 0)
(295.178 0 0)
(295.663 0 0)
(296.121 0 0)
(296.55 0 0)
(296.951 0 0)
(297.323 0 0)
(297.666 0 0)
(297.979 0 0)
(298.262 0 0)
(298.515 0 0)
(298.738 0 0)
(298.929 0 0)
(299.088 0 0)
(299.214 0 0)
(299.308 0 0)
(299.368 0 0)
(299.393 0 0)
(299.383 0 0)
(299.336 0 0)
(299.252 0 0)
(299.129 0 0)
(298.968 0 0)
(298.764 0 0)
(298.52 0 0)
(298.227 0 0)
(297.901 0 0)
(297.491 0 0)
(297.134 0 0)
(296.441 0 0)
(235.301 0 0)
(237.353 0 0)
(239.355 0 0)
(241.308 0 0)
(243.215 0 0)
(245.076 0 0)
(246.895 0 0)
(248.671 0 0)
(250.406 0 0)
(252.101 0 0)
(253.757 0 0)
(255.376 0 0)
(256.957 0 0)
(258.503 0 0)
(260.014 0 0)
(261.491 0 0)
(262.934 0 0)
(264.344 0 0)
(265.722 0 0)
(267.068 0 0)
(268.383 0 0)
(269.667 0 0)
(270.922 0 0)
(272.146 0 0)
(273.342 0 0)
(274.509 0 0)
(275.647 0 0)
(276.757 0 0)
(277.839 0 0)
(278.894 0 0)
(279.922 0 0)
(280.923 0 0)
(281.896 0 0)
(282.844 0 0)
(283.765 0 0)
(284.66 0 0)
(285.528 0 0)
(286.371 0 0)
(287.188 0 0)
(287.98 0 0)
(288.745 0 0)
(289.485 0 0)
(290.2 0 0)
(290.889 0 0)
(291.552 0 0)
(292.19 0 0)
(292.802 0 0)
(293.388 0 0)
(293.948 0 0)
(294.483 0 0)
(294.992 0 0)
(295.474 0 0)
(295.93 0 0)
(296.36 0 0)
(296.762 0 0)
(297.138 0 0)
(297.486 0 0)
(297.807 0 0)
(298.1 0 0)
(298.365 0 0)
(298.601 0 0)
(298.808 0 0)
(298.985 0 0)
(299.132 0 0)
(299.249 0 0)
(299.334 0 0)
(299.387 0 0)
(299.408 0 0)
(299.396 0 0)
(299.349 0 0)
(299.267 0 0)
(299.149 0 0)
(298.993 0 0)
(298.801 0 0)
(298.564 0 0)
(298.298 0 0)
(297.958 0 0)
(297.66 0 0)
(297.078 0 0)
(237.624 0 0)
(239.559 0 0)
(241.448 0 0)
(243.294 0 0)
(245.098 0 0)
(246.861 0 0)
(248.584 0 0)
(250.269 0 0)
(251.917 0 0)
(253.527 0 0)
(255.103 0 0)
(256.644 0 0)
(258.15 0 0)
(259.624 0 0)
(261.065 0 0)
(262.475 0 0)
(263.854 0 0)
(265.202 0 0)
(266.52 0 0)
(267.808 0 0)
(269.068 0 0)
(270.299 0 0)
(271.502 0 0)
(272.677 0 0)
(273.825 0 0)
(274.947 0 0)
(276.041 0 0)
(277.109 0 0)
(278.151 0 0)
(279.168 0 0)
(280.159 0 0)
(281.124 0 0)
(282.065 0 0)
(282.98 0 0)
(283.871 0 0)
(284.737 0 0)
(285.578 0 0)
(286.395 0 0)
(287.188 0 0)
(287.956 0 0)
(288.701 0 0)
(289.421 0 0)
(290.117 0 0)
(290.789 0 0)
(291.438 0 0)
(292.061 0 0)
(292.661 0 0)
(293.237 0 0)
(293.788 0 0)
(294.315 0 0)
(294.818 0 0)
(295.296 0 0)
(295.749 0 0)
(296.177 0 0)
(296.58 0 0)
(296.958 0 0)
(297.31 0 0)
(297.637 0 0)
(297.937 0 0)
(298.211 0 0)
(298.458 0 0)
(298.679 0 0)
(298.871 0 0)
(299.036 0 0)
(299.172 0 0)
(299.28 0 0)
(299.358 0 0)
(299.405 0 0)
(299.422 0 0)
(299.408 0 0)
(299.361 0 0)
(299.282 0 0)
(299.168 0 0)
(299.021 0 0)
(298.834 0 0)
(298.619 0 0)
(298.34 0 0)
(298.093 0 0)
(297.606 0 0)
(239.831 0 0)
(241.657 0 0)
(243.442 0 0)
(245.188 0 0)
(246.896 0 0)
(248.567 0 0)
(250.201 0 0)
(251.801 0 0)
(253.366 0 0)
(254.897 0 0)
(256.396 0 0)
(257.863 0 0)
(259.299 0 0)
(260.705 0 0)
(262.08 0 0)
(263.426 0 0)
(264.744 0 0)
(266.033 0 0)
(267.294 0 0)
(268.527 0 0)
(269.734 0 0)
(270.914 0 0)
(272.068 0 0)
(273.197 0 0)
(274.299 0 0)
(275.377 0 0)
(276.429 0 0)
(277.457 0 0)
(278.461 0 0)
(279.44 0 0)
(280.395 0 0)
(281.327 0 0)
(282.235 0 0)
(283.119 0 0)
(283.98 0 0)
(284.818 0 0)
(285.633 0 0)
(286.425 0 0)
(287.194 0 0)
(287.94 0 0)
(288.664 0 0)
(289.365 0 0)
(290.043 0 0)
(290.698 0 0)
(291.331 0 0)
(291.941 0 0)
(292.529 0 0)
(293.093 0 0)
(293.635 0 0)
(294.154 0 0)
(294.65 0 0)
(295.123 0 0)
(295.572 0 0)
(295.998 0 0)
(296.401 0 0)
(296.78 0 0)
(297.135 0 0)
(297.465 0 0)
(297.772 0 0)
(298.053 0 0)
(298.31 0 0)
(298.542 0 0)
(298.748 0 0)
(298.927 0 0)
(299.081 0 0)
(299.208 0 0)
(299.307 0 0)
(299.379 0 0)
(299.422 0 0)
(299.436 0 0)
(299.421 0 0)
(299.375 0 0)
(299.299 0 0)
(299.191 0 0)
(299.048 0 0)
(298.879 0 0)
(298.653 0 0)
(298.453 0 0)
(298.048 0 0)
(241.919 0 0)
(243.645 0 0)
(245.334 0 0)
(246.987 0 0)
(248.605 0 0)
(250.189 0 0)
(251.74 0 0)
(253.26 0 0)
(254.748 0 0)
(256.205 0 0)
(257.632 0 0)
(259.03 0 0)
(260.399 0 0)
(261.74 0 0)
(263.053 0 0)
(264.339 0 0)
(265.598 0 0)
(266.831 0 0)
(268.038 0 0)
(269.219 0 0)
(270.376 0 0)
(271.508 0 0)
(272.615 0 0)
(273.698 0 0)
(274.757 0 0)
(275.793 0 0)
(276.805 0 0)
(277.795 0 0)
(278.761 0 0)
(279.705 0 0)
(280.626 0 0)
(281.525 0 0)
(282.401 0 0)
(283.256 0 0)
(284.088 0 0)
(284.899 0 0)
(285.688 0 0)
(286.456 0 0)
(287.202 0 0)
(287.927 0 0)
(288.63 0 0)
(289.312 0 0)
(289.972 0 0)
(290.611 0 0)
(291.229 0 0)
(291.825 0 0)
(292.4 0 0)
(292.954 0 0)
(293.486 0 0)
(293.996 0 0)
(294.485 0 0)
(294.952 0 0)
(295.398 0 0)
(295.821 0 0)
(296.222 0 0)
(296.601 0 0)
(296.958 0 0)
(297.292 0 0)
(297.603 0 0)
(297.891 0 0)
(298.156 0 0)
(298.397 0 0)
(298.614 0 0)
(298.807 0 0)
(298.976 0 0)
(299.12 0 0)
(299.238 0 0)
(299.331 0 0)
(299.397 0 0)
(299.437 0 0)
(299.45 0 0)
(299.434 0 0)
(299.391 0 0)
(299.318 0 0)
(299.214 0 0)
(299.086 0 0)
(298.907 0 0)
(298.748 0 0)
(298.415 0 0)
(243.895 0 0)
(245.527 0 0)
(247.126 0 0)
(248.692 0 0)
(250.227 0 0)
(251.73 0 0)
(253.204 0 0)
(254.648 0 0)
(256.063 0 0)
(257.45 0 0)
(258.81 0 0)
(260.142 0 0)
(261.448 0 0)
(262.728 0 0)
(263.982 0 0)
(265.211 0 0)
(266.416 0 0)
(267.595 0 0)
(268.751 0 0)
(269.883 0 0)
(270.992 0 0)
(272.077 0 0)
(273.14 0 0)
(274.18 0 0)
(275.198 0 0)
(276.194 0 0)
(277.168 0 0)
(278.12 0 0)
(279.051 0 0)
(279.96 0 0)
(280.849 0 0)
(281.716 0 0)
(282.563 0 0)
(283.388 0 0)
(284.194 0 0)
(284.978 0 0)
(285.743 0 0)
(286.487 0 0)
(287.21 0 0)
(287.914 0 0)
(288.597 0 0)
(289.26 0 0)
(289.903 0 0)
(290.526 0 0)
(291.129 0 0)
(291.712 0 0)
(292.275 0 0)
(292.817 0 0)
(293.339 0 0)
(293.841 0 0)
(294.323 0 0)
(294.784 0 0)
(295.225 0 0)
(295.645 0 0)
(296.044 0 0)
(296.422 0 0)
(296.78 0 0)
(297.116 0 0)
(297.431 0 0)
(297.724 0 0)
(297.995 0 0)
(298.245 0 0)
(298.472 0 0)
(298.677 0 0)
(298.859 0 0)
(299.017 0 0)
(299.152 0 0)
(299.264 0 0)
(299.351 0 0)
(299.413 0 0)
(299.451 0 0)
(299.463 0 0)
(299.448 0 0)
(299.408 0 0)
(299.338 0 0)
(299.246 0 0)
(299.109 0 0)
(298.986 0 0)
(298.717 0 0)
(245.765 0 0)
(247.31 0 0)
(248.825 0 0)
(250.31 0 0)
(251.767 0 0)
(253.195 0 0)
(254.595 0 0)
(255.969 0 0)
(257.316 0 0)
(258.637 0 0)
(259.933 0 0)
(261.204 0 0)
(262.45 0 0)
(263.673 0 0)
(264.871 0 0)
(266.046 0 0)
(267.198 0 0)
(268.328 0 0)
(269.435 0 0)
(270.519 0 0)
(271.583 0 0)
(272.624 0 0)
(273.644 0 0)
(274.643 0 0)
(275.622 0 0)
(276.579 0 0)
(277.516 0 0)
(278.433 0 0)
(279.33 0 0)
(280.207 0 0)
(281.064 0 0)
(281.901 0 0)
(282.718 0 0)
(283.517 0 0)
(284.295 0 0)
(285.055 0 0)
(285.795 0 0)
(286.516 0 0)
(287.218 0 0)
(287.901 0 0)
(288.565 0 0)
(289.21 0 0)
(289.837 0 0)
(290.444 0 0)
(291.032 0 0)
(291.601 0 0)
(292.152 0 0)
(292.683 0 0)
(293.195 0 0)
(293.688 0 0)
(294.163 0 0)
(294.617 0 0)
(295.053 0 0)
(295.469 0 0)
(295.866 0 0)
(296.243 0 0)
(296.601 0 0)
(296.938 0 0)
(297.256 0 0)
(297.553 0 0)
(297.83 0 0)
(298.087 0 0)
(298.322 0 0)
(298.537 0 0)
(298.73 0 0)
(298.902 0 0)
(299.052 0 0)
(299.18 0 0)
(299.285 0 0)
(299.368 0 0)
(299.427 0 0)
(299.463 0 0)
(299.475 0 0)
(299.463 0 0)
(299.424 0 0)
(299.364 0 0)
(299.265 0 0)
(299.175 0 0)
(298.962 0 0)
(247.537 0 0)
(249.001 0 0)
(250.437 0 0)
(251.847 0 0)
(253.23 0 0)
(254.587 0 0)
(255.919 0 0)
(257.227 0 0)
(258.51 0 0)
(259.769 0 0)
(261.005 0 0)
(262.217 0 0)
(263.407 0 0)
(264.575 0 0)
(265.721 0 0)
(266.844 0 0)
(267.947 0 0)
(269.029 0 0)
(270.089 0 0)
(271.129 0 0)
(272.149 0 0)
(273.149 0 0)
(274.128 0 0)
(275.088 0 0)
(276.029 0 0)
(276.95 0 0)
(277.852 0 0)
(278.735 0 0)
(279.599 0 0)
(280.444 0 0)
(281.271 0 0)
(282.079 0 0)
(282.869 0 0)
(283.64 0 0)
(284.394 0 0)
(285.129 0 0)
(285.846 0 0)
(286.545 0 0)
(287.226 0 0)
(287.889 0 0)
(288.534 0 0)
(289.162 0 0)
(289.771 0 0)
(290.363 0 0)
(290.937 0 0)
(291.493 0 0)
(292.031 0 0)
(292.551 0 0)
(293.054 0 0)
(293.538 0 0)
(294.005 0 0)
(294.453 0 0)
(294.883 0 0)
(295.295 0 0)
(295.689 0 0)
(296.064 0 0)
(296.421 0 0)
(296.759 0 0)
(297.079 0 0)
(297.379 0 0)
(297.661 0 0)
(297.923 0 0)
(298.166 0 0)
(298.389 0 0)
(298.592 0 0)
(298.775 0 0)
(298.939 0 0)
(299.081 0 0)
(299.203 0 0)
(299.303 0 0)
(299.382 0 0)
(299.44 0 0)
(299.475 0 0)
(299.487 0 0)
(299.476 0 0)
(299.445 0 0)
(299.379 0 0)
(299.318 0 0)
(299.156 0 0)
(249.217 0 0)
(250.605 0 0)
(251.968 0 0)
(253.307 0 0)
(254.621 0 0)
(255.912 0 0)
(257.18 0 0)
(258.425 0 0)
(259.648 0 0)
(260.848 0 0)
(262.027 0 0)
(263.185 0 0)
(264.321 0 0)
(265.437 0 0)
(266.533 0 0)
(267.608 0 0)
(268.664 0 0)
(269.7 0 0)
(270.717 0 0)
(271.714 0 0)
(272.693 0 0)
(273.652 0 0)
(274.593 0 0)
(275.516 0 0)
(276.42 0 0)
(277.307 0 0)
(278.175 0 0)
(279.025 0 0)
(279.858 0 0)
(280.673 0 0)
(281.471 0 0)
(282.251 0 0)
(283.014 0 0)
(283.76 0 0)
(284.489 0 0)
(285.2 0 0)
(285.895 0 0)
(286.572 0 0)
(287.233 0 0)
(287.877 0 0)
(288.504 0 0)
(289.114 0 0)
(289.707 0 0)
(290.284 0 0)
(290.844 0 0)
(291.387 0 0)
(291.913 0 0)
(292.422 0 0)
(292.915 0 0)
(293.39 0 0)
(293.849 0 0)
(294.29 0 0)
(294.715 0 0)
(295.122 0 0)
(295.513 0 0)
(295.885 0 0)
(296.241 0 0)
(296.579 0 0)
(296.9 0 0)
(297.202 0 0)
(297.487 0 0)
(297.754 0 0)
(298.003 0 0)
(298.234 0 0)
(298.446 0 0)
(298.639 0 0)
(298.813 0 0)
(298.969 0 0)
(299.105 0 0)
(299.221 0 0)
(299.317 0 0)
(299.394 0 0)
(299.45 0 0)
(299.485 0 0)
(299.498 0 0)
(299.493 0 0)
(299.457 0 0)
(299.422 0 0)
(299.304 0 0)
(250.811 0 0)
(252.129 0 0)
(253.424 0 0)
(254.696 0 0)
(255.946 0 0)
(257.174 0 0)
(258.381 0 0)
(259.567 0 0)
(260.733 0 0)
(261.878 0 0)
(263.003 0 0)
(264.109 0 0)
(265.195 0 0)
(266.262 0 0)
(267.311 0 0)
(268.34 0 0)
(269.351 0 0)
(270.344 0 0)
(271.318 0 0)
(272.275 0 0)
(273.214 0 0)
(274.136 0 0)
(275.04 0 0)
(275.927 0 0)
(276.797 0 0)
(277.65 0 0)
(278.486 0 0)
(279.305 0 0)
(280.108 0 0)
(280.894 0 0)
(281.664 0 0)
(282.417 0 0)
(283.155 0 0)
(283.876 0 0)
(284.58 0 0)
(285.269 0 0)
(285.942 0 0)
(286.599 0 0)
(287.24 0 0)
(287.865 0 0)
(288.474 0 0)
(289.068 0 0)
(289.645 0 0)
(290.207 0 0)
(290.753 0 0)
(291.283 0 0)
(291.797 0 0)
(292.296 0 0)
(292.778 0 0)
(293.245 0 0)
(293.695 0 0)
(294.13 0 0)
(294.549 0 0)
(294.951 0 0)
(295.337 0 0)
(295.708 0 0)
(296.061 0 0)
(296.399 0 0)
(296.72 0 0)
(297.024 0 0)
(297.311 0 0)
(297.582 0 0)
(297.836 0 0)
(298.073 0 0)
(298.292 0 0)
(298.494 0 0)
(298.678 0 0)
(298.845 0 0)
(298.993 0 0)
(299.123 0 0)
(299.235 0 0)
(299.329 0 0)
(299.403 0 0)
(299.458 0 0)
(299.493 0 0)
(299.511 0 0)
(299.501 0 0)
(299.489 0 0)
(299.412 0 0)
(252.326 0 0)
(253.577 0 0)
(254.808 0 0)
(256.017 0 0)
(257.207 0 0)
(258.376 0 0)
(259.526 0 0)
(260.657 0 0)
(261.769 0 0)
(262.862 0 0)
(263.936 0 0)
(264.993 0 0)
(266.031 0 0)
(267.052 0 0)
(268.055 0 0)
(269.041 0 0)
(270.009 0 0)
(270.961 0 0)
(271.895 0 0)
(272.814 0 0)
(273.715 0 0)
(274.6 0 0)
(275.469 0 0)
(276.322 0 0)
(277.159 0 0)
(277.98 0 0)
(278.785 0 0)
(279.575 0 0)
(280.349 0 0)
(281.107 0 0)
(281.85 0 0)
(282.578 0 0)
(283.29 0 0)
(283.987 0 0)
(284.669 0 0)
(285.336 0 0)
(285.988 0 0)
(286.625 0 0)
(287.247 0 0)
(287.854 0 0)
(288.446 0 0)
(289.023 0 0)
(289.585 0 0)
(290.132 0 0)
(290.664 0 0)
(291.182 0 0)
(291.684 0 0)
(292.172 0 0)
(292.644 0 0)
(293.102 0 0)
(293.544 0 0)
(293.972 0 0)
(294.384 0 0)
(294.782 0 0)
(295.164 0 0)
(295.531 0 0)
(295.882 0 0)
(296.218 0 0)
(296.539 0 0)
(296.844 0 0)
(297.133 0 0)
(297.407 0 0)
(297.665 0 0)
(297.906 0 0)
(298.132 0 0)
(298.341 0 0)
(298.534 0 0)
(298.71 0 0)
(298.87 0 0)
(299.012 0 0)
(299.138 0 0)
(299.246 0 0)
(299.337 0 0)
(299.41 0 0)
(299.464 0 0)
(299.502 0 0)
(299.516 0 0)
(299.525 0 0)
(299.483 0 0)
(253.766 0 0)
(254.955 0 0)
(256.125 0 0)
(257.276 0 0)
(258.408 0 0)
(259.522 0 0)
(260.618 0 0)
(261.697 0 0)
(262.758 0 0)
(263.801 0 0)
(264.828 0 0)
(265.838 0 0)
(266.831 0 0)
(267.807 0 0)
(268.768 0 0)
(269.712 0 0)
(270.64 0 0)
(271.552 0 0)
(272.449 0 0)
(273.33 0 0)
(274.196 0 0)
(275.047 0 0)
(275.882 0 0)
(276.702 0 0)
(277.507 0 0)
(278.298 0 0)
(279.073 0 0)
(279.834 0 0)
(280.581 0 0)
(281.312 0 0)
(282.03 0 0)
(282.733 0 0)
(283.421 0 0)
(284.095 0 0)
(284.755 0 0)
(285.401 0 0)
(286.032 0 0)
(286.65 0 0)
(287.253 0 0)
(287.842 0 0)
(288.418 0 0)
(288.979 0 0)
(289.526 0 0)
(290.059 0 0)
(290.578 0 0)
(291.082 0 0)
(291.573 0 0)
(292.05 0 0)
(292.513 0 0)
(292.961 0 0)
(293.396 0 0)
(293.816 0 0)
(294.222 0 0)
(294.614 0 0)
(294.992 0 0)
(295.355 0 0)
(295.704 0 0)
(296.038 0 0)
(296.358 0 0)
(296.663 0 0)
(296.953 0 0)
(297.229 0 0)
(297.49 0 0)
(297.736 0 0)
(297.966 0 0)
(298.182 0 0)
(298.382 0 0)
(298.567 0 0)
(298.736 0 0)
(298.889 0 0)
(299.027 0 0)
(299.148 0 0)
(299.253 0 0)
(299.342 0 0)
(299.413 0 0)
(299.47 0 0)
(299.505 0 0)
(299.532 0 0)
(299.521 0 0)
(255.135 0 0)
(256.266 0 0)
(257.379 0 0)
(258.474 0 0)
(259.553 0 0)
(260.615 0 0)
(261.66 0 0)
(262.689 0 0)
(263.702 0 0)
(264.699 0 0)
(265.68 0 0)
(266.646 0 0)
(267.596 0 0)
(268.531 0 0)
(269.45 0 0)
(270.355 0 0)
(271.245 0 0)
(272.12 0 0)
(272.981 0 0)
(273.827 0 0)
(274.658 0 0)
(275.476 0 0)
(276.279 0 0)
(277.068 0 0)
(277.843 0 0)
(278.604 0 0)
(279.351 0 0)
(280.085 0 0)
(280.805 0 0)
(281.511 0 0)
(282.203 0 0)
(282.882 0 0)
(283.548 0 0)
(284.2 0 0)
(284.838 0 0)
(285.464 0 0)
(286.076 0 0)
(286.674 0 0)
(287.259 0 0)
(287.831 0 0)
(288.39 0 0)
(288.936 0 0)
(289.468 0 0)
(289.987 0 0)
(290.493 0 0)
(290.986 0 0)
(291.465 0 0)
(291.931 0 0)
(292.384 0 0)
(292.824 0 0)
(293.25 0 0)
(293.663 0 0)
(294.062 0 0)
(294.449 0 0)
(294.821 0 0)
(295.18 0 0)
(295.526 0 0)
(295.858 0 0)
(296.177 0 0)
(296.481 0 0)
(296.772 0 0)
(297.049 0 0)
(297.312 0 0)
(297.561 0 0)
(297.796 0 0)
(298.017 0 0)
(298.224 0 0)
(298.415 0 0)
(298.593 0 0)
(298.756 0 0)
(298.903 0 0)
(299.036 0 0)
(299.154 0 0)
(299.257 0 0)
(299.344 0 0)
(299.416 0 0)
(299.47 0 0)
(299.513 0 0)
(299.531 0 0)
(256.439 0 0)
(257.514 0 0)
(258.574 0 0)
(259.617 0 0)
(260.645 0 0)
(261.658 0 0)
(262.655 0 0)
(263.638 0 0)
(264.605 0 0)
(265.558 0 0)
(266.496 0 0)
(267.419 0 0)
(268.329 0 0)
(269.224 0 0)
(270.105 0 0)
(270.972 0 0)
(271.825 0 0)
(272.665 0 0)
(273.491 0 0)
(274.303 0 0)
(275.102 0 0)
(275.888 0 0)
(276.66 0 0)
(277.42 0 0)
(278.166 0 0)
(278.899 0 0)
(279.619 0 0)
(280.326 0 0)
(281.02 0 0)
(281.702 0 0)
(282.371 0 0)
(283.027 0 0)
(283.67 0 0)
(284.301 0 0)
(284.919 0 0)
(285.524 0 0)
(286.117 0 0)
(286.698 0 0)
(287.265 0 0)
(287.821 0 0)
(288.364 0 0)
(288.894 0 0)
(289.412 0 0)
(289.918 0 0)
(290.411 0 0)
(290.891 0 0)
(291.359 0 0)
(291.815 0 0)
(292.258 0 0)
(292.689 0 0)
(293.107 0 0)
(293.512 0 0)
(293.905 0 0)
(294.285 0 0)
(294.653 0 0)
(295.008 0 0)
(295.35 0 0)
(295.679 0 0)
(295.996 0 0)
(296.3 0 0)
(296.59 0 0)
(296.868 0 0)
(297.133 0 0)
(297.384 0 0)
(297.623 0 0)
(297.848 0 0)
(298.059 0 0)
(298.257 0 0)
(298.442 0 0)
(298.613 0 0)
(298.77 0 0)
(298.913 0 0)
(299.042 0 0)
(299.157 0 0)
(299.257 0 0)
(299.344 0 0)
(299.414 0 0)
(299.472 0 0)
(299.515 0 0)
(257.68 0 0)
(258.704 0 0)
(259.713 0 0)
(260.707 0 0)
(261.688 0 0)
(262.654 0 0)
(263.606 0 0)
(264.544 0 0)
(265.468 0 0)
(266.379 0 0)
(267.276 0 0)
(268.16 0 0)
(269.03 0 0)
(269.888 0 0)
(270.732 0 0)
(271.563 0 0)
(272.382 0 0)
(273.188 0 0)
(273.981 0 0)
(274.761 0 0)
(275.529 0 0)
(276.285 0 0)
(277.028 0 0)
(277.758 0 0)
(278.477 0 0)
(279.183 0 0)
(279.877 0 0)
(280.559 0 0)
(281.229 0 0)
(281.887 0 0)
(282.532 0 0)
(283.166 0 0)
(283.788 0 0)
(284.398 0 0)
(284.997 0 0)
(285.583 0 0)
(286.158 0 0)
(286.72 0 0)
(287.271 0 0)
(287.81 0 0)
(288.338 0 0)
(288.854 0 0)
(289.358 0 0)
(289.85 0 0)
(290.33 0 0)
(290.799 0 0)
(291.256 0 0)
(291.701 0 0)
(292.134 0 0)
(292.556 0 0)
(292.966 0 0)
(293.364 0 0)
(293.75 0 0)
(294.124 0 0)
(294.487 0 0)
(294.837 0 0)
(295.175 0 0)
(295.502 0 0)
(295.816 0 0)
(296.118 0 0)
(296.408 0 0)
(296.686 0 0)
(296.952 0 0)
(297.205 0 0)
(297.446 0 0)
(297.674 0 0)
(297.89 0 0)
(298.093 0 0)
(298.284 0 0)
(298.462 0 0)
(298.627 0 0)
(298.779 0 0)
(298.917 0 0)
(299.043 0 0)
(299.155 0 0)
(299.255 0 0)
(299.34 0 0)
(299.411 0 0)
(299.475 0 0)
(258.863 0 0)
(259.838 0 0)
(260.8 0 0)
(261.748 0 0)
(262.683 0 0)
(263.605 0 0)
(264.514 0 0)
(265.41 0 0)
(266.293 0 0)
(267.164 0 0)
(268.023 0 0)
(268.869 0 0)
(269.702 0 0)
(270.524 0 0)
(271.333 0 0)
(272.131 0 0)
(272.916 0 0)
(273.69 0 0)
(274.451 0 0)
(275.201 0 0)
(275.939 0 0)
(276.666 0 0)
(277.381 0 0)
(278.084 0 0)
(278.776 0 0)
(279.457 0 0)
(280.126 0 0)
(280.783 0 0)
(281.43 0 0)
(282.065 0 0)
(282.689 0 0)
(283.301 0 0)
(283.903 0 0)
(284.493 0 0)
(285.072 0 0)
(285.64 0 0)
(286.197 0 0)
(286.742 0 0)
(287.277 0 0)
(287.8 0 0)
(288.313 0 0)
(288.814 0 0)
(289.304 0 0)
(289.784 0 0)
(290.252 0 0)
(290.709 0 0)
(291.155 0 0)
(291.59 0 0)
(292.014 0 0)
(292.426 0 0)
(292.828 0 0)
(293.218 0 0)
(293.598 0 0)
(293.966 0 0)
(294.322 0 0)
(294.668 0 0)
(295.002 0 0)
(295.325 0 0)
(295.637 0 0)
(295.937 0 0)
(296.226 0 0)
(296.504 0 0)
(296.77 0 0)
(297.024 0 0)
(297.267 0 0)
(297.498 0 0)
(297.717 0 0)
(297.925 0 0)
(298.12 0 0)
(298.304 0 0)
(298.476 0 0)
(298.635 0 0)
(298.783 0 0)
(298.918 0 0)
(299.04 0 0)
(299.151 0 0)
(299.249 0 0)
(299.331 0 0)
(299.415 0 0)
(259.99 0 0)
(260.92 0 0)
(261.836 0 0)
(262.741 0 0)
(263.633 0 0)
(264.513 0 0)
(265.382 0 0)
(266.238 0 0)
(267.083 0 0)
(267.916 0 0)
(268.738 0 0)
(269.548 0 0)
(270.347 0 0)
(271.134 0 0)
(271.91 0 0)
(272.675 0 0)
(273.429 0 0)
(274.172 0 0)
(274.903 0 0)
(275.624 0 0)
(276.334 0 0)
(277.033 0 0)
(277.721 0 0)
(278.398 0 0)
(279.065 0 0)
(279.72 0 0)
(280.365 0 0)
(281 0 0)
(281.624 0 0)
(282.237 0 0)
(282.84 0 0)
(283.432 0 0)
(284.013 0 0)
(284.584 0 0)
(285.145 0 0)
(285.695 0 0)
(286.234 0 0)
(286.764 0 0)
(287.282 0 0)
(287.791 0 0)
(288.288 0 0)
(288.776 0 0)
(289.253 0 0)
(289.719 0 0)
(290.175 0 0)
(290.621 0 0)
(291.056 0 0)
(291.481 0 0)
(291.895 0 0)
(292.299 0 0)
(292.692 0 0)
(293.075 0 0)
(293.448 0 0)
(293.809 0 0)
(294.161 0 0)
(294.501 0 0)
(294.831 0 0)
(295.151 0 0)
(295.459 0 0)
(295.757 0 0)
(296.045 0 0)
(296.321 0 0)
(296.587 0 0)
(296.842 0 0)
(297.086 0 0)
(297.319 0 0)
(297.541 0 0)
(297.752 0 0)
(297.952 0 0)
(298.14 0 0)
(298.318 0 0)
(298.484 0 0)
(298.638 0 0)
(298.782 0 0)
(298.914 0 0)
(299.034 0 0)
(299.143 0 0)
(299.235 0 0)
(299.337 0 0)
(261.066 0 0)
(261.952 0 0)
(262.826 0 0)
(263.689 0 0)
(264.541 0 0)
(265.382 0 0)
(266.212 0 0)
(267.031 0 0)
(267.839 0 0)
(268.636 0 0)
(269.423 0 0)
(270.199 0 0)
(270.964 0 0)
(271.719 0 0)
(272.464 0 0)
(273.198 0 0)
(273.921 0 0)
(274.635 0 0)
(275.338 0 0)
(276.031 0 0)
(276.713 0 0)
(277.386 0 0)
(278.048 0 0)
(278.7 0 0)
(279.342 0 0)
(279.974 0 0)
(280.597 0 0)
(281.209 0 0)
(281.811 0 0)
(282.403 0 0)
(282.985 0 0)
(283.558 0 0)
(284.12 0 0)
(284.673 0 0)
(285.215 0 0)
(285.748 0 0)
(286.271 0 0)
(286.784 0 0)
(287.288 0 0)
(287.781 0 0)
(288.265 0 0)
(288.738 0 0)
(289.202 0 0)
(289.657 0 0)
(290.101 0 0)
(290.535 0 0)
(290.96 0 0)
(291.375 0 0)
(291.78 0 0)
(292.175 0 0)
(292.56 0 0)
(292.935 0 0)
(293.3 0 0)
(293.656 0 0)
(294.001 0 0)
(294.337 0 0)
(294.662 0 0)
(294.978 0 0)
(295.283 0 0)
(295.579 0 0)
(295.864 0 0)
(296.139 0 0)
(296.404 0 0)
(296.659 0 0)
(296.903 0 0)
(297.138 0 0)
(297.362 0 0)
(297.575 0 0)
(297.779 0 0)
(297.971 0 0)
(298.154 0 0)
(298.325 0 0)
(298.486 0 0)
(298.637 0 0)
(298.776 0 0)
(298.905 0 0)
(299.024 0 0)
(299.126 0 0)
(299.243 0 0)
(262.093 0 0)
(262.938 0 0)
(263.772 0 0)
(264.596 0 0)
(265.409 0 0)
(266.213 0 0)
(267.006 0 0)
(267.789 0 0)
(268.563 0 0)
(269.326 0 0)
(270.079 0 0)
(270.823 0 0)
(271.557 0 0)
(272.281 0 0)
(272.995 0 0)
(273.699 0 0)
(274.394 0 0)
(275.08 0 0)
(275.755 0 0)
(276.422 0 0)
(277.078 0 0)
(277.725 0 0)
(278.363 0 0)
(278.991 0 0)
(279.61 0 0)
(280.219 0 0)
(280.82 0 0)
(281.41 0 0)
(281.991 0 0)
(282.563 0 0)
(283.126 0 0)
(283.679 0 0)
(284.223 0 0)
(284.758 0 0)
(285.284 0 0)
(285.8 0 0)
(286.307 0 0)
(286.804 0 0)
(287.293 0 0)
(287.772 0 0)
(288.242 0 0)
(288.702 0 0)
(289.153 0 0)
(289.595 0 0)
(290.028 0 0)
(290.452 0 0)
(290.866 0 0)
(291.271 0 0)
(291.666 0 0)
(292.053 0 0)
(292.43 0 0)
(292.797 0 0)
(293.156 0 0)
(293.505 0 0)
(293.844 0 0)
(294.175 0 0)
(294.495 0 0)
(294.807 0 0)
(295.109 0 0)
(295.401 0 0)
(295.684 0 0)
(295.957 0 0)
(296.221 0 0)
(296.476 0 0)
(296.72 0 0)
(296.955 0 0)
(297.181 0 0)
(297.396 0 0)
(297.602 0 0)
(297.798 0 0)
(297.984 0 0)
(298.161 0 0)
(298.327 0 0)
(298.484 0 0)
(298.63 0 0)
(298.766 0 0)
(298.894 0 0)
(299.004 0 0)
(299.134 0 0)
(263.073 0 0)
(263.879 0 0)
(264.675 0 0)
(265.462 0 0)
(266.239 0 0)
(267.007 0 0)
(267.766 0 0)
(268.516 0 0)
(269.256 0 0)
(269.987 0 0)
(270.708 0 0)
(271.421 0 0)
(272.125 0 0)
(272.819 0 0)
(273.505 0 0)
(274.181 0 0)
(274.849 0 0)
(275.507 0 0)
(276.157 0 0)
(276.798 0 0)
(277.429 0 0)
(278.052 0 0)
(278.666 0 0)
(279.272 0 0)
(279.868 0 0)
(280.456 0 0)
(281.035 0 0)
(281.605 0 0)
(282.166 0 0)
(282.718 0 0)
(283.262 0 0)
(283.797 0 0)
(284.323 0 0)
(284.841 0 0)
(285.35 0 0)
(285.85 0 0)
(286.341 0 0)
(286.824 0 0)
(287.297 0 0)
(287.763 0 0)
(288.219 0 0)
(288.667 0 0)
(289.106 0 0)
(289.536 0 0)
(289.957 0 0)
(290.37 0 0)
(290.774 0 0)
(291.169 0 0)
(291.556 0 0)
(291.934 0 0)
(292.302 0 0)
(292.663 0 0)
(293.014 0 0)
(293.356 0 0)
(293.69 0 0)
(294.015 0 0)
(294.331 0 0)
(294.638 0 0)
(294.936 0 0)
(295.225 0 0)
(295.505 0 0)
(295.777 0 0)
(296.039 0 0)
(296.292 0 0)
(296.537 0 0)
(296.772 0 0)
(296.998 0 0)
(297.215 0 0)
(297.423 0 0)
(297.622 0 0)
(297.811 0 0)
(297.991 0 0)
(298.162 0 0)
(298.324 0 0)
(298.476 0 0)
(298.619 0 0)
(298.754 0 0)
(298.87 0 0)
(299.012 0 0)
(264.009 0 0)
(264.779 0 0)
(265.539 0 0)
(266.291 0 0)
(267.034 0 0)
(267.768 0 0)
(268.494 0 0)
(269.211 0 0)
(269.92 0 0)
(270.62 0 0)
(271.312 0 0)
(271.995 0 0)
(272.67 0 0)
(273.336 0 0)
(273.994 0 0)
(274.644 0 0)
(275.285 0 0)
(275.918 0 0)
(276.543 0 0)
(277.159 0 0)
(277.767 0 0)
(278.367 0 0)
(278.959 0 0)
(279.542 0 0)
(280.117 0 0)
(280.683 0 0)
(281.242 0 0)
(281.792 0 0)
(282.334 0 0)
(282.868 0 0)
(283.394 0 0)
(283.911 0 0)
(284.42 0 0)
(284.921 0 0)
(285.414 0 0)
(285.898 0 0)
(286.374 0 0)
(286.842 0 0)
(287.302 0 0)
(287.754 0 0)
(288.197 0 0)
(288.632 0 0)
(289.059 0 0)
(289.478 0 0)
(289.888 0 0)
(290.291 0 0)
(290.685 0 0)
(291.07 0 0)
(291.448 0 0)
(291.817 0 0)
(292.178 0 0)
(292.53 0 0)
(292.875 0 0)
(293.211 0 0)
(293.538 0 0)
(293.858 0 0)
(294.168 0 0)
(294.471 0 0)
(294.765 0 0)
(295.051 0 0)
(295.328 0 0)
(295.597 0 0)
(295.858 0 0)
(296.11 0 0)
(296.353 0 0)
(296.588 0 0)
(296.814 0 0)
(297.032 0 0)
(297.242 0 0)
(297.442 0 0)
(297.634 0 0)
(297.818 0 0)
(297.992 0 0)
(298.158 0 0)
(298.316 0 0)
(298.463 0 0)
(298.606 0 0)
(298.727 0 0)
(298.879 0 0)
(264.904 0 0)
(265.639 0 0)
(266.365 0 0)
(267.083 0 0)
(267.794 0 0)
(268.496 0 0)
(269.191 0 0)
(269.878 0 0)
(270.556 0 0)
(271.227 0 0)
(271.89 0 0)
(272.546 0 0)
(273.193 0 0)
(273.833 0 0)
(274.465 0 0)
(275.089 0 0)
(275.705 0 0)
(276.314 0 0)
(276.914 0 0)
(277.507 0 0)
(278.093 0 0)
(278.67 0 0)
(279.24 0 0)
(279.802 0 0)
(280.356 0 0)
(280.903 0 0)
(281.442 0 0)
(281.973 0 0)
(282.497 0 0)
(283.012 0 0)
(283.521 0 0)
(284.021 0 0)
(284.513 0 0)
(284.998 0 0)
(285.475 0 0)
(285.945 0 0)
(286.407 0 0)
(286.861 0 0)
(287.307 0 0)
(287.745 0 0)
(288.176 0 0)
(288.599 0 0)
(289.014 0 0)
(289.422 0 0)
(289.821 0 0)
(290.213 0 0)
(290.597 0 0)
(290.974 0 0)
(291.342 0 0)
(291.703 0 0)
(292.056 0 0)
(292.401 0 0)
(292.738 0 0)
(293.068 0 0)
(293.389 0 0)
(293.703 0 0)
(294.009 0 0)
(294.307 0 0)
(294.597 0 0)
(294.879 0 0)
(295.153 0 0)
(295.419 0 0)
(295.677 0 0)
(295.927 0 0)
(296.17 0 0)
(296.404 0 0)
(296.63 0 0)
(296.848 0 0)
(297.059 0 0)
(297.261 0 0)
(297.455 0 0)
(297.64 0 0)
(297.818 0 0)
(297.988 0 0)
(298.149 0 0)
(298.301 0 0)
(298.449 0 0)
(298.576 0 0)
(298.737 0 0)
(265.759 0 0)
(266.461 0 0)
(267.155 0 0)
(267.842 0 0)
(268.522 0 0)
(269.194 0 0)
(269.859 0 0)
(270.516 0 0)
(271.167 0 0)
(271.81 0 0)
(272.446 0 0)
(273.074 0 0)
(273.695 0 0)
(274.31 0 0)
(274.916 0 0)
(275.516 0 0)
(276.109 0 0)
(276.694 0 0)
(277.272 0 0)
(277.842 0 0)
(278.406 0 0)
(278.962 0 0)
(279.511 0 0)
(280.053 0 0)
(280.588 0 0)
(281.115 0 0)
(281.635 0 0)
(282.148 0 0)
(282.654 0 0)
(283.152 0 0)
(283.643 0 0)
(284.127 0 0)
(284.604 0 0)
(285.073 0 0)
(285.535 0 0)
(285.99 0 0)
(286.438 0 0)
(286.878 0 0)
(287.311 0 0)
(287.737 0 0)
(288.155 0 0)
(288.566 0 0)
(288.97 0 0)
(289.367 0 0)
(289.756 0 0)
(290.138 0 0)
(290.512 0 0)
(290.879 0 0)
(291.239 0 0)
(291.592 0 0)
(291.937 0 0)
(292.274 0 0)
(292.604 0 0)
(292.927 0 0)
(293.243 0 0)
(293.551 0 0)
(293.851 0 0)
(294.144 0 0)
(294.43 0 0)
(294.708 0 0)
(294.979 0 0)
(295.242 0 0)
(295.498 0 0)
(295.746 0 0)
(295.987 0 0)
(296.22 0 0)
(296.446 0 0)
(296.664 0 0)
(296.875 0 0)
(297.077 0 0)
(297.273 0 0)
(297.46 0 0)
(297.64 0 0)
(297.813 0 0)
(297.978 0 0)
(298.134 0 0)
(298.286 0 0)
(298.417 0 0)
(298.585 0 0)
(266.577 0 0)
(267.248 0 0)
(267.912 0 0)
(268.568 0 0)
(269.218 0 0)
(269.862 0 0)
(270.499 0 0)
(271.129 0 0)
(271.752 0 0)
(272.368 0 0)
(272.978 0 0)
(273.581 0 0)
(274.178 0 0)
(274.768 0 0)
(275.351 0 0)
(275.927 0 0)
(276.496 0 0)
(277.059 0 0)
(277.615 0 0)
(278.165 0 0)
(278.707 0 0)
(279.243 0 0)
(279.773 0 0)
(280.295 0 0)
(280.811 0 0)
(281.319 0 0)
(281.821 0 0)
(282.317 0 0)
(282.805 0 0)
(283.287 0 0)
(283.762 0 0)
(284.23 0 0)
(284.691 0 0)
(285.146 0 0)
(285.593 0 0)
(286.034 0 0)
(286.468 0 0)
(286.895 0 0)
(287.315 0 0)
(287.729 0 0)
(288.135 0 0)
(288.535 0 0)
(288.928 0 0)
(289.313 0 0)
(289.692 0 0)
(290.064 0 0)
(290.429 0 0)
(290.787 0 0)
(291.138 0 0)
(291.483 0 0)
(291.82 0 0)
(292.15 0 0)
(292.473 0 0)
(292.79 0 0)
(293.099 0 0)
(293.401 0 0)
(293.697 0 0)
(293.985 0 0)
(294.266 0 0)
(294.54 0 0)
(294.807 0 0)
(295.068 0 0)
(295.321 0 0)
(295.567 0 0)
(295.805 0 0)
(296.037 0 0)
(296.262 0 0)
(296.479 0 0)
(296.69 0 0)
(296.893 0 0)
(297.089 0 0)
(297.278 0 0)
(297.46 0 0)
(297.635 0 0)
(297.802 0 0)
(297.961 0 0)
(298.118 0 0)
(298.253 0 0)
(298.427 0 0)
(267.36 0 0)
(268.001 0 0)
(268.636 0 0)
(269.264 0 0)
(269.886 0 0)
(270.502 0 0)
(271.112 0 0)
(271.716 0 0)
(272.313 0 0)
(272.905 0 0)
(273.49 0 0)
(274.069 0 0)
(274.641 0 0)
(275.208 0 0)
(275.768 0 0)
(276.322 0 0)
(276.87 0 0)
(277.411 0 0)
(277.946 0 0)
(278.475 0 0)
(278.998 0 0)
(279.514 0 0)
(280.024 0 0)
(280.528 0 0)
(281.026 0 0)
(281.517 0 0)
(282.001 0 0)
(282.48 0 0)
(282.952 0 0)
(283.417 0 0)
(283.877 0 0)
(284.33 0 0)
(284.776 0 0)
(285.216 0 0)
(285.65 0 0)
(286.077 0 0)
(286.498 0 0)
(286.912 0 0)
(287.32 0 0)
(287.721 0 0)
(288.116 0 0)
(288.504 0 0)
(288.886 0 0)
(289.261 0 0)
(289.63 0 0)
(289.992 0 0)
(290.348 0 0)
(290.697 0 0)
(291.04 0 0)
(291.376 0 0)
(291.706 0 0)
(292.029 0 0)
(292.345 0 0)
(292.655 0 0)
(292.958 0 0)
(293.255 0 0)
(293.544 0 0)
(293.828 0 0)
(294.104 0 0)
(294.375 0 0)
(294.638 0 0)
(294.895 0 0)
(295.145 0 0)
(295.388 0 0)
(295.625 0 0)
(295.855 0 0)
(296.078 0 0)
(296.295 0 0)
(296.505 0 0)
(296.708 0 0)
(296.905 0 0)
(297.094 0 0)
(297.277 0 0)
(297.454 0 0)
(297.623 0 0)
(297.785 0 0)
(297.945 0 0)
(298.082 0 0)
(298.262 0 0)
(268.109 0 0)
(268.722 0 0)
(269.329 0 0)
(269.93 0 0)
(270.526 0 0)
(271.116 0 0)
(271.7 0 0)
(272.279 0 0)
(272.852 0 0)
(273.419 0 0)
(273.981 0 0)
(274.536 0 0)
(275.086 0 0)
(275.631 0 0)
(276.169 0 0)
(276.702 0 0)
(277.229 0 0)
(277.75 0 0)
(278.265 0 0)
(278.774 0 0)
(279.278 0 0)
(279.775 0 0)
(280.267 0 0)
(280.753 0 0)
(281.233 0 0)
(281.707 0 0)
(282.175 0 0)
(282.637 0 0)
(283.093 0 0)
(283.543 0 0)
(283.988 0 0)
(284.426 0 0)
(284.858 0 0)
(285.284 0 0)
(285.704 0 0)
(286.118 0 0)
(286.526 0 0)
(286.928 0 0)
(287.324 0 0)
(287.713 0 0)