/*--------------------------------*- C++ -*----------------------------------*\
| =========                 |                                                 |
| \\      /  F ield         | OpenFOAM: The Open Source CFD Toolbox           |
|  \\    /   O peration     | Version:  2312                                  |
|   \\  /    A nd           | Website:  www.openfoam.com                      |
|    \\/     M anipulation  |                                                 |
\*---------------------------------------------------------------------------*/
FoamFile
{
    version     2.0;
    format      ascii;
    arch        "LSB;label=32;scalar=64";
    class       surfaceScalarField;
    location    "0.805";
    object      phi;
}
// * * * * * * * * * * * * * * * * * * * * * * * * * * * * * * * * * * * * * //

dimensions      [0 3 -1 0 0 0 0];

oriented        oriented;

internalField   nonuniform List<scalar> 
62015
(
43.0548
0.226659
-44.1639
41.9334
0.217429
40.7991
0.208173
39.6511
0.198904
38.4888
0.189634
37.3121
0.180379
36.122
0.171157
34.9207
0.161996
33.7127
0.152928
32.5062
0.144002
31.3139
0.135277
30.1543
0.126835
29.0509
0.118767
28.0297
0.111167
27.1154
0.104114
26.3264
0.0976558
25.6723
0.0917962
25.1532
0.0864998
24.7617
0.081701
24.4851
0.0773175
24.3087
0.0732629
24.2175
0.0694558
24.1976
0.0658237
24.2368
0.0623056
24.3248
0.0588514
24.4532
0.0554206
24.6149
0.051981
24.8045
0.0485075
25.0174
0.0449802
25.2499
0.0413837
25.4993
0.037706
25.7632
0.0339378
26.0397
0.0300724
26.3274
0.0261043
26.6249
0.0220299
26.9314
0.0178464
27.2461
0.0135524
27.5683
0.00914663
27.8975
0.00462906
28.2334
0
28.5757
-0.00473995
28.924
-0.00958918
29.2783
-0.014547
29.6383
-0.0196106
30.004
-0.0247788
30.3754
-0.0300488
30.7523
-0.0354184
31.1348
-0.0408845
31.5229
-0.046445
31.9165
-0.0520961
32.3158
-0.0578351
32.7207
-0.0636587
33.1314
-0.0695636
33.5478
-0.0755462
33.97
-0.0816031
34.3981
-0.0877303
34.8322
-0.0939247
35.2723
-0.100182
35.7184
-0.106498
36.1707
-0.11287
36.6293
-0.119293
37.0941
-0.125763
37.5652
-0.132276
38.0427
-0.138828
38.5267
-0.145414
39.0172
-0.152032
39.5142
-0.158675
40.0179
-0.16534
40.5282
-0.172022
41.0451
-0.178718
41.5688
-0.185422
42.0993
-0.19213
42.6363
-0.198839
43.1807
-0.205541
43.7301
-0.212242
44.2918
-0.218903
44.8436
-0.225627
45.4538
-0.232077
-0.239283
45.9128
40.9819
0.437953
-42.0523
39.8991
0.419952
38.8041
0.401909
37.6963
0.383848
36.5756
0.365797
35.4426
0.347793
34.2988
0.329879
33.1478
0.312117
31.9956
0.294587
30.8524
0.277394
29.7328
0.260678
28.6567
0.244604
27.6472
0.229351
26.7276
0.215084
25.9178
0.201919
25.2305
0.189904
24.6698
0.179004
24.2322
0.169123
23.9084
0.160119
23.6855
0.151832
23.5499
0.144103
23.4881
0.136785
23.488
0.129752
23.5394
0.122896
23.6332
0.116132
23.7624
0.109388
23.921
0.10261
24.1043
0.0957527
24.3084
0.0887821
24.5302
0.0816712
24.7673
0.0743986
25.0176
0.0669484
25.2795
0.059308
25.5516
0.0514684
25.8331
0.0434229
26.1229
0.0351668
26.4204
0.0266974
26.725
0.0180131
27.0364
0.00911377
27.3541
0
27.6779
-0.00932654
28.0075
-0.0188634
28.3429
-0.0286079
28.6839
-0.0385563
29.0303
-0.0487043
29.3822
-0.0590481
29.7396
-0.0695824
30.1023
-0.0803019
30.4704
-0.0912015
30.844
-0.102275
31.223
-0.113517
31.6075
-0.12492
31.9975
-0.136479
32.3931
-0.148186
32.7944
-0.160035
33.2013
-0.172018
33.6141
-0.184129
34.0326
-0.19636
34.457
-0.208703
34.8874
-0.221151
35.3238
-0.233696
35.7662
-0.24633
36.2148
-0.259046
36.6695
-0.271835
37.1304
-0.284689
37.5976
-0.297599
38.0712
-0.310558
38.5511
-0.323557
39.0373
-0.336588
39.53
-0.349642
40.0292
-0.362711
40.5349
-0.375785
41.0469
-0.388858
41.566
-0.401915
42.09
-0.414968
42.6256
-0.427944
43.1522
-0.441033
43.733
-0.453605
-0.467595
44.1753
38.9562
0.634026
-39.9897
37.9108
0.607705
36.8541
0.581337
35.7859
0.55496
34.7066
0.528623
33.6174
0.502388
32.521
0.476334
31.4223
0.450569
30.3293
0.425232
29.254
0.400504
28.2129
0.376608
27.2259
0.353794
26.3145
0.332306
25.4984
0.312337
24.792
0.293996
24.2024
0.277283
23.7294
0.2621
23.3667
0.248272
23.1039
0.235585
22.9288
0.223811
22.829
0.212734
22.7928
0.20216
22.8098
0.191925
22.8712
0.181889
22.9695
0.171941
23.0987
0.161991
23.2538
0.151965
23.4307
0.141806
23.6262
0.131471
23.8376
0.120922
24.0628
0.110133
24.3001
0.0990815
24.5481
0.087752
24.8056
0.0761323
25.0717
0.0642136
25.3457
0.0519899
25.6269
0.0394577
25.9149
0.0266149
26.2093
0.0134621
26.5098
0
26.8161
-0.0137687
27.1281
-0.0278402
27.4455
-0.0422103
27.7684
-0.0568739
28.0966
-0.0718251
28.4301
-0.087057
28.7688
-0.102563
29.1128
-0.118335
29.462
-0.134366
29.8165
-0.150646
30.1763
-0.167168
30.5414
-0.183921
30.9119
-0.200897
31.2878
-0.218086
31.6691
-0.235477
32.056
-0.253061
32.4485
-0.270827
32.8466
-0.288764
33.2504
-0.306861
33.6599
-0.325107
34.0753
-0.343491
34.4965
-0.362002
34.9236
-0.380627
35.3567
-0.399356
35.7957
-0.418176
36.2408
-0.437076
36.692
-0.456042
37.1494
-0.475063
37.6128
-0.494128
38.0825
-0.513222
38.5584
-0.532335
39.0406
-0.551453
39.5288
-0.570565
40.0238
-0.589652
40.5236
-0.608727
41.0344
-0.62769
41.537
-0.646809
42.0902
-0.66519
-0.685574
42.515
36.9991
0.815379
-37.997
35.9901
0.781181
34.9708
0.746943
33.9416
0.712724
32.9035
0.678601
31.8586
0.644669
30.8109
0.611055
29.7669
0.577924
28.7365
0.545492
27.7333
0.514023
26.7746
0.483823
25.8797
0.455204
25.0673
0.428436
24.3523
0.403699
23.744
0.381046
23.2447
0.360402
22.8508
0.341587
22.5545
0.32435
22.3452
0.308412
22.2115
0.293494
22.1424
0.279339
22.1279
0.265722
22.1591
0.252452
22.2286
0.239372
22.3301
0.226352
22.4586
0.213289
22.6098
0.200099
22.7804
0.186716
22.9676
0.17309
23.1691
0.159177
23.3831
0.144946
23.6081
0.130372
23.8429
0.115437
24.0865
0.100125
24.3382
0.0844274
24.5972
0.068337
24.8631
0.0518497
25.1354
0.034964
25.4138
0.0176801
25.6981
0
25.9879
-0.0180728
26.2831
-0.0365335
26.5837
-0.0553765
26.8895
-0.0745945
27.2005
-0.0941801
27.5165
-0.114125
27.8377
-0.134419
28.1639
-0.155054
28.4952
-0.176019
28.8317
-0.197302
29.1732
-0.218892
29.52
-0.240779
29.8719
-0.262948
30.2291
-0.285388
30.5917
-0.308086
30.9595
-0.331029
31.3328
-0.354202
31.7115
-0.377592
32.0957
-0.401185
32.4855
-0.424967
32.8808
-0.448923
33.2819
-0.473038
33.6886
-0.497297
34.1011
-0.521685
34.5194
-0.546187
34.9435
-0.570787
35.3735
-0.595469
35.8093
-0.620218
36.2511
-0.645018
36.6989
-0.669853
37.1526
-0.694707
37.6124
-0.719563
38.0781
-0.744407
38.5502
-0.769214
39.0269
-0.794002
39.5141
-0.818641
39.9939
-0.843471
40.521
-0.867362
-0.893783
40.9283
35.1196
0.982635
-36.0828
34.1463
0.940997
33.1641
0.899347
32.1739
0.85777
31.1775
0.816377
30.1781
0.775311
29.1811
0.734756
28.1948
0.694953
27.2306
0.656199
26.3033
0.618842
25.4299
0.583252
24.6279
0.549767
23.9121
0.518639
23.2928
0.489988
22.7746
0.46378
22.3562
0.439852
22.0319
0.417939
21.7928
0.397725
21.629
0.37888
21.5302
0.361091
21.4867
0.344075
21.49
0.327587
21.5325
0.311422
21.6081
0.295411
21.7116
0.279415
21.8386
0.263323
21.9857
0.247046
22.1499
0.230513
22.3289
0.213665
22.5209
0.19646
22.7241
0.178861
22.9375
0.160842
23.1599
0.142382
23.3904
0.123465
23.6285
0.104081
23.8734
0.0842221
24.1249
0.0638851
24.3824
0.0430682
24.6457
0.0217721
24.9146
0
25.1889
-0.0222439
25.4684
-0.0449536
25.753
-0.0681217
26.0426
-0.0917399
26.3373
-0.115799
26.6369
-0.140288
26.9414
-0.165196
27.2509
-0.190511
27.5653
-0.216221
27.8846
-0.242312
28.2089
-0.268771
28.5383
-0.295582
28.8727
-0.322732
29.2122
-0.350205
29.5568
-0.377985
29.9066
-0.406056
30.2616
-0.434401
30.6219
-0.463005
30.9876
-0.491849
31.3585
-0.520916
31.735
-0.550189
32.1168
-0.57965
32.5042
-0.60928
32.8971
-0.63906
33.2957
-0.668973
33.6998
-0.699
34.1096
-0.729121
34.525
-0.759318
34.9462
-0.789571
35.3731
-0.819861
35.8058
-0.850169
36.2442
-0.880473
36.6884
-0.910758
37.1387
-0.940992
37.5935
-0.971196
38.0582
-1.00122
38.5161
-1.03146
39.0185
-1.06057
-1.09269
39.4087
33.3206
1.13644
-34.2496
32.3826
1.0878
31.4375
1.03921
30.4867
0.990775
29.5331
0.94266
28.5811
0.895062
27.6376
0.848242
26.7123
0.80252
25.8178
0.758277
24.9693
0.715928
24.1824
0.67587
23.4716
0.638425
22.8477
0.60378
22.3168
0.571961
21.8795
0.542836
21.5321
0.516147
21.2676
0.49156
21.0772
0.468707
20.9515
0.447225
20.8816
0.426779
20.859
0.407072
20.8764
0.387852
20.9278
0.368906
21.0077
0.35006
21.1119
0.331173
21.2367
0.312129
21.3793
0.292836
21.5371
0.273219
21.7081
0.25322
21.8908
0.232792
22.0839
0.211897
22.2861
0.190508
22.4967
0.168603
22.7149
0.146167
22.94
0.123187
23.1717
0.0996571
23.4095
0.0755731
23.6531
0.0509343
23.9022
0.025742
24.1566
0
24.4162
-0.0262861
24.6808
-0.0531091
24.9504
-0.0804602
25.2248
-0.10833
25.5041
-0.136706
25.7881
-0.165578
26.0769
-0.194932
26.3705
-0.224753
26.6689
-0.255028
26.972
-0.28574
27.28
-0.316874
27.5929
-0.348413
27.9107
-0.380339
28.2334
-0.412635
28.561
-0.445283
28.8937
-0.478263
29.2314
-0.511557
29.5742
-0.545144
29.9222
-0.579006
30.2754
-0.61312
30.6338
-0.647468
30.9975
-0.682028
31.3664
-0.716778
31.7408
-0.751698
32.1205
-0.786766
32.5056
-0.821959
32.8962
-0.857256
33.2923
-0.892635
33.6938
-0.928072
34.1009
-0.963546
34.5135
-0.999033
34.9316
-1.03451
35.3552
-1.06996
35.7848
-1.10534
36.2187
-1.14068
36.662
-1.17581
37.0991
-1.21117
37.5781
-1.24524
-1.28274
37.9516
31.6015
1.27743
-32.4967
30.699
1.22225
29.7914
1.1672
28.8811
1.11244
27.972
1.05819
27.0698
1.00473
26.1828
0.952375
25.3219
0.90155
24.5001
0.852697
23.7318
0.806264
23.0306
0.762633
22.4074
0.722061
21.8691
0.684638
21.418
0.65028
21.0522
0.618751
20.7661
0.589716
20.5525
0.562783
20.4028
0.537551
20.3087
0.513639
20.2623
0.490701
20.2565
0.468438
20.2852
0.446597
20.3431
0.424965
20.4258
0.403368
20.5297
0.381664
20.6517
0.359737
20.7894
0.337494
20.9408
0.31486
21.104
0.291775
21.2778
0.268191
21.461
0.244072
21.6527
0.219388
21.8521
0.194118
22.0586
0.168246
22.2716
0.141759
22.4907
0.114653
22.7156
0.0869228
22.946
0.0585686
23.1817
0.0295929
23.4225
0
23.6682
-0.0302032
23.9188
-0.0610081
24.1741
-0.0924049
24.4342
-0.124382
24.6989
-0.156927
24.9682
-0.190025
25.2421
-0.223663
25.5207
-0.257823
25.8039
-0.292489
26.0918
-0.327644
26.3843
-0.36327
26.6816
-0.399346
26.9836
-0.435855
27.2903
-0.472774
27.6019
-0.510085
27.9183
-0.547765
28.2396
-0.585792
28.5659
-0.624145
28.8971
-0.662801
29.2334
-0.701737
29.5746
-0.740929
29.921
-0.780354
30.2725
-0.819987
30.6292
-0.859805
30.991
-0.899782
31.3581
-0.939895
31.7304
-0.980117
32.108
-1.02042
32.4909
-1.06079
32.879
-1.10119
33.2725
-1.1416
33.6714
-1.18199
34.0755
-1.22234
34.4853
-1.2626
34.8993
-1.30281
35.3222
-1.34277
35.7394
-1.38299
36.1961
-1.42175
-1.46434
36.5537
29.9611
1.40625
-30.8224
29.0943
1.345
28.2252
1.28402
27.3569
1.22351
26.4945
1.16377
25.6449
1.10515
24.8176
1.04807
24.024
0.993008
23.2768
0.940441
22.5887
0.89081
21.9704
0.844435
21.4294
0.801472
20.9692
0.761892
20.5891
0.7255
20.2853
0.69197
20.0517
0.660905
19.8808
0.631874
19.7651
0.60446
19.6969
0.578274
19.6696
0.552973
19.6772
0.528262
19.7145
0.503892
19.777
0.479654
19.8612
0.455378
19.964
0.430923
20.0827
0.406177
20.2154
0.381046
20.3603
0.355457
20.5159
0.329351
20.6811
0.302679
20.855
0.275405
21.0366
0.2475
21.2254
0.218942
21.4207
0.189716
21.6222
0.159811
21.8295
0.129221
22.0423
0.0979434
22.2602
0.065978
22.4833
0.0333282
22.7111
0
22.9438
-0.033999
23.1811
-0.068659
23.423
-0.103969
23.6694
-0.139915
23.9204
-0.176484
24.1758
-0.213659
24.4357
-0.251425
24.7
-0.289764
24.9689
-0.328656
25.2423
-0.368082
25.5202
-0.408023
25.8026
-0.448456
26.0897
-0.48936
26.3813
-0.530713
26.6777
-0.572491
26.9787
-0.614671
27.2844
-0.657228
27.5949
-0.700139
27.9103
-0.743377
28.2304
-0.786918
28.5554
-0.830734
28.8854
-0.874801
29.2203
-0.919091
29.5601
-0.963577
29.905
-1.00823
30.2549
-1.05303
30.6098
-1.09794
30.9698
-1.14293
31.335
-1.18799
31.7052
-1.23307
32.0805
-1.27815
32.461
-1.3232
32.8465
-1.3682
33.2374
-1.4131
33.6325
-1.45793
34.036
-1.50247
34.4342
-1.54729
34.8698
-1.5905
-1.63787
35.2121
28.3976
1.52355
-29.2246
27.5675
1.45674
26.7382
1.39039
25.9138
1.32477
25.1006
1.26025
24.3066
1.19726
23.5418
1.1363
22.8175
1.07788
22.1453
1.02248
21.5356
0.970472
20.9959
0.922086
20.5306
0.877349
20.1403
0.836112
19.8224
0.798078
19.572
0.762851
19.3828
0.729989
19.2477
0.699045
19.1599
0.669594
19.1129
0.641255
19.101
0.613692
19.1191
0.586618
19.1628
0.559794
19.2285
0.533019
19.3131
0.506127
19.414
0.478983
19.5291
0.451476
19.6566
0.423518
19.7951
0.395035
19.9434
0.365969
20.1003
0.336274
20.2651
0.305914
20.4372
0.27486
20.6159
0.243092
20.8007
0.210594
20.9913
0.177356
21.1874
0.143374
21.3887
0.108644
21.5949
0.0731685
21.806
0.0369517
22.0217
0
22.242
-0.0376775
22.4668
-0.0760697
22.696
-0.115164
22.9295
-0.154946
23.1675
-0.1954
23.4098
-0.236509
23.6564
-0.278255
23.9073
-0.320617
24.1626
-0.363576
24.4222
-0.40711
24.6862
-0.451197
24.9547
-0.495813
25.2276
-0.540935
25.5049
-0.586539
25.7868
-0.632598
26.0732
-0.679088
26.3642
-0.725981
26.6597
-0.77325
26.9599
-0.820869
27.2648
-0.868809
27.5744
-0.917042
27.8888
-0.965539
28.2079
-1.01427
28.5318
-1.06321
28.8605
-1.11232
29.1941
-1.16158
29.5325
-1.21095
29.8758
-1.2604
30.224
-1.30991
30.5771
-1.35944
30.9351
-1.40897
31.2981
-1.45845
31.6659
-1.50786
32.039
-1.55715
32.416
-1.60636
32.801
-1.65525
33.1812
-1.70441
33.5966
-1.75185
-1.80374
33.9243
26.9098
1.63001
-27.7018
26.1175
1.55821
25.3297
1.4871
24.5516
1.41706
23.7903
1.34853
23.0546
1.28201
22.3544
1.21804
21.7003
1.15714
21.1019
1.09972
20.567
1.04608
20.1004
0.996297
19.7035
0.95028
19.3749
0.907768
19.1109
0.868382
18.9059
0.831678
18.7539
0.797189
18.6485
0.764464
18.5837
0.733085
18.5539
0.702683
18.5543
0.672935
18.5805
0.643569
18.6289
0.614354
18.6965
0.5851
18.7806
0.55565
18.8792
0.525873
18.9904
0.495663
19.1127
0.464934
19.2449
0.433615
19.3859
0.401652
19.5349
0.368998
19.6911
0.335619
19.8541
0.301487
20.0232
0.266584
20.1981
0.230893
20.3784
0.194407
20.5639
0.157121
20.7543
0.119034
20.9495
0.0801468
21.1492
0.0404664
21.3535
0
21.5621
-0.0412422
21.775
-0.0832481
21.9922
-0.126003
22.2137
-0.169493
22.4393
-0.213699
22.6691
-0.258602
22.9032
-0.304184
23.1414
-0.350423
23.3838
-0.397296
23.6305
-0.44478
23.8814
-0.492852
24.1365
-0.541487
24.396
-0.590657
24.6598
-0.640338
24.9279
-0.690501
25.2004
-0.741118
25.4774
-0.792161
25.7588
-0.843601
26.0447
-0.895408
26.3351
-0.947552
26.63
-1
26.9295
-1.05273
27.2336
-1.10569
27.5424
-1.15887
27.8557
-1.21223
28.1738
-1.26574
28.4965
-1.31936
28.8239
-1.37306
29.156
-1.4268
29.4929
-1.48056
29.8344
-1.5343
30.1808
-1.58799
30.5318
-1.64159
30.8878
-1.69505
31.2476
-1.74841
31.615
-1.80142
31.978
-1.8547
32.3742
-1.90614
-1.96228
32.6881
25.4965
1.72638
-26.2524
24.7436
1.65018
23.9995
1.57501
23.2702
1.5013
22.5634
1.42958
21.888
1.3604
21.2535
1.29429
20.6689
1.23172
20.1417
1.17303
19.6769
1.11836
19.2767
1.06767
18.9406
1.02075
18.6658
0.977237
18.4479
0.936704
18.2813
0.898674
18.1604
0.862676
18.0795
0.828263
18.0335
0.795035
18.0175
0.762638
18.0275
0.730767
18.0599
0.699165
18.1116
0.667615
18.1801
0.635936
18.2631
0.603979
18.3589
0.571621
18.466
0.538761
18.5831
0.505316
18.7091
0.47122
18.8431
0.436419
18.9845
0.400869
19.1326
0.364538
19.2869
0.327399
19.4469
0.289434
19.6124
0.25063
19.7829
0.210978
19.9584
0.170475
20.1386
0.129121
20.3233
0.086919
20.5123
0.0438757
20.7057
0
20.9033
-0.0446968
21.1051
-0.0902016
21.311
-0.136499
21.5209
-0.183571
21.7349
-0.2314
21.953
-0.279966
22.1751
-0.329247
22.4013
-0.379219
22.6316
-0.429861
22.8659
-0.481146
23.1044
-0.533049
23.347
-0.585542
23.5937
-0.638599
23.8446
-0.692191
24.0998
-0.746287
24.3592
-0.800859
24.6228
-0.855876
24.8908
-0.911307
25.163
-0.967119
25.4397
-1.02328
25.7207
-1.07976
26.0061
-1.13652
26.296
-1.19353
26.5903
-1.25075
26.8891
-1.30816
27.1923
-1.36571
27.5001
-1.42338
27.8124
-1.48111
28.1293
-1.53889
28.4506
-1.59667
28.7765
-1.65442
29.107
-1.7121
29.442
-1.76967
29.7818
-1.82709
30.1252
-1.88438
30.4759
-1.94129
30.8226
-1.99848
31.2005
-2.05371
-2.11387
31.501
24.1572
1.81346
-24.8756
23.4456
1.73353
22.7474
1.65503
22.0692
1.57848
21.419
1.50442
20.8052
1.43343
20.2362
1.366
19.719
1.3025
19.2587
1.24314
18.8582
1.18793
18.5176
1.1367
18.2349
1.08914
18.0064
1.04482
17.8276
1.00327
17.6932
0.964016
17.5981
0.926584
17.5374
0.890548
17.5066
0.855526
17.5017
0.821186
17.5192
0.787242
17.5562
0.753452
17.61
0.719613
17.6785
0.685557
17.7599
0.651143
17.8527
0.616254
17.9555
0.580795
18.0674
0.544689
18.1874
0.507871
18.3147
0.470291
18.4488
0.431907
18.5891
0.392689
18.7351
0.352612
18.8866
0.311659
19.0431
0.269817
19.2045
0.22708
19.3705
0.183446
19.541
0.138915
19.7158
0.0934911
19.8948
0.0471829
20.0779
0
20.2651
-0.0480451
20.4563
-0.0969379
20.6514
-0.146661
20.8505
-0.197198
21.0536
-0.248526
21.2605
-0.300626
21.4714
-0.353473
21.6862
-0.407045
21.9049
-0.461315
22.1276
-0.516256
22.3543
-0.571842
22.585
-0.628044
22.8197
-0.684832
23.0584
-0.742176
23.3012
-0.800044
23.5481
-0.858406
23.7991
-0.917228
24.0543
-0.976477
24.3137
-1.03612
24.5772
-1.09612
24.845
-1.15645
25.1171
-1.21706
25.3934
-1.27793
25.674
-1.33901
25.9589
-1.40028
26.2482
-1.46169
26.5417
-1.5232
26.8397
-1.58478
27.142
-1.64639
27.4486
-1.70799
27.7596
-1.76955
28.075
-1.83102
28.3947
-1.89237
28.7191
-1.95354
29.0469
-2.01456
29.3817
-2.07517
29.7128
-2.13605
30.0732
-2.19488
-2.25881
30.3611
22.8915
1.8921
-23.5706
22.2233
1.80919
21.5733
1.72817
20.9482
1.64961
20.3558
1.57407
19.8037
1.50208
19.2984
1.43405
18.8451
1.37023
18.4468
1.31068
18.1043
1.25529
17.8162
1.20378
17.5796
1.15575
17.3907
1.11074
17.2449
1.06826
17.1373
1.02784
17.0636
0.98902
17.0194
0.951402
17.0009
0.914627
17.0048
0.878383
17.028
0.842404
17.0682
0.806468
17.1232
0.770383
17.1911
0.733994
17.2705
0.697168
17.36
0.659796
17.4586
0.621789
17.5653
0.583073
17.6795
0.543589
17.8003
0.503288
17.9274
0.462132
18.0603
0.420091
18.1985
0.377144
18.3418
0.333274
18.4899
0.28847
18.6425
0.242728
18.7996
0.196045
18.9609
0.148423
19.1264
0.0998692
19.2959
0.050391
19.4693
0
19.6467
-0.0512901
19.8279
-0.103464
20.0129
-0.156503
20.2018
-0.210387
20.3944
-0.265097
20.5909
-0.320607
20.7911
-0.376895
20.9951
-0.433934
21.2029
-0.491699
21.4146
-0.550159
21.6301
-0.609287
21.8495
-0.669052
22.0727
-0.729422
22.2999
-0.790367
22.531
-0.851853
22.7661
-0.913847
23.0051
-0.976313
23.2482
-1.03922
23.4953
-1.10253
23.7464
-1.1662
24.0017
-1.2302
24.261
-1.2945
24.5244
-1.35905
24.792
-1.42381
25.0638
-1.48875
25.3397
-1.55383
25.6197
-1.61901
25.904
-1.68425
26.1924
-1.74951
26.4851
-1.81474
26.7819
-1.87991
27.083
-1.94498
27.3882
-2.00992
27.6978
-2.07465
28.0108
-2.13921
28.3304
-2.20333
28.6466
-2.2677
28.9906
-2.32994
-2.39743
29.2664
21.6992
1.96327
-22.3372
21.0766
1.87816
20.4765
1.79545
19.9059
1.71571
19.3716
1.6395
18.8797
1.56723
18.4353
1.49922
18.0414
1.43556
17.6993
1.37619
17.4082
1.32086
17.1658
1.26922
16.969
1.22082
16.8135
1.17518
16.6953
1.1318
16.6101
1.09024
16.5539
1.05006
16.5231
1.01089
16.5144
0.97239
16.5251
0.934272
16.5527
0.896294
16.5951
0.858247
16.6504
0.819955
16.7173
0.781274
16.7943
0.742079
16.8804
0.702271
16.9747
0.661764
17.0765
0.62049
17.1849
0.578394
17.2996
0.535429
17.42
0.491561
17.5458
0.446762
17.6766
0.401011
17.8122
0.354295
17.9523
0.306603
18.0967
0.257932
18.2453
0.208281
18.398
0.157655
18.5546
0.106059
18.7151
0.053503
18.8794
0
19.0475
-0.0544354
19.2193
-0.109786
19.3947
-0.166033
19.5739
-0.223155
19.7567
-0.28113
19.9432
-0.339934
20.1333
-0.39954
20.3271
-0.459923
20.5246
-0.521052
20.7258
-0.582899
20.9308
-0.645433
21.1394
-0.708623
21.3519
-0.772435
21.5681
-0.836837
21.7881
-0.901793
22.0119
-0.967268
22.2396
-1.03323
22.4712
-1.09963
22.7066
-1.16644
22.946
-1.23363
23.1893
-1.30115
23.4365
-1.36896
23.6878
-1.43702
23.943
-1.5053
24.2022
-1.57374
24.4654
-1.64232
24.7326
-1.71099
25.0039
-1.77971
25.2791
-1.84844
25.5585
-1.91713
25.8418
-1.98574
26.1292
-2.05423
26.4206
-2.12256
26.7162
-2.19067
27.0151
-2.25859
27.3203
-2.32603
27.6223
-2.39371
27.9505
-2.45918
-2.53003
28.2147
20.5801
2.02795
-21.1751
20.0048
1.94147
19.4561
1.8579
18.9402
1.7778
18.463
1.70162
18.029
1.62969
17.6414
1.56217
17.3017
1.49902
17.0097
1.44005
16.7636
1.38494
16.5607
1.33325
16.3975
1.28452
16.2702
1.23826
16.175
1.194
16.1082
1.15131
16.0663
1.10978
16.0464
1.06907
16.0456
1.02886
16.0616
0.988894
16.0923
0.948944
16.136
0.908819
16.1911
0.868356
16.2565
0.827422
16.3309
0.785901
16.4136
0.7437
16.5036
0.700742
16.6004
0.656961
16.7034
0.612305
16.8122
0.566734
16.9262
0.520213
17.0453
0.472718
17.1691
0.42423
17.2973
0.374736
17.4298
0.324229
17.5665
0.272705
17.7071
0.220166
17.8516
0.166617
17.9999
0.112065
18.1519
0.0565217
18.3076
0
18.4669
-0.0574839
18.6297
-0.115912
18.7962
-0.175263
18.9661
-0.235516
19.1397
-0.296647
19.3167
-0.358629
19.4973
-0.421437
19.6815
-0.485042
19.8692
-0.549413
20.0605
-0.614521
20.2554
-0.680332
20.4539
-0.746814
20.6561
-0.813932
20.8619
-0.881652
21.0714
-0.949937
21.2846
-1.01875
21.5015
-1.08805
21.7221
-1.15781
21.9465
-1.22798
22.1747
-1.29852
22.4066
-1.3694
22.6424
-1.44057
22.882
-1.51198
23.1255
-1.58361
23.3727
-1.6554
23.6239
-1.72732
23.8789
-1.79932
24.1378
-1.87135
24.4005
-1.94337
24.6672
-2.01535
24.9377
-2.08723
25.2121
-2.15897
25.4903
-2.23053
25.7726
-2.30184
26.0581
-2.37293
26.3495
-2.44352
26.6381
-2.51434
26.9512
-2.58288
-2.65688
27.2044
19.5339
2.08721
-20.0841
19.007
2.00017
18.51
1.91654
18.0482
1.83678
17.6258
1.76125
17.2461
1.69013
16.9107
1.62344
16.6196
1.56103
16.3716
1.50259
16.1645
1.44775
15.9953
1.39603
15.8605
1.34697
15.7568
1.30008
15.6807
1.25493
15.6291
1.2111
15.5989
1.16822
15.5876
1.12598
15.593
1.08408
15.613
1.04228
15.6458
1.00038
15.6901
0.958211
15.7446
0.915612
15.8082
0.872461
15.8799
0.828656
15.959
0.784107
16.0449
0.738743
16.137
0.692505
16.2347
0.645344
16.3377
0.597221
16.4457
0.548106
16.5584
0.497977
16.6755
0.446816
16.7968
0.394612
16.9222
0.341361
17.0515
0.287059
17.1846
0.231709
17.3214
0.175318
17.4618
0.117894
17.6058
0.0594501
17.7533
-1.20427e-07
17.9043
-0.0604386
18.0587
-0.121847
18.2166
-0.184202
18.3779
-0.247483
18.5426
-0.311663
18.7108
-0.376715
18.8823
-0.442612
19.0574
-0.509323
19.2358
-0.576819
19.4177
-0.645065
19.6031
-0.71403
19.792
-0.783677
19.9845
-0.853972
20.1804
-0.924879
20.3799
-0.996358
20.583
-1.06837
20.7896
-1.14088
20.9999
-1.21385
21.2138
-1.28723
21.4313
-1.36099
21.6525
-1.43507
21.8774
-1.50945
22.106
-1.58407
22.3382
-1.65889
22.5742
-1.73388
22.8138
-1.80897
23.0572
-1.88414
23.3043
-1.95933
23.5552
-2.03449
23.8098
-2.10959
24.0681
-2.18458
24.3301
-2.2594
24.5958
-2.33402
24.8654
-2.40837
25.138
-2.48249
25.4164
-2.55606
25.6921
-2.62984
25.991
-2.70129
-2.77826
26.2337
18.5594
2.1421
-19.0637
18.0815
2.05529
17.6356
1.9723
17.2259
1.89348
16.8553
1.81906
16.5256
1.74909
16.237
1.68345
15.9889
1.62189
15.7793
1.56403
15.6056
1.50945
15.4649
1.45768
15.3541
1.40825
15.27
1.36071
15.2097
1.31464
15.1704
1.26966
15.1497
1.22543
15.1454
1.18165
15.1555
1.13807
15.1784
1.09446
15.2126
1.05064
15.257
1.00645
15.3104
0.961745
15.372
0.916416
15.4409
0.870365
15.5165
0.823511
15.5983
0.775789
15.6857
0.727142
15.7784
0.677527
15.876
0.626908
15.9782
0.575257
16.0848
0.522554
16.1956
0.468784
16.3103
0.413938
16.4289
0.358012
16.5513
0.301004
16.6772
0.242919
16.8067
0.183765
16.9397
0.123551
17.0761
0.0622907
17.2159
0
17.3591
-0.063303
17.5055
-0.127597
17.6553
-0.192861
17.8084
-0.259069
17.9648
-0.326196
18.1246
-0.394212
18.2876
-0.46309
18.4539
-0.532798
18.6236
-0.603303
18.7967
-0.674573
18.9731
-0.746571
19.1529
-0.819263
19.336
-0.892612
19.5226
-0.966578
19.7127
-1.04112
19.9061
-1.11621
20.1031
-1.19179
20.3035
-1.26784
20.5074
-1.34429
20.7148
-1.42112
20.9258
-1.49828
21.1403
-1.57572
21.3584
-1.6534
21.58
-1.73128
21.8052
-1.8093
22.0339
-1.88743
22.2663
-1.96561
22.5022
-2.04381
22.7417
-2.12196
22.9848
-2.20003
23.2315
-2.27797
23.4817
-2.35572
23.7355
-2.43325
23.993
-2.51049
24.2535
-2.58746
24.5194
-2.66387
24.7829
-2.74046
25.0682
-2.81466
-2.89443
25.3008
17.655
2.19365
-18.113
17.2255
2.10777
16.8292
2.026
16.4687
1.94859
16.146
1.87561
15.8615
1.80699
15.6146
1.7425
15.4039
1.68182
15.2273
1.62452
15.082
1.57017
14.9654
1.51829
14.8746
1.46845
14.8067
1.42021
14.7594
1.37318
14.7302
1.32702
14.7171
1.28142
14.7183
1.23611
14.732
1.19086
14.757
1.14546
14.792
1.09974
14.836
1.05355
14.888
1.00678
14.9474
0.959306
15.0134
0.91105
15.0856
0.861934
15.1633
0.811898
15.2463
0.760892
15.3341
0.708875
15.4266
0.655814
15.5233
0.601684
15.6241
0.546468
15.7289
0.490151
15.8375
0.432728
15.9497
0.374194
16.0654
0.314552
16.1847
0.253806
16.3073
0.191965
16.4332
0.12904
16.5625
0.0650463
16.695
0
16.8307
-0.0660792
16.9697
-0.13317
17.1118
-0.201248
17.2572
-0.270288
17.4057
-0.340262
17.5574
-0.411142
17.7124
-0.482897
17.8705
-0.555494
18.0319
-0.628901
18.1965
-0.703082
18.3644
-0.778001
18.5355
-0.853621
18.71
-0.929904
18.8877
-1.00681
19.0687
-1.0843
19.2531
-1.16233
19.4408
-1.24086
19.6319
-1.31985
19.8263
-1.39925
20.0241
-1.47902
20.2254
-1.55912
20.43
-1.63949
20.6381
-1.72009
20.8496
-1.80088
21.0646
-1.88181
21.2829
-1.96283
21.5048
-2.04389
21.73
-2.12494
21.9588
-2.20594
22.1909
-2.28684
22.4265
-2.36758
22.6656
-2.44812
22.908
-2.52842
23.154
-2.60839
23.4029
-2.68807
23.6569
-2.76716
23.9088
-2.84641
24.1811
-2.92322
-3.00562
24.4041
16.8184
2.24281
-17.2305
16.4358
2.15843
16.0864
2.07835
15.7716
2.00266
15.4923
1.93131
15.248
1.86413
15.0377
1.80081
14.8594
1.74097
14.7109
1.68416
14.5897
1.62996
14.4932
1.57791
14.419
1.52758
14.3646
1.47859
14.3279
1.43057
14.307
1.38322
14.2999
1.33624
14.3053
1.2894
14.3218
1.24248
14.3481
1.1953
14.3834
1.1477
14.4266
1.09955
14.4771
1.05073
14.5342
1.00115
14.5973
0.95073
14.666
0.899395
14.7399
0.847092
14.8185
0.793774
14.9017
0.739406
14.9892
0.683956
15.0807
0.627404
15.1761
0.569732
15.2752
0.510931
15.3779
0.450995
15.4841
0.389921
15.5936
0.327714
15.7065
0.264379
15.8226
0.199926
15.9419
0.134367
16.0644
0.0677194
16.19
0
16.3187
-0.0687704
16.4505
-0.138569
16.5854
-0.209372
16.7235
-0.281151
16.8645
-0.353878
17.0087
-0.427524
17.156
-0.502055
17.3064
-0.57744
17.4599
-0.653643
17.6166
-0.730629
17.7763
-0.80836
17.9393
-0.886797
18.1054
-0.965901
18.2747
-1.04563
18.4472
-1.12595
18.6229
-1.20681
18.8019
-1.28816
18.984
-1.36997
19.1695
-1.4522
19.3582
-1.53478
19.5502
-1.61768
19.7455
-1.70086
19.9441
-1.78426
20.146
-1.86783
20.3512
-1.95152
20.5597
-2.0353
20.7715
-2.1191
20.9867
-2.20288
21.2051
-2.28659
21.4269
-2.37018
21.6519
-2.45359
21.8803
-2.53677
22.1119
-2.61969
22.347
-2.70226
22.5848
-2.78451
22.8275
-2.86615
23.0683
-2.94791
23.3284
-3.0272
-3.11207
23.5422
16.0461
2.29041
-16.4138
15.7082
2.20798
15.4023
2.12988
15.1292
2.05609
14.8886
1.98647
14.6798
1.92072
14.501
1.85851
14.3505
1.79942
14.2258
1.74302
14.1249
1.68887
14.0452
1.63656
13.9848
1.58568
13.9415
1.53589
13.9135
1.48684
13.8991
1.43827
13.8969
1.3899
13.9056
1.34153
13.924
1.29295
13.9511
1.24401
13.9862
1.19455
14.0284
1.14446
14.0771
1.09363
14.1318
1.04198
14.1921
0.989427
14.2574
0.935914
14.3275
0.881388
14.4021
0.825807
14.4809
0.769137
14.5636
0.711352
14.6502
0.652433
14.7404
0.592365
14.8341
0.531139
14.9312
0.468752
15.0317
0.405204
15.1354
0.340499
15.2422
0.274646
15.3522
0.207653
15.4652
0.139537
15.5813
0.0703125
15.7004
0
15.8225
-0.0713793
15.9476
-0.143802
16.0757
-0.217241
16.2067
-0.29167
16.3408
-0.367059
16.4778
-0.443376
16.6178
-0.520588
16.7609
-0.598662
16.9069
-0.677562
17.056
-0.75725
17.2081
-0.837687
17.3633
-0.918835
17.5215
-1.00065
17.6828
-1.0831
17.8472
-1.16613
18.0147
-1.2497
18.1854
-1.33377
18.3591
-1.41828
18.536
-1.50321
18.7161
-1.58849
18.8993
-1.67408
19.0857
-1.75993
19.2752
-1.846
19.468
-1.93223
19.6639
-2.01857
19.863
-2.10497
20.0653
-2.19139
20.2708
-2.27777
20.4795
-2.36405
20.6914
-2.4502
20.9064
-2.53615
21.1247
-2.62185
21.346
-2.70725
21.5706
-2.79229
21.7979
-2.87698
22.0298
-2.96102
22.26
-3.04517
22.5084
-3.1268
-3.21401
22.7134
15.3344
2.33715
-15.6597
15.038
2.25696
14.7719
2.18101
14.536
2.1092
14.3297
2.04126
14.1516
1.97689
14
1.91568
13.873
1.85723
13.7685
1.80112
13.6844
1.74692
13.6188
1.69426
13.5698
1.64277
13.5356
1.59212
13.5146
1.54201
13.5055
1.49219
13.5071
1.44242
13.5182
1.39252
13.5379
1.34229
13.5654
1.29159
13.5999
1.2403
13.6409
1.1883
13.6878
1.13549
13.7402
1.0818
13.7975
1.02716
13.8596
0.97151
13.9261
0.914806
13.9967
0.857008
14.0712
0.798087
14.1495
0.738019
14.2314
0.676787
14.3167
0.61438
14.4053
0.550789
14.4972
0.486014
14.5922
0.420056
14.6903
0.35292
14.7915
0.284615
14.8956
0.215155
15.0027
0.144553
15.1128
0.0728281
15.2257
-1.20328e-07
15.3416
-0.0739084
15.4603
-0.148872
15.5819
-0.224865
15.7064
-0.301857
15.8338
-0.379819
15.9641
-0.458717
16.0972
-0.538518
16.2333
-0.619187
16.3723
-0.700686
16.5142
-0.782977
16.659
-0.866022
16.8068
-0.949778
16.9576
-1.0342
17.1113
-1.11926
17.268
-1.2049
17.4277
-1.29107
17.5904
-1.37774
17.7562
-1.46485
17.925
-1.55237
18.0968
-1.64023
18.2716
-1.72839
18.4496
-1.81681
18.6306
-1.90542
18.8146
-1.99419
19.0017
-2.08305
19.1919
-2.17197
19.3852
-2.26087
19.5815
-2.34973
19.7809
-2.43847
19.9833
-2.52705
20.1888
-2.61541
20.3974
-2.7035
20.6089
-2.79127
20.8236
-2.87865
21.0409
-2.96565
21.2625
-3.05198
21.4827
-3.13837
21.7199
-3.22224
-3.31164
21.9165
14.6786
2.38357
-14.9644
14.4202
2.30577
14.1898
2.23203
13.9869
2.16215
13.8103
2.09582
13.6587
2.03269
13.5303
1.97235
13.4232
1.91441
13.3357
1.85846
13.2657
1.80412
13.2118
1.75102
13.1721
1.69885
13.1453
1.64729
13.13
1.59608
13.1251
1.545
13.1296
1.49382
13.1425
1.44238
13.163
1.39051
13.1905
1.33808
13.2243
1.28497
13.2639
1.23109
13.3089
1.17633
13.3588
1.12064
13.4134
1.06395
13.4722
1.0062
13.5352
0.947364
13.602
0.887396
13.6725
0.826273
13.7466
0.763974
13.824
0.700484
13.9046
0.635792
13.9884
0.569896
14.0753
0.502792
14.1653
0.434486
14.2581
0.364984
14.3539
0.294296
14.4526
0.222437
14.5541
0.149421
14.6584
0.0752683
14.7656
0
14.8755
-0.0763602
14.9882
-0.153786
15.1037
-0.23225
15.222
-0.311723
15.343
-0.392172
15.4669
-0.473564
15.5935
-0.555865
15.723