/*--------------------------------*- C++ -*----------------------------------*\
| =========                 |                                                 |
| \\      /  F ield         | OpenFOAM: The Open Source CFD Toolbox           |
|  \\    /   O peration     | Version:  2206                                  |
|   \\  /    A nd           | Website:  www.openfoam.com                      |
|    \\/     M anipulation  |                                                 |
\*---------------------------------------------------------------------------*/
FoamFile
{
    version     2.0;
    format      ascii;
    arch        "LSB;label=32;scalar=64";
    class       volScalarField;
    location    "0.05";
    object      wave;
}
// * * * * * * * * * * * * * * * * * * * * * * * * * * * * * * * * * * * * * //

dimensions      [0 0 0 0 0 0 0];

internalField   nonuniform List<scalar> 
100
(
0.128973
0.284035
0.431961
0.569035
0.691814
0.797213
0.882584
0.945783
0.985222
0.999909
0.989477
0.954187
0.894925
0.813181
0.711009
0.590974
0.456092
0.309752
0.155631
-0.00240006
-0.160371
-0.314313
-0.460358
-0.594839
-0.714376
-0.815966
-0.897057
-0.955612
-0.99016
-0.999833
-0.984388
-0.944213
-0.880317
-0.794306
-0.68834
-0.565081
-0.427627
-0.279429
-0.124211
0.0341266
0.191607
0.344274
0.488293
0.620044
0.736218
0.833897
0.910626
0.964479
0.994102
0.99875
0.978308
0.933289
0.864823
0.774631
0.664978
0.53862
0.398731
0.248824
0.0926667
-0.0658189
-0.222651
-0.373889
-0.515735
-0.644624
-0.757319
-0.850988
-0.923279
-0.972375
-0.997042
-0.996662
-0.971243
-0.921424
-0.848458
-0.754176
-0.640947
-0.511617
-0.369433
-0.217969
-0.0610287
0.0974448
0.25347
0.403128
0.542658
0.668556
0.777657
0.867223
0.935002
0.979291
0.998979
0.99357
0.9632
0.908632
0.831238
0.732961
0.616271
0.484098
0.339764
0.186894
0.0293292
-0.128973
)
;

boundaryField
{
    movingWall
    {
        type            calculated;
        value           uniform 0;
    }
    fixedWalls
    {
        type            calculated;
        value           uniform 0;
    }
    frontAndBack
    {
        type            empty;
    }
}


// ************************************************************************* //
