/*--------------------------------*- C++ -*----------------------------------*\
| =========                 |                                                 |
| \\      /  F ield         | OpenFOAM: The Open Source CFD Toolbox           |
|  \\    /   O peration     | Version:  2206                                  |
|   \\  /    A nd           | Website:  www.openfoam.com                      |
|    \\/     M anipulation  |                                                 |
\*---------------------------------------------------------------------------*/
FoamFile
{
    version     2.0;
    format      ascii;
    arch        "LSB;label=32;scalar=64";
    class       volScalarField;
    location    "0.25";
    object      wave;
}
// * * * * * * * * * * * * * * * * * * * * * * * * * * * * * * * * * * * * * //

dimensions      [0 0 0 0 0 0 0];

internalField   nonuniform List<scalar> 
100
(
0.323412
0.46886
0.602529
0.721061
0.821478
0.901258
0.958397
0.991458
0.999612
0.982653
0.941008
0.875723
0.788437
0.681344
0.557135
0.418929
0.270198
0.11468
-0.0437198
-0.201021
-0.353272
-0.496648
-0.627547
-0.742681
-0.839157
-0.914552
-0.96697
-0.995097
-0.998224
-0.976274
-0.929798
-0.859963
-0.768524
-0.657778
-0.530507
-0.389908
-0.239514
-0.0831034
0.0753954
0.232
0.382776
0.523936
0.651934
0.763554
0.855991
0.926924
0.974571
0.997734
0.995832
0.968912
0.917652
0.843337
0.747837
0.633549
0.503344
0.360495
0.208589
0.0514434
-0.106995
-0.262745
-0.411895
-0.550697
-0.675664
-0.783657
-0.871963
-0.938363
-0.98119
-0.999366
-0.992437
-0.960575
-0.904581
-0.825863
-0.726397
-0.608682
-0.475675
-0.330719
-0.177454
-0.0197316
0.138487
0.293226
0.440599
0.576903
0.698714
0.802972
0.887057
0.948858
0.986821
0.999993
0.988042
0.95127
0.8906
0.807557
0.704225
0.583202
0.447527
0.30061
0.146141
-0.012
-0.169839
-0.323412
)
;

boundaryField
{
    movingWall
    {
        type            calculated;
        value           uniform 0;
    }
    fixedWalls
    {
        type            calculated;
        value           uniform 0;
    }
    frontAndBack
    {
        type            empty;
    }
}


// ************************************************************************* //
