/*--------------------------------*- C++ -*----------------------------------*\
| =========                 |                                                 |
| \\      /  F ield         | OpenFOAM: The Open Source CFD Toolbox           |
|  \\    /   O peration     | Version:  2312                                  |
|   \\  /    A nd           | Website:  www.openfoam.com                      |
|    \\/     M anipulation  |                                                 |
\*---------------------------------------------------------------------------*/
FoamFile
{
    version     2.0;
    format      ascii;
    arch        "LSB;label=32;scalar=64";
    class       surfaceScalarField;
    location    "0.77";
    object      phi;
}
// * * * * * * * * * * * * * * * * * * * * * * * * * * * * * * * * * * * * * //

dimensions      [0 3 -1 0 0 0 0];

oriented        oriented;

internalField   nonuniform List<scalar> 
62015
(
28.4104
0.149321
-28.0058
28.8456
0.149228
29.3027
0.149076
29.7751
0.148821
30.2573
0.148431
30.7451
0.147877
31.2353
0.147139
31.7255
0.1462
32.2137
0.145049
32.6986
0.143676
33.1794
0.142075
33.6554
0.140241
34.1261
0.138171
34.5915
0.135864
35.0514
0.13332
35.5059
0.130538
35.9552
0.127521
36.3995
0.124268
36.8391
0.120782
37.2742
0.117066
37.7052
0.113123
38.1325
0.108955
38.5565
0.104565
38.9775
0.0999576
39.3959
0.0951362
39.8121
0.0901043
40.2265
0.0848659
40.6395
0.0794251
41.0515
0.0737865
41.4629
0.0679541
41.874
0.0619324
42.2852
0.0557257
42.6969
0.0493394
43.1094
0.0427774
43.5231
0.0360452
43.9382
0.0291471
44.3552
0.0220887
44.7743
0.0148744
45.1958
0.0075098
45.6201
0
46.0473
-0.00764996
46.4779
-0.015434
46.912
-0.023348
47.3499
-0.0313852
47.7919
-0.039541
48.2381
-0.0478093
48.6889
-0.0561849
49.1443
-0.0646615
49.6047
-0.0732344
50.0703
-0.0818968
50.5411
-0.0906433
51.0174
-0.0994681
51.4993
-0.108365
51.9871
-0.117329
52.4808
-0.126353
52.9806
-0.135432
53.4866
-0.14456
53.9989
-0.153729
54.5177
-0.162936
55.043
-0.172172
55.5749
-0.181433
56.1136
-0.190713
56.659
-0.200004
57.2112
-0.209301
57.7703
-0.218599
58.3364
-0.22789
58.9094
-0.237168
59.4894
-0.246429
60.0764
-0.255665
60.6704
-0.26487
61.2714
-0.274039
61.8794
-0.283164
62.4942
-0.292242
63.1165
-0.301263
63.744
-0.31023
64.3834
-0.319108
65.0143
-0.327986
65.6988
-0.336558
-0.345757
66.246
28.0625
0.299696
-27.6588
28.4882
0.299466
28.9286
0.299047
29.3788
0.298373
29.8347
0.297392
30.2934
0.296063
30.7524
0.294354
31.21
0.29224
31.6648
0.289704
32.116
0.286731
32.5629
0.283313
33.0051
0.279442
33.4424
0.275115
33.8746
0.27033
34.3019
0.265086
34.7244
0.259386
35.1422
0.253231
35.5555
0.246624
35.9647
0.23957
36.3701
0.232074
36.772
0.22414
37.1707
0.215775
37.5666
0.206984
37.96
0.197775
38.3514
0.188155
38.741
0.17813
39.1293
0.167709
39.5166
0.156899
39.9033
0.145708
40.2897
0.134145
40.6762
0.122218
41.0631
0.109936
41.4508
0.0973073
41.8396
0.084342
42.2297
0.0710487
42.6216
0.057437
43.0155
0.0435165
43.4116
0.0292967
43.8104
0.014788
44.212
0
44.6168
-0.0150571
45.0249
-0.0303728
45.4367
-0.045937
45.8523
-0.0617392
46.272
-0.077768
46.696
-0.0940137
47.1246
-0.110465
47.5578
-0.12711
47.996
-0.14394
48.4393
-0.160941
48.8878
-0.178104
49.3418
-0.195416
49.8013
-0.212867
50.2666
-0.230445
50.7377
-0.248138
51.2149
-0.265935
51.6981
-0.283824
52.1876
-0.301794
52.6834
-0.319833
53.1856
-0.337928
53.6943
-0.356069
54.2096
-0.374244
54.7315
-0.39244
55.2601
-0.410645
55.7955
-0.428849
56.3376
-0.447039
56.8865
-0.465203
57.4423
-0.48333
58.0049
-0.501407
58.5744
-0.519423
59.1507
-0.537366
59.7338
-0.555224
60.3237
-0.572987
60.9208
-0.590638
61.5231
-0.608183
62.1367
-0.625553
62.7429
-0.642918
63.3991
-0.6597
-0.677661
63.9289
27.7419
0.451409
-27.3465
28.1522
0.450899
28.5719
0.450028
28.9973
0.448721
29.4255
0.446919
29.8543
0.444575
30.2821
0.441654
30.7076
0.438128
31.1299
0.433976
31.5484
0.429183
31.9627
0.423739
32.3725
0.417638
32.7778
0.410875
33.1785
0.403449
33.5747
0.395361
33.9666
0.386613
34.3545
0.377209
34.7385
0.367155
35.1189
0.356456
35.496
0.345118
35.8702
0.333151
36.2417
0.320563
36.611
0.307362
36.9782
0.293558
37.3439
0.279161
37.7083
0.264182
38.0718
0.24863
38.4347
0.232519
38.7973
0.215859
39.16
0.198662
39.5231
0.180941
39.887
0.162707
40.2518
0.143975
40.618
0.124756
40.9857
0.105064
41.3554
0.0849139
41.7273
0.0643181
42.1017
0.0432907
42.4787
0.0218468
42.8588
0
43.2421
-0.0222346
43.6288
-0.0448419
44.0193
-0.067807
44.4137
-0.0911148
44.8121
-0.11475
45.215
-0.138696
45.6223
-0.162939
46.0344
-0.187461
46.4513
-0.212247
46.8733
-0.237281
47.3006
-0.262546
47.7332
-0.288026
48.1713
-0.313704
48.6151
-0.339564
49.0647
-0.365588
49.5202
-0.391762
49.9816
-0.418066
50.4492
-0.444484
50.923
-0.471
51.4031
-0.497595
51.8896
-0.524254
52.3825
-0.550958
52.8819
-0.577691
53.3878
-0.604435
53.9004
-0.631173
54.4196
-0.657888
54.9454
-0.684563
55.4779
-0.71118
56.0171
-0.737722
56.563
-0.764173
57.1156
-0.790514
57.6749
-0.816729
58.2407
-0.842802
58.8135
-0.86871
59.3916
-0.89446
59.9805
-0.919955
60.5627
-0.945435
61.1919
-0.970075
-0.996391
61.7035
27.4263
0.604365
-27.0449
27.8175
0.603376
28.2141
0.601833
28.6135
0.599661
29.0138
0.596801
29.4132
0.593207
29.8108
0.588842
30.2055
0.583679
30.5968
0.577698
30.9844
0.570883
31.3678
0.563226
31.7472
0.554719
32.1224
0.545361
32.4934
0.535149
32.8605
0.524088
33.2238
0.51218
33.5836
0.499432
33.94
0.485849
34.2934
0.471439
34.6441
0.456213
34.9923
0.44018
35.3383
0.423351
35.6825
0.405737
36.0252
0.38735
36.3668
0.368204
36.7074
0.348312
37.0476
0.327687
37.3874
0.306343
37.7274
0.284297
38.0678
0.261562
38.4088
0.238156
38.7508
0.214092
39.094
0.189389
39.4389
0.164063
39.7855
0.138131
40.1342
0.11161
40.4853
0.0845181
40.839
0.0568737
41.1955
0.0286948
41.5551
0
41.918
-0.0291917
42.2845
-0.058861
42.6547
-0.0889889
43.0289
-0.119555
43.4072
-0.15054
43.7898
-0.181924
44.177
-0.213686
44.5689
-0.245806
44.9657
-0.278263
45.3674
-0.311036
45.7744
-0.344105
46.1866
-0.377447
46.6043
-0.411041
47.0276
-0.444867
47.4566
-0.478902
47.8913
-0.513124
48.332
-0.547513
48.7787
-0.582044
49.2315
-0.616698
49.6904
-0.651451
50.1556
-0.686282
50.627
-0.721167
51.1049
-0.756086
51.5891
-0.791015
52.0798
-0.825933
52.577
-0.860816
53.0807
-0.895644
53.5908
-0.930393
54.1076
-0.96504
54.6308
-0.999566
55.1606
-1.03395
55.6969
-1.06816
56.2396
-1.10218
56.7892
-1.13599
57.3439
-1.16959
57.909
-1.20285
58.4681
-1.23609
59.0716
-1.26825
-1.30254
59.5647
27.1041
0.758305
-26.7405
27.4738
0.756607
27.8462
0.754159
28.2195
0.750888
28.5922
0.746741
28.9632
0.741672
29.3317
0.735649
29.6972
0.728645
30.0593
0.720641
30.4177
0.711624
30.7724
0.701585
31.1232
0.69052
31.4703
0.678427
31.8137
0.665306
32.1536
0.651162
32.4902
0.635999
32.8238
0.619825
33.1545
0.602649
33.4827
0.58448
33.8086
0.565328
34.1325
0.545208
34.4547
0.52413
34.7756
0.50211
35.0953
0.479161
35.4142
0.455299
35.7326
0.430541
36.0509
0.404902
36.3692
0.3784
36.6878
0.351053
37.0072
0.322878
37.3274
0.293895
37.6489
0.264124
37.9719
0.233583
38.2966
0.202292
38.6233
0.170274
38.9522
0.137547
39.2836
0.104135
39.6178
0.0700581
39.9549
0.0353389
40.2951
0
40.6388
-0.0359358
40.986
-0.0724457
41.3371
-0.109506
41.6921
-0.147092
42.0513
-0.185182
42.4148
-0.223749
42.7828
-0.26277
43.1555
-0.30222
43.533
-0.342074
43.9155
-0.382305
44.3032
-0.42289
44.696
-0.463802
45.0943
-0.505015
45.498
-0.546503
45.9073
-0.58824
46.3223
-0.630199
46.7431
-0.672354
47.1698
-0.714679
47.6025
-0.757146
48.0412
-0.799729
48.486
-0.842401
48.937
-0.885134
49.3942
-0.927903
49.8577
-0.970679
50.3274
-1.01344
50.8035
-1.05615
51.2859
-1.09878
51.7747
-1.14132
52.2699
-1.18373
52.7714
-1.22598
53.2793
-1.26806
53.7936
-1.30992
54.314
-1.35156
54.8412
-1.39292
55.3735
-1.43402
55.9157
-1.47472
56.4524
-1.51538
57.0314
-1.55473
-1.59662
57.5061
26.77
0.912911
-26.4265
27.117
0.910269
27.4649
0.906683
27.8123
0.902089
28.1582
0.896437
28.502
0.889687
28.843
0.881808
29.1809
0.872778
29.5155
0.862578
29.8467
0.851199
30.1743
0.838633
30.4986
0.824876
30.8194
0.809928
31.1371
0.793793
31.4517
0.776474
31.7635
0.757978
32.0727
0.738315
32.3795
0.717494
32.6842
0.695528
32.987
0.672428
33.2883
0.648209
33.5883
0.622886
33.8873
0.596474
34.1856
0.568992
34.4833
0.540455
34.781
0.510884
35.0787
0.480296
35.3768
0.448711
35.6755
0.416151
35.9751
0.382636
36.2759
0.348188
36.5781
0.312829
36.882
0.276582
37.1877
0.239469
37.4957
0.201516
37.8059
0.162746
38.1188
0.123184
38.4346
0.0828552
38.7533
0.0417851
39.0753
0
39.4008
-0.0424738
39.7298
-0.0856093
40.0627
-0.129379
40.3996
-0.173756
40.7406
-0.218712
41.086
-0.264219
41.4358
-0.310248
41.7903
-0.35677
42.1496
-0.403756
42.5138
-0.451176
42.883
-0.499002
43.2574
-0.547202
43.6371
-0.595747
44.0222
-0.644607
44.4128
-0.69375
44.809
-0.743147
45.2108
-0.792765
45.6185
-0.842575
46.032
-0.892544
46.4514
-0.942642
46.8767
-0.992838
47.3081
-1.0431
47.7455
-1.0934
48.1891
-1.1437
48.6388
-1.19397
49.0947
-1.24418
49.5568
-1.29429
50.025
-1.34429
50.4995
-1.39413
50.9802
-1.44378
51.4671
-1.49322
51.9602
-1.54241
52.4594
-1.59132
52.965
-1.63991
53.4757
-1.68819
53.9959
-1.73599
54.5112
-1.78374
55.0665
-1.82997
-1.87912
55.5234
26.422
1.06786
-26.0998
26.7459
1.06404
27.0694
1.05909
27.3917
1.05296
27.712
1.04561
28.0298
1.03699
28.3448
1.02708
28.6568
1.01585
28.9657
1.00331
29.2713
0.989427
29.5739
0.974205
29.8733
0.957642
30.1698
0.939739
30.4635
0.9205
30.7545
0.89993
31.0432
0.878039
31.3297
0.854836
31.6143
0.830333
31.8971
0.804544
32.1785
0.777483
32.4587
0.749165
32.738
0.719608
33.0166
0.688829
33.2948
0.656847
33.5729
0.623682
33.851
0.589355
34.1295
0.553887
34.4087
0.5173
34.6887
0.479618
34.9699
0.440863
35.2524
0.40106
35.5365
0.360235
35.8224
0.318412
36.1104
0.275618
36.4006
0.23188
36.6934
0.187225
36.9888
0.14168
37.2871
0.0952754
37.5886
0.0480391
37.8933
0
38.2015
-0.0488115
38.5134
-0.0983647
38.8291
-0.14863
39.1488
-0.199575
39.4726
-0.251168
39.8008
-0.303379
40.1334
-0.356173
40.4706
-0.409519
40.8125
-0.463383
41.1593
-0.517733
41.5111
-0.572535
41.8679
-0.627754
42.23
-0.683356
42.5973
-0.739308
42.9701
-0.795574
43.3483
-0.852119
43.7321
-0.90891
44.1216
-0.96591
44.5168
-1.02308
44.9177
-1.0804
45.3245
-1.13781
45.7371
-1.1953
46.1557
-1.25281
46.5802
-1.31032
47.0108
-1.36779
47.4473
-1.42519
47.8899
-1.48248
48.3385
-1.53961
48.7932
-1.59657
49.2539
-1.65331
49.7206
-1.70979
50.1934
-1.76599
50.6721
-1.82186
51.1572
-1.87736
51.647
-1.93251
52.1462
-1.9871
52.6408
-2.04162
53.1735
-2.09442
-2.1505
53.6131
26.0597
1.22282
-25.7592
26.3607
1.21761
26.6605
1.2111
26.9586
1.20324
27.2545
1.194
27.5478
1.18334
27.8384
1.17124
28.1261
1.15768
28.4109
1.14265
28.6928
1.12615
28.9718
1.10816
29.2482
1.0887
29.522
1.06775
29.7934
1.04534
30.0626
1.02145
30.3298
0.996117
30.5952
0.969337
30.859
0.941126
31.1215
0.9115
31.383
0.880474
31.6435
0.848065
31.9035
0.814293
32.1631
0.779177
32.4226
0.742737
32.6822
0.704996
32.9421
0.665975
33.2027
0.625699
33.4642
0.584192
33.7267
0.541479
33.9905
0.497586
34.2558
0.45254
34.5229
0.406369
34.792
0.3591
35.0632
0.310763
35.3369
0.261387
35.6131
0.211002
35.8921
0.159639
36.174
0.10733
36.4591
0.0541058
36.7476
0
37.0395
-0.0549548
37.3351
-0.110725
37.6346
-0.167276
37.938
-0.224575
38.2455
-0.282585
38.5574
-0.341271
38.8736
-0.400598
39.1944
-0.460529
39.5199
-0.521028
39.8501
-0.582057
40.1853
-0.64358
40.5255
-0.705558
40.8707
-0.767955
41.2212
-0.83073
41.577
-0.893847
41.9381
-0.957266
42.3047
-1.02095
42.6768
-1.08486
43.0545
-1.14895
43.4378
-1.21319
43.8268
-1.27753
44.2216
-1.34195
44.6221
-1.40638
45.0285
-1.47081
45.4407
-1.53519
45.8587
-1.59947
46.2826
-1.66362
46.7124
-1.7276
47.1481
-1.79137
47.5897
-1.85488
48.0371
-1.91811
48.4905
-1.98101
48.9495
-2.04354
49.4148
-2.10565
49.8847
-2.16736
50.3636
-2.22845
50.8383
-2.28943
51.3493
-2.34853
-2.4112
51.7722
25.6838
1.37751
-25.4048
25.9624
1.37071
26.2395
1.36244
26.5145
1.35268
26.7873
1.34139
27.0575
1.32854
27.3252
1.31411
27.5901
1.29809
27.8525
1.28046
28.1122
1.26123
28.3695
1.24038
28.6244
1.21793
28.8771
1.19388
29.1278
1.16822
29.3767
1.14098
29.6239
1.11216
29.8696
1.08178
30.1142
1.04984
30.3578
1.01638
30.6006
0.981391
30.8428
0.944907
31.0848
0.906946
31.3266
0.867528
31.5686
0.826677
31.811
0.784414
32.054
0.740766
32.2978
0.695757
32.5426
0.649414
32.7887
0.601764
33.0363
0.552835
33.2855
0.502657
33.5367
0.45126
33.7899
0.398673
34.0454
0.344929
34.3034
0.290059
34.564
0.234096
34.8275
0.177075
35.094
0.119028
35.3637
0.0599914
35.6367
0
35.9133
-0.0609101
36.1936
-0.122702
36.4776
-0.185339
36.7656
-0.248783
37.0578
-0.312997
37.3542
-0.37794
37.6549
-0.443575
37.9601
-0.509861
38.27
-0.576759
38.5845
-0.644228
38.9039
-0.712228
39.2282
-0.780717
39.5574
-0.849653
39.8918
-0.918996
40.2314
-0.988702
40.5763
-1.05873
40.9264
-1.12904
41.282
-1.19958
41.643
-1.27032
42.0095
-1.34121
42.3816
-1.4122
42.7593
-1.48326
43.1426
-1.55434
43.5316
-1.6254
43.9262
-1.69639
44.3266
-1.76727
44.7326
-1.838
45.1444
-1.90853
45.5619
-1.97882
45.9852
-2.04883
46.4141
-2.11851
46.8488
-2.18782
47.289
-2.25672
47.7353
-2.32515
48.1861
-2.39313
48.6456
-2.46043
49.1012
-2.5276
49.5912
-2.59271
-2.66167
49.9982
25.2952
1.53164
-25.0373
25.5524
1.52306
25.8077
1.51287
26.061
1.50105
26.312
1.48757
26.5605
1.47239
26.8067
1.45551
27.0505
1.43692
27.2919
1.41659
27.531
1.39454
27.768
1.37077
28.003
1.34526
28.2361
1.31804
28.4675
1.2891
28.6975
1.25846
28.9261
1.22614
29.1536
1.19213
29.3802
1.15647
29.6061
1.11916
29.8316
1.08023
30.0568
1.03969
30.2819
0.997575
30.5072
0.953897
30.7329
0.908684
30.9592
0.86196
31.1863
0.813752
31.4144
0.764088
31.6437
0.712994
31.8744
0.660502
32.1067
0.60664
32.3409
0.551441
32.577
0.494935
32.8154
0.437157
33.0561
0.37814
33.2993
0.317918
33.5453
0.256527
33.7942
0.194002
34.0461
0.130381
34.3012
0.0657009
34.5598
0
34.8218
-0.066683
35.0875
-0.134309
35.357
-0.202837
35.6305
-0.272227
35.908
-0.342437
36.1897
-0.413427
36.4757
-0.485153
36.7662
-0.557574
37.0612
-0.630645
37.3608
-0.704323
37.6652
-0.778565
37.9744
-0.853325
38.2885
-0.928559
38.6076
-1.00422
38.9317
-1.08027
39.2611
-1.15665
39.5956
-1.23333
39.9354
-1.31025
40.2805
-1.38737
40.631
-1.46464
40.9869
-1.54202
41.3482
-1.61946
41.7151
-1.69691
42.0874
-1.77433
42.4653
-1.85166
42.8487
-1.92886
43.2377
-2.00589
43.6323
-2.0827
44.0324
-2.15924
44.4381
-2.23545
44.8493
-2.31131
45.2661
-2.38676
45.6883
-2.46175
46.1163
-2.53623
46.5488
-2.6102
46.9896
-2.68343
47.4269
-2.75651
47.8969
-2.82736
-2.90231
48.2885
24.8953
1.68495
-24.6576
25.132
1.67443
25.3668
1.66217
25.5995
1.64816
25.83
1.63235
26.0583
1.61474
26.2845
1.59531
26.5085
1.57404
26.7304
1.55094
26.9504
1.526
27.1685
1.49922
27.3849
1.47061
27.5998
1.44018
27.8134
1.40792
28.0257
1.37386
28.237
1.33801
28.4476
1.30037
28.6575
1.26098
28.867
1.21985
29.0763
1.17699
29.2856
1.13243
29.4951
1.08619
29.7049
1.0383
29.9154
0.98878
30.1266
0.937658
30.3388
0.884961
30.5522
0.83072
30.767
0.774964
30.9833
0.717723
31.2013
0.659031
31.4213
0.598921
31.6434
0.537425
31.8677
0.47458
32.0945
0.410422
32.3239
0.344986
32.5561
0.278311
32.7912
0.210436
33.0294
0.141399
33.2708
0.0712396
33.5156
0
33.7639
-0.0722791
34.0158
-0.145556
34.2716
-0.219787
34.5312
-0.29493
34.7949
-0.370939
35.0627
-0.447772
35.3348
-0.525381
35.6112
-0.603723
35.8921
-0.68275
36.1776
-0.762416
36.4677
-0.842673
36.7625
-0.923475
37.0622
-1.00477
37.3667
-1.08652
37.6762
-1.16867
37.9907
-1.25116
38.3104
-1.33396
38.6351
-1.41701
38.9651
-1.50026
39.3002
-1.58367
39.6407
-1.66717
39.9865
-1.75073
40.3376
-1.83429
40.694
-1.91781
41.0559
-2.00122
41.4231
-2.08449
41.7958
-2.16755
42.1738
-2.25037
42.5573
-2.33289
42.9462
-2.41505
43.3404
-2.49682
43.7401
-2.57813
44.145
-2.65895
44.5555
-2.73921
44.9705
-2.81892
45.3934
-2.89782
45.8131
-2.97653
46.2639
-3.05289
-3.13354
46.6407
24.4853
1.8372
-24.2669
24.7026
1.8246
24.918
1.81015
25.1315
1.79381
25.3429
1.77558
25.5523
1.75543
25.7598
1.73336
25.9654
1.70935
26.1692
1.6834
26.3713
1.6555
26.5719
1.62568
26.7712
1.59392
26.9691
1.56023
27.166
1.52464
27.362
1.48714
27.5573
1.44775
27.7521
1.40649
27.9465
1.36338
28.1407
1.31843
28.335
1.27168
28.5294
1.22313
28.7243
1.17281
28.9197
1.12076
29.1159
1.06699
29.3131
1.01153
29.5114
0.95442
29.711
0.895683
29.9122
0.835352
30.115
0.773459
30.3196
0.710039
30.5263
0.645126
30.7351
0.578756
30.9463
0.510968
31.16
0.441797
31.3764
0.371284
31.5955
0.299468
31.8176
0.22639
32.0429
0.152091
32.2713
0.076613
32.5031
0
32.7385
-0.0777045
32.9774
-0.156456
33.2202
-0.236209
33.4667
-0.316917
33.7173
-0.398534
33.9719
-0.481013
34.2308
-0.564305
34.4939
-0.648363
34.7614
-0.733137
35.0334
-0.818577
35.31
-0.904635
35.5912
-0.991258
35.8771
-1.0784
36.1677
-1.166
36.4633
-1.25402
36.7637
-1.34239
37.0691
-1.43108
37.3795
-1.52002
37.695
-1.60916
38.0156
-1.69845
38.3413
-1.78784
38.6722
-1.87728
39.0083
-1.9667
39.3495
-2.05606
39.6961
-2.14531
40.0478
-2.23438
40.4049
-2.32323
40.7672
-2.4118
41.1347
-2.50005
41.5075
-2.58791
41.8855
-2.67533
42.2687
-2.76226
42.657
-2.84865
43.0508
-2.93443
43.4489
-3.01962
43.8547
-3.10394
44.2576
-3.18804
44.6899
-3.26965
-3.35573
45.0524
24.0667
1.98818
-23.8666
24.2658
1.97338
24.463
1.95661
24.6584
1.93786
24.852
1.91711
25.0438
1.89434
25.2339
1.86955
25.4224
1.84273
25.6094
1.81387
25.795
1.78298
25.9793
1.75006
26.1625
1.71512
26.3448
1.67817
26.5262
1.63921
26.707
1.59827
26.8874
1.55535
27.0675
1.51047
27.2474
1.46366
27.4274
1.41493
27.6076
1.3643
27.7883
1.3118
27.9695
1.25745
28.1515
1.20129
28.3344
1.14333
28.5184
1.08361
28.7037
1.02216
28.8905
0.959007
29.0789
0.894189
29.269
0.827739
29.4611
0.759692
29.6552
0.690086
29.8517
0.618958
30.0505
0.546346
30.2519
0.472291
30.4559
0.396833
30.6628
0.320014
30.8727
0.241878
31.0857
0.162467
31.3019
0.0818255
31.5215
0
31.7446
-0.0829638
31.9713
-0.167019
32.2016
-0.252118
32.4358
-0.338212
32.674
-0.425252
32.9162
-0.513189
33.1624
-0.601971
33.413
-0.691547
33.6678
-0.781867
33.927
-0.872877
34.1906
-0.964525
34.4588
-1.05676
34.7316
-1.14952
35.0091
-1.24276
35.2914
-1.33643
35.5784
-1.43046
35.8702
-1.52481
36.167
-1.61941
36.4686
-1.71421
36.7753
-1.80916
37.0869
-1.9042
37.4036
-1.99927
37.7253
-2.09432
38.0521
-2.18929
38.384
-2.28413
38.721
-2.37877
39.0631
-2.47316
39.4102
-2.56725
39.7625
-2.66098
40.1199
-2.75429
40.4823
-2.84712
40.8498
-2.93942
41.2223
-3.03115
41.6
-3.12221
41.982
-3.21264
42.3713
-3.30213
42.758
-3.39138
43.1726
-3.47802
-3.56927
43.5215
23.6408
2.1377
-23.4579
23.8227
2.12058
24.003
2.10141
24.1815
2.08016
24.3585
2.05681
24.5339
2.03136
24.7079
2.00379
24.8805
1.9741
25.0519
1.94229
25.2221
1.90837
25.3913
1.87233
25.5597
1.83419
25.7273
1.79395
25.8945
1.75163
26.0612
1.70724
26.2276
1.6608
26.3941
1.61232
26.5605
1.56182
26.7273
1.50933
26.8945
1.45487
27.0622
1.39846
27.2307
1.34014
27.4002
1.27992
27.5707
1.21783
27.7424
1.15392
27.9155
1.0882
28.0902
1.02072
28.2667
0.951506
28.4449
0.880594
28.6252
0.808023
28.8077
0.73383
28.9924
0.658056
29.1796
0.58074
29.3694
0.501925
29.5619
0.421652
29.7573
0.339967
29.9556
0.256913
30.1571
0.172535
30.3617
0.0868823
30.5698
0
30.7812
-0.0880627
30.9963
-0.177257
31.215
-0.267532
31.4375
-0.358838
31.6638
-0.451123
31.8942
-0.544334
32.1285
-0.63842
32.3671
-0.733326
32.6098
-0.828998
32.8569
-0.925381
33.1083
-1.02242
33.3641
-1.12006
33.6245
-1.21824
33.8894
-1.31691
34.159
-1.41602
34.4332
-1.51549
34.7122
-1.61528
34.9959
-1.71532
35.2844
-1.81557
35.5777
-1.91595
35.8759
-2.01641
36.179
-2.1169
36.4871
-2.21735
36.8
-2.3177
37.1179
-2.41789
37.4407
-2.51787
37.7685
-2.61758
38.1012
-2.71695
38.4389
-2.81593
38.7815
-2.91445
39.1291
-3.01247
39.4815
-3.10991
39.8388
-3.20673
40.2012
-3.30285
40.5676
-3.39828
40.9411
-3.49273
41.3123
-3.58689
41.71
-3.67832
-3.77449
42.0457
23.209
2.28558
-23.0421
23.3748
2.26607
23.5392
2.24441
23.7021
2.22058
23.8637
2.19457
24.0239
2.16637
24.1829
2.13598
24.3407
2.10338
24.4976
2.06859
24.6535
2.03161
24.8087
1.99243
24.9633
1.95107
25.1174
1.90755
25.2712
1.86186
25.4248
1.81404
25.5784
1.76408
25.7321
1.71202
25.8861
1.65787
26.0405
1.60166
26.1955
1.54341
26.3513
1.48314
26.5079
1.42088
26.6656
1.35667
26.8245
1.29053
26.9848
1.22249
27.1466
1.15259
27.31
1.08086
27.4752
1.00733
27.6423
0.932055
27.8115
0.855059
27.983
0.776387
28.1568
0.696078
28.333
0.614175
28.5119
0.530722
28.6936
0.445762
28.878
0.359342
29.0655
0.271508
29.2561
0.182307
29.4498
0.0917878
29.6469
0
29.8474
-0.093006
30.0515
-0.187179
30.2592
-0.282466
30.4705
-0.378816
30.6857
-0.476174
30.9049
-0.574485
31.1279
-0.673694
31.3551
-0.773747
31.5864
-0.874584
31.8219
-0.976152
32.0617
-1.07839
32.3058
-1.18124
32.5543
-1.28465
32.8073
-1.38855
33.0648
-1.49288
33.3268
-1.59759
33.5934
-1.70261
33.8647
-1.80789
34.1407
-1.91336
34.4213
-2.01897
34.7067
-2.12464
34.9969
-2.23032
35.2918
-2.33595
35.5915
-2.44146
35.896
-2.5468
36.2053
-2.6519
36.5194
-2.75669
36.8383
-2.86113
37.162
-2.96513
37.4906
-3.06865
37.8238
-3.17163
38.1619
-3.27399
38.5046
-3.37569
38.8522
-3.47664
39.2038
-3.57685
39.5622
-3.67603
39.9185
-3.77488
40.3
-3.87091
-3.97176
40.623
22.7724
2.43167
-22.6206
22.9234
2.40969
23.073
2.38548
23.2213
2.35901
23.3685
2.33029
23.5146
2.29931
23.6597
2.26605
23.8038
2.23052
23.9472
2.19272
24.09
2.15266
24.2322
2.11033
24.374
2.06576
24.5156
2.01894
24.657
1.9699
24.7984
1.91865
24.94
1.86521
25.0819
1.80959
25.2242
1.75182
25.3672
1.69192
25.5108
1.62992
25.6554
1.56584
25.801
1.49972
25.9478
1.43157
26.0958
1.36144
26.2453
1.28935
26.3965
1.21534
26.5493
1.13944
26.704
1.0617
26.8607
0.982151
27.0196
0.900831
27.1807
0.817784
27.3442
0.733051
27.5102
0.646676
27.6788
0.558705
27.8502
0.469182
28.0244
0.378157
28.2016
0.285676
28.3819
0.191789
28.5654
0.0965466
28.7521
-1.95226e-07
28.9423
-0.0977983
29.1359
-0.196795
29.3331
-0.296937
29.534
-0.398168
29.7387
-0.500432
29.9471
-0.603673
30.1595
-0.707835
30.3758
-0.812857
30.5962
-0.918682
30.8208
-1.02525
31.0495
-1.1325
31.2824
-1.24038
31.5197
-1.34881
31.7613
-1.45775
32.0073
-1.56712
32.2577
-1.67687
32.5126
-1.78693
32.772
-1.89724
33.036
-2.00774
33.3046
-2.11836
33.5777
-2.22904
33.8555
-2.33971
34.1379
-2.45031
34.425
-2.56078
34.7167
-2.67104
35.0131
-2.78104
35.3141
-2.89072
35.6198
-3
35.9302
-3.10883
36.2451
-3.21713
36.5648
-3.32485
36.889
-3.43192
37.2177
-3.53828
37.5512
-3.64385
37.8886
-3.74864
38.2325
-3.85233
38.5746
-3.95567
38.9405
-4.05608
-4.16139
39.2514
22.3324
2.57585
-22.1946
22.4694
2.55133
22.6053
2.52451
22.7401
2.49537
22.874
2.4639
23.007
2.43009
23.1392
2.39394
23.2707
2.35546
23.4016
2.31463
23.5321
2.27148
23.6623
2.226
23.7922
2.17821
23.9221
2.12812
24.052
2.07574
24.1822
2.02108
24.3126
1.96418
24.4435
1.90503
24.5751
1.84368
24.7073
1.78014
24.8404
1.71444
24.9745
1.64661
25.1098
1.57666
25.2464
1.50465
25.3843
1.43059
25.5238
1.35453
25.665
1.27649
25.8079
1.19651
25.9528
1.11464
26.0997
1.03091
26.2488
0.945368
26.4002
0.858049
26.554
0.769
26.7104
0.678266
26.8694
0.585894
27.0311
0.491931
27.1956
0.396426
27.3632
0.299429
27.5338
0.20099
27.7075
0.101163
27.8845
0
28.0649
-0.102445
28.2487
-0.206116
28.436
-0.310958
28.6269
-0.416913
28.8215
-0.523925
29.0199
-0.631933
29.2221
-0.740879
29.4282
-0.850702
29.6383
-0.961342
29.8524
-1.07274
30.0706
-1.18482
30.2929
-1.29754
30.5194
-1.41083
30.7502
-1.52461
30.9852
-1.63884
31.2246
-1.75344
31.4683
-1.86835
31.7165
-1.9835
31.969
-2.09883
32.226
-2.21426
32.4875
-2.32975
32.7534
-2.44521
33.0239
-2.56058
33.2989
-2.6758
33.5784
-2.7908
33.8624
-2.90551
34.1509
-3.01986
34.444
-3.13379
34.7416
-3.24723
35.0436
-3.36011
35.3501
-3.47237
35.6612
-3.58394
35.9765
-3.69477
36.2965
-3.80475
36.6203
-3.91391
36.9503
-4.02193
37.2787
-4.12954
37.6297
-4.23414
-4.3437
37.9289
21.89
2.71799
-21.7653
22.0141
2.6909
22.1373
2.66142
22.2596
2.62956
22.3811
2.59531
22.5019
2.55866
22.6222
2.5196
22.742
2.47815
22.8613
2.4343
22.9805
2.38805
23.0995
2.33943
23.2184
2.28843
23.3375
2.23507
23.4568
2.17937
23.5764
2.12134
23.6965
2.06099
23.8172
1.99836
23.9386
1.93347
24.0609
1.86633
24.1842
1.79698
24.3086
1.72544
24.4343
1.65175
24.5613
1.57593
24.6898
1.49802
24.8199
1.41805
24.9517
1.33607
25.0854
1.2521
25.2211
1.16618
25.3589
1.07837
25.4988
0.988698
25.6411
0.89721
25.7858
0.803951
25.9331
0.708969
26.083
0.612311
26.2356
0.514026
26.3911
0.414165
26.5495
0.312778
26.7109
0.209919
26.8755
0.105642
27.0433
0
27.2144
-0.10695
27.3888
-0.215151
27.5668
-0.324544
27.7483
-0.435073
27.9334
-0.546676
28.1222
-0.659293
28.3147
-0.772864
28.5111
-0.887324
28.7114
-1.00261
28.9155
-1.11867
29.1237
-1.23542
29.3359
-1.35281
29.5523
-1.47076
29.7727
-1.58922
29.9973
-1.70812
30.2262
-1.82739
30.4592
-1.94696
30.6966
-2.06677
30.9383
-2.18674
31.1842
-2.30681
31.4346
-2.42691
31.6892
-2.54698
31.9483
-2.66693
32.2117
-2.78671
32.4795
-2.90625
32.7517
-3.02546
33.0283
-3.1443
33.3093
-3.26268
33.5946
-3.38054
33.8843
-3.49781
34.1783
-3.61442
34.4767
-3.7303
34.7793
-3.84539
35.0863
-3.9596
35.397
-4.07294
35.7137
-4.18508
36.029
-4.29678
36.3657
-4.40539
-4.51898
36.6537
21.4463
2.85801
-21.3337
21.5584
2.82829
21.6698
2.79613
21.7805
2.76153
21.8906
2.72448
22.0002
2.68496
22.1094
2.64299
22.2183
2.59856
22.3269
2.55168
22.4356
2.50236
22.5442
2.45059
22.653
2.3964
22.762
2.3398
22.8714
2.2808
22.9812
2.21942
23.0917
2.15568
23.203
2.0896
23.315
2.0212
23.4281
1.95052
23.5422
1.87757
23.6575
1.80239
23.7742
1.725
23.8923
1.64544
24.012
1.56375
24.1333
1.47996
24.2564
1.3941
24.3815
1.30622
24.5085
1.21636
24.6377
1.12455
24.7691
1.03085
24.9028
0.935293
25.039
0.83793
25.1777
0.738808
25.319
0.637977
25.4631
0.535487
25.61
0.431389
25.7598
0.325736
25.9126
0.218584
26.0685
0.109986
26.2276
0
26.3899
-0.111317
26.5555
-0.223907
26.7246
-0.33771
26.8972
-0.452665
27.0733
-0.568711
27.253
-0.685785
27.4364
-0.803825
27.6235
-0.922767
27.8144
-1.04254
28.0092
-1.16309
28.2079
-1.28435
28.4105
-1.40624
28.6171
-1.5287
28.8277
-1.65166
29.0424
-1.77506
29.2612
-1.89882
29.4841
-2.02288
29.7112
-2.14717
29.9424
-2.27161
30.1779
-2.39613
30.4176
-2.52067
30.6615
-2.64515
30.9096
-2.76951
31.162
-2.89366
31.4187
-3.01755
31.6796
-3.1411
31.9448
-3.26423
32.2142
-3.38688
32.4878
-3.50897
32.7656
-3.63044
33.0477
-3.75122
33.3339
-3.87122
33.6242
-3.99039
33.9189
-4.10864
34.2171
-4.22597
34.521
-4.34206
34.8238
-4.45766
35.1467
-4.57011
-4.68753
35.4239
21.0022
2.9958
-20.9008
21.1032
2.96344
21.2037
2.92858
21.3036
2.89122
21.4032
2.85135
21.5024
2.80897
21.6013
2.76407
21.7002
2.71668
21.7989
2.66677
21.8978
2.61437
21.9968
2.55949
22.0962
2.50213
22.1959
2.4423
22.2961
2.38003
22.3969
2.31534
22.4985
2.24824
22.6009
2.17875
22.7042
2.1069
22.8087
2.03272
22.9143
1.95623
23.0212
1.87746
23.1294
1.79645
23.2392
1.71322
23.3507
1.62782
23.4638
1.54028
23.5788
1.45063
23.6957
1.35892
23.8147
1.2652
23.9358
1.16949
24.0591
1.07185
24.1848
0.972325
24.3129
0.870961
24.4436
0.767806
24.5769
0.662912
24.7129
0.556329
24.8517
0.448112
24.9934
0.338314
25.138
0.226992
25.2857
0.114201
25.4366
0
25.5906
-0.115552
25.7479
-0.232395
25.9086
-0.350468
26.0727
-0.469708
26.2403
-0.590053
26.4114
-0.711438
26.5861
-0.833798
26.7644
-0.957068
26.9465
-1.08118
27.1323
-1.20607
27.3219
-1.33167
27.5154
-1.4579
27.7127
-1.5847
27.914
-1.71201
28.1192
-1.83974
28.3285
-1.96783
28.5417
-2.09621
28.759
-2.2248
28.9803
-2.35354
29.2057
-2.48234
29.4353
-2.61115
29.6689
-2.73987
29.9066
-2.86845
30.1485
-2.99681
30.3945
-3.12488
30.6446
-3.25257
30.8988
-3.37982
31.1571
-3.50656
31.4195
-3.63272
31.6861
-3.75821
31.9566
-3.88297
32.2313
-4.00692
32.5099
-4.13
32.7926
-4.2521
33.0789
-4.37326
33.3706
-4.49312
33.6613
-4.61244
33.9711
-4.72855
-4.84963
34.238
20.5586
3.13131
-20.4677
20.6494
3.09628
20.7398
3.0587
20.8298
3.01857
20.9195
2.97588
21.0091
2.93064
21.0986
2.88283
21.1881
2.83247
21.2778
2.77955
21.3676
2.7241
21.4578
2.66611
21.5483
2.6056
21.6394
2.54259
21.7311
2.47709
21.8236
2.40911
21.9168
2.33869
22.011
2.26584
22.1063
2.19059
22.2027
2.11296
22.3003
2.03299
22.3994
1.9507
22.4998
1.86612
22.6019
1.77929
22.7056
1.69025
22.8111
1.59904
22.9184
1.50568
23.0277
1.41023
23.1391
1.31273
23.2527
1.21321
23.3685
1.11173
23.4866
1.00833
23.6072
0.903067
23.7303
0.795984
23.856
0.687134
23.9844
0.576571
24.1156
0.464348
24.2496
0.350522
24.3866
0.23515
24.5265
0.11829
24.6696
-1.95131e-07
24.8158
-0.119658
24.9652
-0.240623
25.1179
-0.362831
25.274
-0.48622
25.4335
-0.610724
25.5964
-0.736278
25.7628
-0.862815
25.9329
-0.990268
26.1065
-1.11857
26.2838
-1.24765
26.4648
-1.37743
26.6496
-1.50786
26.8381
-1.63885
27.0305
-1.77033
27.2267
-1.90224
27.4268
-2.0345
27.6308
-2.16704
27.8388
-2.29977
28.0506
-2.43264
28.2665
-2.56556
28.4863
-2.69846
28.7101
-2.83127
28.9379
-2.96391
29.1697
-3.0963
29.4055
-3.22837
29.6452
-3.36005
29.889
-3.49125
30.1368
-3.62191
30.3885
-3.75195
30.6442
-3.8813
30.9038
-4.00987
31.1673
-4.1376
31.4347
-4.26442
31.706
-4.39022
31.9808
-4.51502
32.2608
-4.63848
32.54
-4.76137
32.8372
-4.88097
-5.00553
33.0941
20.1164
3.26448
-20.0351
20.1977
3.22677
20.2787
3.18647
20.3596
3.14357
20.4403
3.09806
20.521
3.04995
20.6017
2.99924
20.6826
2.94592
20.7638
2.89002
20.8453
2.83153
20.9272
2.77047
21.0097
2.70684
21.0928
2.64067
21.1766
2.57197
21.2612
2.50076
21.3468
2.42706
21.4334
2.35089
21.5211
2.27229
21.61
2.19127
21.7003
2.10787
21.792
2.02212
21.8852
1.93405
21.98
1.84369
22.0765
1.75108
22.1748
1.65627
22.275
1.55929
22.3772
1.46017
22.4815
1.35898
22.588
1.25574
22.6967
1.15051
22.8077
1.04334
22.9212
0.934274
23.0372
0.823364
23.1558
0.710664
23.277
0.596229
23.401
0.480112
23.5278
0.362372
23.6575
0.243067
23.7902
0.122256
23.9259
0
24.0647
-0.123639
24.2066
-0.248598
24.3518
-0.374813
24.5002
-0.502218
24.652
-0.630747
24.8072
-0.760334
24.9658
-0.890909
25.1279
-1.0224
25.2936
-1.15475
25.4628
-1.28787
25.6356
-1.4217
25.8121
-1.55617
25.9922
-1.6912
26.1761
-1.82671
26.3638
-1.96265
26.5552
-2.09892
26.7504
-2.23546
26.9494
-2.37218
27.1522
-2.50902
27.3589
-2.6459
27.5695
-2.78274
27.7839
-2.91947
28.0022
-3.056
28.2244
-3.19227
28.4504
-3.32819
28.6803
-3.46368
28.9141
-3.59868
29.1517
-3.7331