/*--------------------------------*- C++ -*----------------------------------*\
| =========                 |                                                 |
| \\      /  F ield         | OpenFOAM: The Open Source CFD Toolbox           |
|  \\    /   O peration     | Version:  2206                                  |
|   \\  /    A nd           | Website:  www.openfoam.com                      |
|    \\/     M anipulation  |                                                 |
\*---------------------------------------------------------------------------*/
FoamFile
{
    version     2.0;
    format      ascii;
    arch        "LSB;label=32;scalar=64";
    class       volScalarField;
    location    "0.4";
    object      wave;
}
// * * * * * * * * * * * * * * * * * * * * * * * * * * * * * * * * * * * * * //

dimensions      [0 0 0 0 0 0 0];

internalField   nonuniform List<scalar> 
100
(
0.461188
0.59559
0.715029
0.816505
0.897469
0.955887
0.99029
0.999816
0.984223
0.943905
0.879874
0.793738
0.687662
0.56431
0.426782
0.278532
0.123284
-0.0350603
-0.192524
-0.345151
-0.489108
-0.620776
-0.73685
-0.834412
-0.911012
-0.964725
-0.994202
-0.998703
-0.978114
-0.932953
-0.864354
-0.77404
-0.66428
-0.537833
-0.397874
-0.247919
-0.0917365
0.066751
0.223562
0.374756
0.516535
0.645338
0.757929
0.851479
0.923637
0.972592
0.997113
0.996585
0.97102
0.921061
0.847963
0.753562
0.64023
0.510814
0.368565
0.217057
0.0600962
-0.0983745
-0.254374
-0.403983
-0.543443
-0.66925
-0.778244
-0.867688
-0.935333
-0.97948
-0.99902
-0.993463
-0.962948
-0.908242
-0.830718
-0.732325
-0.615535
-0.483281
-0.338885
-0.185976
-0.0283954
0.129899
0.28493
0.432803
0.569803
0.692488
0.797777
0.883023
0.946086
0.985381
0.999921
0.989341
0.953907
0.894508
0.812638
0.710351
0.59022
0.455261
0.308864
0.154708
-0.00333399
-0.161293
-0.315199
-0.461187
)
;

boundaryField
{
    movingWall
    {
        type            calculated;
        value           uniform 0;
    }
    fixedWalls
    {
        type            calculated;
        value           uniform 0;
    }
    frontAndBack
    {
        type            empty;
    }
}


// ************************************************************************* //
