/*--------------------------------*- C++ -*----------------------------------*\
| =========                 |                                                 |
| \\      /  F ield         | OpenFOAM: The Open Source CFD Toolbox           |
|  \\    /   O peration     | Version:  2312                                  |
|   \\  /    A nd           | Website:  www.openfoam.com                      |
|    \\/     M anipulation  |                                                 |
\*---------------------------------------------------------------------------*/
FoamFile
{
    version     2.0;
    format      ascii;
    arch        "LSB;label=32;scalar=64";
    class       volVectorField;
    location    "0.549";
    object      U;
}
// * * * * * * * * * * * * * * * * * * * * * * * * * * * * * * * * * * * * * //

dimensions      [0 1 -1 0 0 0 0];

internalField   nonuniform List<vector> 
31205
(
(234.276 0 0)
(231.864 0 0)
(229.376 0 0)
(226.809 0 0)
(224.158 0 0)
(221.418 0 0)
(218.582 0 0)
(215.645 0 0)
(212.599 0 0)
(209.434 0 0)
(206.142 0 0)
(202.711 0 0)
(199.127 0 0)
(195.375 0 0)
(191.436 0 0)
(187.289 0 0)
(182.907 0 0)
(178.257 0 0)
(173.301 0 0)
(167.992 0 0)
(162.273 0 0)
(156.088 0 0)
(149.41 0 0)
(142.305 0 0)
(134.992 0 0)
(127.856 0 0)
(121.339 0 0)
(115.794 0 0)
(111.386 0 0)
(108.093 0 0)
(105.776 0 0)
(104.255 0 0)
(103.356 0 0)
(102.933 0 0)
(102.871 0 0)
(103.083 0 0)
(103.507 0 0)
(104.094 0 0)
(104.808 0 0)
(105.624 0 0)
(106.521 0 0)
(107.482 0 0)
(108.497 0 0)
(109.555 0 0)
(110.649 0 0)
(111.772 0 0)
(112.92 0 0)
(114.088 0 0)
(115.273 0 0)
(116.472 0 0)
(117.683 0 0)
(118.903 0 0)
(120.131 0 0)
(121.366 0 0)
(122.606 0 0)
(123.849 0 0)
(125.096 0 0)
(126.346 0 0)
(127.596 0 0)
(128.848 0 0)
(130.1 0 0)
(131.352 0 0)
(132.603 0 0)
(133.854 0 0)
(135.103 0 0)
(136.35 0 0)
(137.596 0 0)
(138.839 0 0)
(140.081 0 0)
(141.32 0 0)
(142.556 0 0)
(143.789 0 0)
(145.02 0 0)
(146.245 0 0)
(147.474 0 0)
(148.681 0 0)
(149.942 0 0)
(151.022 0 0)
(152.644 0 0)
(231.711 0 0)
(229.296 0 0)
(226.805 0 0)
(224.236 0 0)
(221.582 0 0)
(218.84 0 0)
(216.002 0 0)
(213.062 0 0)
(210.012 0 0)
(206.844 0 0)
(203.547 0 0)
(200.11 0 0)
(196.518 0 0)
(192.757 0 0)
(188.806 0 0)
(184.643 0 0)
(180.241 0 0)
(175.567 0 0)
(170.581 0 0)
(165.234 0 0)
(159.474 0 0)
(153.255 0 0)
(146.575 0 0)
(139.545 0 0)
(132.428 0 0)
(125.616 0 0)
(119.513 0 0)
(114.404 0 0)
(110.392 0 0)
(107.42 0 0)
(105.342 0 0)
(103.987 0 0)
(103.196 0 0)
(102.838 0 0)
(102.811 0 0)
(103.037 0 0)
(103.458 0 0)
(104.032 0 0)
(104.726 0 0)
(105.516 0 0)
(106.382 0 0)
(107.311 0 0)
(108.291 0 0)
(109.312 0 0)
(110.369 0 0)
(111.454 0 0)
(112.563 0 0)
(113.692 0 0)
(114.837 0 0)
(115.997 0 0)
(117.168 0 0)
(118.35 0 0)
(119.539 0 0)
(120.734 0 0)
(121.935 0 0)
(123.14 0 0)
(124.349 0 0)
(125.56 0 0)
(126.773 0 0)
(127.987 0 0)
(129.202 0 0)
(130.416 0 0)
(131.631 0 0)
(132.845 0 0)
(134.058 0 0)
(135.269 0 0)
(136.479 0 0)
(137.687 0 0)
(138.893 0 0)
(140.097 0 0)
(141.298 0 0)
(142.497 0 0)
(143.694 0 0)
(144.885 0 0)
(146.08 0 0)
(147.254 0 0)
(148.48 0 0)
(149.532 0 0)
(151.104 0 0)
(229.013 0 0)
(226.592 0 0)
(224.096 0 0)
(221.521 0 0)
(218.862 0 0)
(216.113 0 0)
(213.269 0 0)
(210.322 0 0)
(207.264 0 0)
(204.087 0 0)
(200.779 0 0)
(197.329 0 0)
(193.723 0 0)
(189.943 0 0)
(185.971 0 0)
(181.782 0 0)
(177.348 0 0)
(172.635 0 0)
(167.603 0 0)
(162.204 0 0)
(156.39 0 0)
(150.131 0 0)
(143.466 0 0)
(136.551 0 0)
(129.688 0 0)
(123.262 0 0)
(117.624 0 0)
(112.984 0 0)
(109.386 0 0)
(106.744 0 0)
(104.91 0 0)
(103.726 0 0)
(103.048 0 0)
(102.76 0 0)
(102.772 0 0)
(103.014 0 0)
(103.437 0 0)
(104.001 0 0)
(104.677 0 0)
(105.443 0 0)
(106.282 0 0)
(107.18 0 0)
(108.126 0 0)
(109.113 0 0)
(110.133 0 0)
(111.181 0 0)
(112.253 0 0)
(113.344 0 0)
(114.452 0 0)
(115.573 0 0)
(116.706 0 0)
(117.849 0 0)
(119 0 0)
(120.158 0 0)
(121.321 0 0)
(122.489 0 0)
(123.66 0 0)
(124.834 0 0)
(126.009 0 0)
(127.187 0 0)
(128.365 0 0)
(129.543 0 0)
(130.722 0 0)
(131.9 0 0)
(133.077 0 0)
(134.253 0 0)
(135.428 0 0)
(136.601 0 0)
(137.773 0 0)
(138.942 0 0)
(140.109 0 0)
(141.274 0 0)
(142.437 0 0)
(143.596 0 0)
(144.757 0 0)
(145.899 0 0)
(147.09 0 0)
(148.116 0 0)
(149.638 0 0)
(226.254 0 0)
(223.826 0 0)
(221.323 0 0)
(218.741 0 0)
(216.075 0 0)
(213.318 0 0)
(210.465 0 0)
(207.508 0 0)
(204.439 0 0)
(201.248 0 0)
(197.926 0 0)
(194.459 0 0)
(190.832 0 0)
(187.028 0 0)
(183.027 0 0)
(178.803 0 0)
(174.329 0 0)
(169.568 0 0)
(164.48 0 0)
(159.019 0 0)
(153.147 0 0)
(146.859 0 0)
(140.238 0 0)
(133.488 0 0)
(126.936 0 0)
(120.94 0 0)
(115.788 0 0)
(111.619 0 0)
(108.424 0 0)
(106.1 0 0)
(104.501 0 0)
(103.481 0 0)
(102.912 0 0)
(102.692 0 0)
(102.743 0 0)
(103.005 0 0)
(103.43 0 0)
(103.987 0 0)
(104.647 0 0)
(105.391 0 0)
(106.204 0 0)
(107.073 0 0)
(107.988 0 0)
(108.942 0 0)
(109.928 0 0)
(110.941 0 0)
(111.977 0 0)
(113.032 0 0)
(114.103 0 0)
(115.187 0 0)
(116.284 0 0)
(117.39 0 0)
(118.504 0 0)
(119.624 0 0)
(120.751 0 0)
(121.882 0 0)
(123.016 0 0)
(124.154 0 0)
(125.294 0 0)
(126.435 0 0)
(127.578 0 0)
(128.721 0 0)
(129.864 0 0)
(131.007 0 0)
(132.149 0 0)
(133.291 0 0)
(134.432 0 0)
(135.571 0 0)
(136.708 0 0)
(137.844 0 0)
(138.978 0 0)
(140.11 0 0)
(141.24 0 0)
(142.366 0 0)
(143.495 0 0)
(144.604 0 0)
(145.762 0 0)
(146.761 0 0)
(148.237 0 0)
(223.467 0 0)
(221.032 0 0)
(218.522 0 0)
(215.932 0 0)
(213.256 0 0)
(210.49 0 0)
(207.627 0 0)
(204.658 0 0)
(201.576 0 0)
(198.37 0 0)
(195.03 0 0)
(191.542 0 0)
(187.892 0 0)
(184.06 0 0)
(180.025 0 0)
(175.762 0 0)
(171.241 0 0)
(166.426 0 0)
(161.276 0 0)
(155.751 0 0)
(149.829 0 0)
(143.538 0 0)
(137.005 0 0)
(130.478 0 0)
(124.286 0 0)
(118.749 0 0)
(114.083 0 0)
(110.365 0 0)
(107.548 0 0)
(105.516 0 0)
(104.131 0 0)
(103.26 0 0)
(102.791 0 0)
(102.635 0 0)
(102.722 0 0)
(103 0 0)
(103.429 0 0)
(103.978 0 0)
(104.624 0 0)
(105.348 0 0)
(106.136 0 0)
(106.978 0 0)
(107.863 0 0)
(108.785 0 0)
(109.738 0 0)
(110.718 0 0)
(111.719 0 0)
(112.739 0 0)
(113.774 0 0)
(114.824 0 0)
(115.884 0 0)
(116.954 0 0)
(118.032 0 0)
(119.117 0 0)
(120.208 0 0)
(121.304 0 0)
(122.403 0 0)
(123.505 0 0)
(124.61 0 0)
(125.716 0 0)
(126.824 0 0)
(127.932 0 0)
(129.041 0 0)
(130.15 0 0)
(131.259 0 0)
(132.367 0 0)
(133.474 0 0)
(134.58 0 0)
(135.685 0 0)
(136.788 0 0)
(137.889 0 0)
(138.988 0 0)
(140.086 0 0)
(141.18 0 0)
(142.277 0 0)
(143.355 0 0)
(144.48 0 0)
(145.452 0 0)
(146.885 0 0)
(220.665 0 0)
(218.223 0 0)
(215.705 0 0)
(213.106 0 0)
(210.422 0 0)
(207.645 0 0)
(204.77 0 0)
(201.788 0 0)
(198.691 0 0)
(195.469 0 0)
(192.109 0 0)
(188.598 0 0)
(184.921 0 0)
(181.057 0 0)
(176.986 0 0)
(172.679 0 0)
(168.107 0 0)
(163.234 0 0)
(158.02 0 0)
(152.437 0 0)
(146.482 0 0)
(140.224 0 0)
(133.835 0 0)
(127.587 0 0)
(121.796 0 0)
(116.729 0 0)
(112.536 0 0)
(109.239 0 0)
(106.766 0 0)
(104.998 0 0)
(103.804 0 0)
(103.066 0 0)
(102.686 0 0)
(102.587 0 0)
(102.706 0 0)
(102.999 0 0)
(103.43 0 0)
(103.972 0 0)
(104.603 0 0)
(105.307 0 0)
(106.072 0 0)
(106.887 0 0)
(107.744 0 0)
(108.636 0 0)
(109.557 0 0)
(110.504 0 0)
(111.472 0 0)
(112.458 0 0)
(113.46 0 0)
(114.474 0 0)
(115.5 0 0)
(116.536 0 0)
(117.579 0 0)
(118.63 0 0)
(119.686 0 0)
(120.747 0 0)
(121.811 0 0)
(122.879 0 0)
(123.95 0 0)
(125.022 0 0)
(126.096 0 0)
(127.171 0 0)
(128.247 0 0)
(129.322 0 0)
(130.398 0 0)
(131.473 0 0)
(132.547 0 0)
(133.621 0 0)
(134.693 0 0)
(135.764 0 0)
(136.833 0 0)
(137.901 0 0)
(138.967 0 0)
(140.03 0 0)
(141.095 0 0)
(142.143 0 0)
(143.236 0 0)
(144.181 0 0)
(145.573 0 0)
(217.852 0 0)
(215.402 0 0)
(212.876 0 0)
(210.268 0 0)
(207.574 0 0)
(204.786 0 0)
(201.899 0 0)
(198.903 0 0)
(195.79 0 0)
(192.549 0 0)
(189.167 0 0)
(185.631 0 0)
(181.924 0 0)
(178.026 0 0)
(173.913 0 0)
(169.56 0 0)
(164.933 0 0)
(159.999 0 0)
(154.725 0 0)
(149.093 0 0)
(143.134 0 0)
(136.956 0 0)
(130.768 0 0)
(124.851 0 0)
(119.49 0 0)
(114.892 0 0)
(111.148 0 0)
(108.239 0 0)
(106.077 0 0)
(104.543 0 0)
(103.518 0 0)
(102.899 0 0)
(102.598 0 0)
(102.548 0 0)
(102.696 0 0)
(103.001 0 0)
(103.433 0 0)
(103.967 0 0)
(104.583 0 0)
(105.269 0 0)
(106.011 0 0)
(106.8 0 0)
(107.629 0 0)
(108.492 0 0)
(109.383 0 0)
(110.298 0 0)
(111.234 0 0)
(112.188 0 0)
(113.156 0 0)
(114.137 0 0)
(115.13 0 0)
(116.132 0 0)
(117.142 0 0)
(118.158 0 0)
(119.181 0 0)
(120.208 0 0)
(121.239 0 0)
(122.274 0 0)
(123.311 0 0)
(124.351 0 0)
(125.392 0 0)
(126.434 0 0)
(127.477 0 0)
(128.52 0 0)
(129.563 0 0)
(130.606 0 0)
(131.649 0 0)
(132.69 0 0)
(133.731 0 0)
(134.771 0 0)
(135.809 0 0)
(136.845 0 0)
(137.881 0 0)
(138.913 0 0)
(139.948 0 0)
(140.966 0 0)
(142.027 0 0)
(142.946 0 0)
(144.297 0 0)
(215.029 0 0)
(212.571 0 0)
(210.036 0 0)
(207.419 0 0)
(204.714 0 0)
(201.914 0 0)
(199.013 0 0)
(196.002 0 0)
(192.871 0 0)
(189.609 0 0)
(186.204 0 0)
(182.64 0 0)
(178.9 0 0)
(174.964 0 0)
(170.808 0 0)
(166.404 0 0)
(161.72 0 0)
(156.726 0 0)
(151.397 0 0)
(145.738 0 0)
(139.812 0 0)
(133.767 0 0)
(127.836 0 0)
(122.293 0 0)
(117.377 0 0)
(113.238 0 0)
(109.914 0 0)
(107.358 0 0)
(105.473 0 0)
(104.147 0 0)
(103.272 0 0)
(102.757 0 0)
(102.525 0 0)
(102.518 0 0)
(102.691 0 0)
(103.006 0 0)
(103.437 0 0)
(103.963 0 0)
(104.565 0 0)
(105.232 0 0)
(105.952 0 0)
(106.716 0 0)
(107.519 0 0)
(108.353 0 0)
(109.215 0 0)
(110.1 0 0)
(111.004 0 0)
(111.926 0 0)
(112.863 0 0)
(113.812 0 0)
(114.772 0 0)
(115.741 0 0)
(116.718 0 0)
(117.702 0 0)
(118.692 0 0)
(119.687 0 0)
(120.685 0 0)
(121.688 0 0)
(122.693 0 0)
(123.7 0 0)
(124.709 0 0)
(125.719 0 0)
(126.73 0 0)
(127.742 0 0)
(128.753 0 0)
(129.765 0 0)
(130.776 0 0)
(131.787 0 0)
(132.797 0 0)
(133.806 0 0)
(134.814 0 0)
(135.82 0 0)
(136.825 0 0)
(137.828 0 0)
(138.833 0 0)
(139.821 0 0)
(140.852 0 0)
(141.745 0 0)
(143.056 0 0)
(212.195 0 0)
(209.728 0 0)
(207.184 0 0)
(204.557 0 0)
(201.84 0 0)
(199.028 0 0)
(196.112 0 0)
(193.084 0 0)
(189.933 0 0)
(186.649 0 0)
(183.217 0 0)
(179.623 0 0)
(175.848 0 0)
(171.871 0 0)
(167.667 0 0)
(163.209 0 0)
(158.468 0 0)
(153.417 0 0)
(148.047 0 0)
(142.389 0 0)
(136.541 0 0)
(130.686 0 0)
(125.064 0 0)
(119.925 0 0)
(115.458 0 0)
(111.757 0 0)
(108.821 0 0)
(106.583 0 0)
(104.945 0 0)
(103.803 0 0)
(103.06 0 0)
(102.636 0 0)
(102.466 0 0)
(102.497 0 0)
(102.69 0 0)
(103.014 0 0)
(103.443 0 0)
(103.96 0 0)
(104.548 0 0)
(105.197 0 0)
(105.895 0 0)
(106.636 0 0)
(107.412 0 0)
(108.219 0 0)
(109.052 0 0)
(109.908 0 0)
(110.782 0 0)
(111.673 0 0)
(112.579 0 0)
(113.497 0 0)
(114.425 0 0)
(115.363 0 0)
(116.308 0 0)
(117.261 0 0)
(118.219 0 0)
(119.182 0 0)
(120.149 0 0)
(121.119 0 0)
(122.093 0 0)
(123.069 0 0)
(124.047 0 0)
(125.026 0 0)
(126.006 0 0)
(126.987 0 0)
(127.968 0 0)
(128.949 0 0)
(129.93 0 0)
(130.911 0 0)
(131.891 0 0)
(132.87 0 0)
(133.848 0 0)
(134.824 0 0)
(135.8 0 0)
(136.773 0 0)
(137.749 0 0)
(138.709 0 0)
(139.71 0 0)
(140.578 0 0)
(141.85 0 0)
(209.349 0 0)
(206.873 0 0)
(204.319 0 0)
(201.681 0 0)
(198.952 0 0)
(196.125 0 0)
(193.193 0 0)
(190.146 0 0)
(186.974 0 0)
(183.665 0 0)
(180.205 0 0)
(176.577 0 0)
(172.763 0 0)
(168.742 0 0)
(164.488 0 0)
(159.975 0 0)
(155.177 0 0)
(150.078 0 0)
(144.687 0 0)
(139.068 0 0)
(133.351 0 0)
(127.741 0 0)
(122.471 0 0)
(117.754 0 0)
(113.728 0 0)
(110.439 0 0)
(107.857 0 0)
(105.905 0 0)
(104.486 0 0)
(103.506 0 0)
(102.88 0 0)
(102.536 0 0)
(102.419 0 0)
(102.483 0 0)
(102.694 0 0)
(103.023 0 0)
(103.45 0 0)
(103.958 0 0)
(104.532 0 0)
(105.163 0 0)
(105.84 0 0)
(106.558 0 0)
(107.309 0 0)
(108.09 0 0)
(108.895 0 0)
(109.722 0 0)
(110.568 0 0)
(111.429 0 0)
(112.305 0 0)
(113.192 0 0)
(114.09 0 0)
(114.997 0 0)
(115.912 0 0)
(116.833 0 0)
(117.761 0 0)
(118.693 0 0)
(119.629 0 0)
(120.569 0 0)
(121.512 0 0)
(122.458 0 0)
(123.405 0 0)
(124.354 0 0)
(125.304 0 0)
(126.255 0 0)
(127.206 0 0)
(128.158 0 0)
(129.109 0 0)
(130.06 0 0)
(131.011 0 0)
(131.961 0 0)
(132.91 0 0)
(133.857 0 0)
(134.805 0 0)
(135.749 0 0)
(136.696 0 0)
(137.628 0 0)
(138.6 0 0)
(139.443 0 0)
(140.677 0 0)
(206.49 0 0)
(204.005 0 0)
(201.44 0 0)
(198.79 0 0)
(196.047 0 0)
(193.205 0 0)
(190.255 0 0)
(187.187 0 0)
(183.992 0 0)
(180.655 0 0)
(177.163 0 0)
(173.5 0 0)
(169.644 0 0)
(165.576 0 0)
(161.269 0 0)
(156.701 0 0)
(151.852 0 0)
(146.719 0 0)
(141.339 0 0)
(135.802 0 0)
(130.272 0 0)
(124.956 0 0)
(120.07 0 0)
(115.781 0 0)
(112.179 0 0)
(109.272 0 0)
(107.011 0 0)
(105.313 0 0)
(104.088 0 0)
(103.25 0 0)
(102.726 0 0)
(102.453 0 0)
(102.382 0 0)
(102.475 0 0)
(102.701 0 0)
(103.035 0 0)
(103.459 0 0)
(103.957 0 0)
(104.518 0 0)
(105.131 0 0)
(105.788 0 0)
(106.483 0 0)
(107.21 0 0)
(107.965 0 0)
(108.744 0 0)
(109.543 0 0)
(110.361 0 0)
(111.194 0 0)
(112.04 0 0)
(112.898 0 0)
(113.766 0 0)
(114.644 0 0)
(115.529 0 0)
(116.42 0 0)
(117.318 0 0)
(118.22 0 0)
(119.127 0 0)
(120.037 0 0)
(120.95 0 0)
(121.866 0 0)
(122.784 0 0)
(123.703 0 0)
(124.624 0 0)
(125.545 0 0)
(126.467 0 0)
(127.39 0 0)
(128.312 0 0)
(129.235 0 0)
(130.157 0 0)
(131.078 0 0)
(131.999 0 0)
(132.919 0 0)
(133.838 0 0)
(134.754 0 0)
(135.673 0 0)
(136.579 0 0)
(137.522 0 0)
(138.34 0 0)
(139.538 0 0)
(203.618 0 0)
(201.123 0 0)
(198.546 0 0)
(195.882 0 0)
(193.125 0 0)
(190.265 0 0)
(187.295 0 0)
(184.205 0 0)
(180.984 0 0)
(177.617 0 0)
(174.091 0 0)
(170.388 0 0)
(166.488 0 0)
(162.37 0 0)
(158.011 0 0)
(153.39 0 0)
(148.5 0 0)
(143.357 0 0)
(138.024 0 0)
(132.623 0 0)
(127.331 0 0)
(122.352 0 0)
(117.868 0 0)
(114.002 0 0)
(110.8 0 0)
(108.243 0 0)
(106.269 0 0)
(104.797 0 0)
(103.743 0 0)
(103.031 0 0)
(102.596 0 0)
(102.385 0 0)
(102.355 0 0)
(102.473 0 0)
(102.711 0 0)
(103.049 0 0)
(103.469 0 0)
(103.958 0 0)
(104.504 0 0)
(105.1 0 0)
(105.738 0 0)
(106.411 0 0)
(107.114 0 0)
(107.845 0 0)
(108.598 0 0)
(109.37 0 0)
(110.161 0 0)
(110.966 0 0)
(111.784 0 0)
(112.614 0 0)
(113.454 0 0)
(114.302 0 0)
(115.158 0 0)
(116.021 0 0)
(116.889 0 0)
(117.762 0 0)
(118.64 0 0)
(119.521 0 0)
(120.406 0 0)
(121.292 0 0)
(122.181 0 0)
(123.072 0 0)
(123.964 0 0)
(124.857 0 0)
(125.751 0 0)
(126.646 0 0)
(127.54 0 0)
(128.434 0 0)
(129.329 0 0)
(130.222 0 0)
(131.115 0 0)
(132.007 0 0)
(132.899 0 0)
(133.788 0 0)
(134.68 0 0)
(135.559 0 0)
(136.474 0 0)
(137.269 0 0)
(138.43 0 0)
(200.731 0 0)
(198.225 0 0)
(195.635 0 0)
(192.957 0 0)
(190.182 0 0)
(187.304 0 0)
(184.312 0 0)
(181.198 0 0)
(177.947 0 0)
(174.549 0 0)
(170.985 0 0)
(167.24 0 0)
(163.293 0 0)
(159.124 0 0)
(154.713 0 0)
(150.048 0 0)
(145.135 0 0)
(140.013 0 0)
(134.773 0 0)
(129.559 0 0)
(124.555 0 0)
(119.943 0 0)
(115.869 0 0)
(112.41 0 0)
(109.58 0 0)
(107.34 0 0)
(105.623 0 0)
(104.35 0 0)
(103.446 0 0)
(102.844 0 0)
(102.488 0 0)
(102.331 0 0)
(102.337 0 0)
(102.476 0 0)
(102.724 0 0)
(103.064 0 0)
(103.479 0 0)
(103.959 0 0)
(104.492 0 0)
(105.071 0 0)
(105.689 0 0)
(106.341 0 0)
(107.022 0 0)
(107.728 0 0)
(108.457 0 0)
(109.204 0 0)
(109.968 0 0)
(110.746 0 0)
(111.537 0 0)
(112.339 0 0)
(113.151 0 0)
(113.972 0 0)
(114.8 0 0)
(115.634 0 0)
(116.474 0 0)
(117.32 0 0)
(118.169 0 0)
(119.022 0 0)
(119.878 0 0)
(120.737 0 0)
(121.598 0 0)
(122.461 0 0)
(123.325 0 0)
(124.191 0 0)
(125.057 0 0)
(125.924 0 0)
(126.791 0 0)
(127.658 0 0)
(128.525 0 0)
(129.392 0 0)
(130.258 0 0)
(131.123 0 0)
(131.988 0 0)
(132.851 0 0)
(133.716 0 0)
(134.568 0 0)
(135.456 0 0)
(136.229 0 0)
(137.354 0 0)
(197.829 0 0)
(195.309 0 0)
(192.706 0 0)
(190.012 0 0)
(187.219 0 0)
(184.32 0 0)
(181.304 0 0)
(178.162 0 0)
(174.881 0 0)
(171.446 0 0)
(167.843 0 0)
(164.053 0 0)
(160.058 0 0)
(155.838 0 0)
(151.381 0 0)
(146.685 0 0)
(141.774 0 0)
(136.713 0 0)
(131.616 0 0)
(126.642 0 0)
(121.964 0 0)
(117.738 0 0)
(114.067 0 0)
(110.994 0 0)
(108.505 0 0)
(106.55 0 0)
(105.06 0 0)
(103.962 0 0)
(103.19 0 0)
(102.685 0 0)
(102.398 0 0)
(102.289 0 0)
(102.326 0 0)
(102.483 0 0)
(102.74 0 0)
(103.08 0 0)
(103.491 0 0)
(103.96 0 0)
(104.48 0 0)
(105.043 0 0)
(105.643 0 0)
(106.274 0 0)
(106.933 0 0)
(107.616 0 0)
(108.32 0 0)
(109.043 0 0)
(109.781 0 0)
(110.533 0 0)
(111.298 0 0)
(112.074 0 0)
(112.859 0 0)
(113.652 0 0)
(114.453 0 0)
(115.261 0 0)
(116.073 0 0)
(116.891 0 0)
(117.713 0 0)
(118.539 0 0)
(119.368 0 0)
(120.2 0 0)
(121.034 0 0)
(121.869 0 0)
(122.707 0 0)
(123.545 0 0)
(124.384 0 0)
(125.224 0 0)
(126.065 0 0)
(126.905 0 0)
(127.746 0 0)
(128.586 0 0)
(129.426 0 0)
(130.265 0 0)
(131.104 0 0)
(131.941 0 0)
(132.78 0 0)
(133.607 0 0)
(134.468 0 0)
(135.218 0 0)
(136.309 0 0)
(194.909 0 0)
(192.376 0 0)
(189.757 0 0)
(187.045 0 0)
(184.232 0 0)
(181.31 0 0)
(178.268 0 0)
(175.096 0 0)
(171.781 0 0)
(168.308 0 0)
(164.663 0 0)
(160.826 0 0)
(156.782 0 0)
(152.516 0 0)
(148.023 0 0)
(143.316 0 0)
(138.441 0 0)
(133.487 0 0)
(128.585 0 0)
(123.895 0 0)
(119.573 0 0)
(115.737 0 0)
(112.457 0 0)
(109.742 0 0)
(107.562 0 0)
(105.86 0 0)
(104.571 0 0)
(103.628 0 0)
(102.972 0 0)
(102.551 0 0)
(102.325 0 0)
(102.257 0 0)
(102.321 0 0)
(102.494 0 0)
(102.758 0 0)
(103.098 0 0)
(103.503 0 0)
(103.963 0 0)
(104.469 0 0)
(105.016 0 0)
(105.598 0 0)
(106.21 0 0)
(106.847 0 0)
(107.508 0 0)
(108.189 0 0)
(108.887 0 0)
(109.601 0 0)
(110.328 0 0)
(111.068 0 0)
(111.817 0 0)
(112.577 0 0)
(113.344 0 0)
(114.118 0 0)
(114.899 0 0)
(115.686 0 0)
(116.477 0 0)
(117.273 0 0)
(118.072 0 0)
(118.874 0 0)
(119.679 0 0)
(120.487 0 0)
(121.296 0 0)
(122.107 0 0)
(122.919 0 0)
(123.732 0 0)
(124.546 0 0)
(125.361 0 0)
(126.175 0 0)
(126.99 0 0)
(127.805 0 0)
(128.619 0 0)
(129.432 0 0)
(130.246 0 0)
(131.057 0 0)
(131.871 0 0)
(132.674 0 0)
(133.509 0 0)
(134.237 0 0)
(135.293 0 0)
(191.97 0 0)
(189.422 0 0)
(186.786 0 0)
(184.054 0 0)
(181.219 0 0)
(178.272 0 0)
(175.201 0 0)
(171.997 0 0)
(168.645 0 0)
(165.132 0 0)
(161.442 0 0)
(157.559 0 0)
(153.468 0 0)
(149.164 0 0)
(144.651 0 0)
(139.962 0 0)
(135.165 0 0)
(130.367 0 0)
(125.709 0 0)
(121.34 0 0)
(117.388 0 0)
(113.938 0 0)
(111.026 0 0)
(108.639 0 0)
(106.737 0 0)
(105.26 0 0)
(104.148 0 0)
(103.34 0 0)
(102.785 0 0)
(102.44 0 0)
(102.266 0 0)
(102.235 0 0)
(102.322 0 0)
(102.508 0 0)
(102.777 0 0)
(103.117 0 0)
(103.516 0 0)
(103.966 0 0)
(104.459 0 0)
(104.991 0 0)
(105.555 0 0)
(106.147 0 0)
(106.765 0 0)
(107.404 0 0)
(108.062 0 0)
(108.737 0 0)
(109.427 0 0)
(110.13 0 0)
(110.845 0 0)
(111.57 0 0)
(112.304 0 0)
(113.046 0 0)
(113.795 0 0)
(114.55 0 0)
(115.311 0 0)
(116.076 0 0)
(116.846 0 0)
(117.62 0 0)
(118.396 0 0)
(119.176 0 0)
(119.957 0 0)
(120.741 0 0)
(121.526 0 0)
(122.313 0 0)
(123.101 0 0)
(123.889 0 0)
(124.678 0 0)
(125.468 0 0)
(126.257 0 0)
(127.047 0 0)
(127.836 0 0)
(128.625 0 0)
(129.413 0 0)
(130.2 0 0)
(130.99 0 0)
(131.768 0 0)
(132.577 0 0)
(133.284 0 0)
(134.308 0 0)
(189.011 0 0)
(186.446 0 0)
(183.791 0 0)
(181.038 0 0)
(178.178 0 0)
(175.203 0 0)
(172.102 0 0)
(168.862 0 0)
(165.472 0 0)
(161.916 0 0)
(158.181 0 0)
(154.252 0 0)
(150.122 0 0)
(145.793 0 0)
(141.285 0 0)
(136.651 0 0)
(131.977 0 0)
(127.385 0 0)
(123.013 0 0)
(118.988 0 0)
(115.411 0 0)
(112.332 0 0)
(109.762 0 0)
(107.673 0 0)
(106.018 0 0)
(104.74 0 0)
(103.783 0 0)
(103.094 0 0)
(102.628 0 0)
(102.347 0 0)
(102.22 0 0)
(102.221 0 0)
(102.328 0 0)
(102.525 0 0)
(102.799 0 0)
(103.136 0 0)
(103.529 0 0)
(103.969 0 0)
(104.45 0 0)
(104.966 0 0)
(105.513 0 0)
(106.087 0 0)
(106.685 0 0)
(107.303 0 0)
(107.94 0 0)
(108.593 0 0)
(109.26 0 0)
(109.939 0 0)
(110.63 0 0)
(111.331 0 0)
(112.04 0 0)
(112.758 0 0)
(113.482 0 0)
(114.212 0 0)
(114.948 0 0)
(115.689 0 0)
(116.434 0 0)
(117.182 0 0)
(117.934 0 0)
(118.688 0 0)
(119.445 0 0)
(120.204 0 0)
(120.964 0 0)
(121.726 0 0)
(122.489 0 0)
(123.253 0 0)
(124.017 0 0)
(124.782 0 0)
(125.547 0 0)
(126.312 0 0)
(127.077 0 0)
(127.842 0 0)
(128.606 0 0)
(129.369 0 0)
(130.134 0 0)
(130.888 0 0)
(131.673 0 0)
(132.359 0 0)
(133.35 0 0)
(186.029 0 0)
(183.446 0 0)
(180.769 0 0)
(177.993 0 0)
(175.106 0 0)
(172.101 0 0)
(168.966 0 0)
(165.69 0 0)
(162.259 0 0)
(158.66 0 0)
(154.88 0 0)
(150.912 0 0)
(146.753 0 0)
(142.419 0 0)
(137.949 0 0)
(133.412 0 0)
(128.911 0 0)
(124.57 0 0)
(120.514 0 0)
(116.847 0 0)
(113.637 0 0)
(110.908 0 0)
(108.651 0 0)
(106.829 0 0)
(105.393 0 0)
(104.289 0 0)
(103.468 0 0)
(102.883 0 0)
(102.495 0 0)
(102.272 0 0)
(102.185 0 0)
(102.214 0 0)
(102.339 0 0)
(102.545 0 0)
(102.821 0 0)
(103.156 0 0)
(103.543 0 0)
(103.973 0 0)
(104.441 0 0)
(104.943 0 0)
(105.474 0 0)
(106.03 0 0)
(106.608 0 0)
(107.206 0 0)
(107.822 0 0)
(108.453 0 0)
(109.098 0 0)
(109.755 0 0)
(110.422 0 0)
(111.1 0 0)
(111.786 0 0)
(112.479 0 0)
(113.18 0 0)
(113.886 0 0)
(114.598 0 0)
(115.314 0 0)
(116.035 0 0)
(116.759 0 0)
(117.486 0 0)
(118.216 0 0)
(118.949 0 0)
(119.683 0 0)
(120.42 0 0)
(121.157 0 0)
(121.896 0 0)
(122.636 0 0)
(123.377 0 0)
(124.117 0 0)
(124.859 0 0)
(125.6 0 0)
(126.341 0 0)
(127.082 0 0)
(127.823 0 0)
(128.562 0 0)
(129.304 0 0)
(130.035 0 0)
(130.796 0 0)
(131.461 0 0)
(132.421 0 0)
(183.022 0 0)
(180.418 0 0)
(177.719 0 0)
(174.917 0 0)
(172.002 0 0)
(168.964 0 0)
(165.793 0 0)
(162.477 0 0)
(159.005 0 0)
(155.363 0 0)
(151.544 0 0)
(147.545 0 0)
(143.376 0 0)
(139.066 0 0)
(134.672 0 0)
(130.28 0 0)
(125.998 0 0)
(121.944 0 0)
(118.224 0 0)
(114.915 0 0)
(112.057 0 0)
(109.652 0 0)
(107.678 0 0)
(106.094 0 0)
(104.851 0 0)
(103.901 0 0)
(103.198 0 0)
(102.705 0 0)
(102.385 0 0)
(102.211 0 0)
(102.161 0 0)
(102.213 0 0)
(102.353 0 0)
(102.567 0 0)
(102.845 0 0)
(103.177 0 0)
(103.557 0 0)
(103.977 0 0)
(104.433 0 0)
(104.921 0 0)
(105.435 0 0)
(105.974 0 0)
(106.534 0 0)
(107.113 0 0)
(107.708 0 0)
(108.318 0 0)
(108.941 0 0)
(109.576 0 0)
(110.222 0 0)
(110.877 0 0)
(111.54 0 0)
(112.21 0 0)
(112.887 0 0)
(113.57 0 0)
(114.259 0 0)
(114.952 0 0)
(115.649 0 0)
(116.349 0 0)
(117.053 0 0)
(117.76 0 0)
(118.469 0 0)
(119.18 0 0)
(119.893 0 0)
(120.607 0 0)
(121.322 0 0)
(122.039 0 0)
(122.756 0 0)
(123.473 0 0)
(124.191 0 0)
(124.91 0 0)
(125.628 0 0)
(126.346 0 0)
(127.063 0 0)
(127.78 0 0)
(128.499 0 0)
(129.208 0 0)
(129.945 0 0)
(130.59 0 0)
(131.519 0 0)
(179.989 0 0)
(177.362 0 0)
(174.638 0 0)
(171.807 0 0)
(168.861 0 0)
(165.789 0 0)
(162.58 0 0)
(159.224 0 0)
(155.71 0 0)
(152.03 0 0)
(148.179 0 0)
(144.166 0 0)
(140.011 0 0)
(135.761 0 0)
(131.488 0 0)
(127.286 0 0)
(123.263 0 0)
(119.523 0 0)
(116.147 0 0)
(113.187 0 0)
(110.659 0 0)
(108.55 0 0)
(106.829 0 0)
(105.455 0 0)
(104.382 0 0)
(103.566 0 0)
(102.968 0 0)
(102.554 0 0)
(102.294 0 0)
(102.164 0 0)
(102.144 0 0)
(102.218 0 0)
(102.37 0 0)
(102.591 0 0)
(102.869 0 0)
(103.198 0 0)
(103.571 0 0)
(103.982 0 0)
(104.426 0 0)
(104.899 0 0)
(105.399 0 0)
(105.92 0 0)
(106.462 0 0)
(107.022 0 0)
(107.598 0 0)
(108.188 0 0)
(108.79 0 0)
(109.404 0 0)
(110.028 0 0)
(110.661 0 0)
(111.302 0 0)
(111.95 0 0)
(112.605 0 0)
(113.265 0 0)
(113.931 0 0)
(114.601 0 0)
(115.275 0 0)
(115.953 0 0)
(116.634 0 0)
(117.318 0 0)
(118.004 0 0)
(118.692 0 0)
(119.382 0 0)
(120.074 0 0)
(120.766 0 0)
(121.46 0 0)
(122.155 0 0)
(122.85 0 0)
(123.545 0 0)
(124.24 0 0)
(124.936 0 0)
(125.632 0 0)
(126.327 0 0)
(127.021 0 0)
(127.718 0 0)
(128.405 0 0)
(129.119 0 0)
(129.745 0 0)
(130.644 0 0)
(176.925 0 0)
(174.274 0 0)
(171.523 0 0)
(168.661 0 0)
(165.682 0 0)
(162.573 0 0)
(159.326 0 0)
(155.931 0 0)
(152.379 0 0)
(148.667 0 0)
(144.799 0 0)
(140.793 0 0)
(136.686 0 0)
(132.537 0 0)
(128.429 0 0)
(124.46 0 0)
(120.727 0 0)
(117.315 0 0)
(114.281 0 0)
(111.652 0 0)
(109.428 0 0)
(107.586 0 0)
(106.091 0 0)
(104.901 0 0)
(103.977 0 0)
(103.278 0 0)
(102.772 0 0)
(102.427 0 0)
(102.22 0 0)
(102.129 0 0)
(102.136 0 0)
(102.227 0 0)
(102.391 0 0)
(102.616 0 0)
(102.895 0 0)
(103.22 0 0)
(103.586 0 0)
(103.987 0 0)
(104.419 0 0)
(104.879 0 0)
(105.363 0 0)
(105.869 0 0)
(106.393 0 0)
(106.935 0 0)
(107.492 0 0)
(108.062 0 0)
(108.645 0 0)
(109.238 0 0)
(109.841 0 0)
(110.453 0 0)
(111.073 0 0)
(111.699 0 0)
(112.332 0 0)
(112.971 0 0)
(113.614 0 0)
(114.263 0 0)
(114.915 0 0)
(115.57 0 0)
(116.229 0 0)
(116.891 0 0)
(117.555 0 0)
(118.221 0 0)
(118.888 0 0)
(119.558 0 0)
(120.228 0 0)
(120.9 0 0)
(121.572 0 0)
(122.245 0 0)
(122.919 0 0)
(123.592 0 0)
(124.266 0 0)
(124.94 0 0)
(125.613 0 0)
(126.286 0 0)
(126.96 0 0)
(127.626 0 0)
(128.318 0 0)
(128.925 0 0)
(129.795 0 0)
(173.829 0 0)
(171.152 0 0)
(168.371 0 0)
(165.477 0 0)
(162.462 0 0)
(159.317 0 0)
(156.031 0 0)
(152.599 0 0)
(149.016 0 0)
(145.285 0 0)
(141.42 0 0)
(137.452 0 0)
(133.431 0 0)
(129.427 0 0)
(125.529 0 0)
(121.826 0 0)
(118.403 0 0)
(115.322 0 0)
(112.617 0 0)
(110.297 0 0)
(108.35 0 0)
(106.746 0 0)
(105.449 0 0)
(104.423 0 0)
(103.628 0 0)
(103.033 0 0)
(102.606 0 0)
(102.323 0 0)
(102.161 0 0)
(102.103 0 0)
(102.134 0 0)
(102.241 0 0)
(102.414 0 0)
(102.643 0 0)
(102.921 0 0)
(103.242 0 0)
(103.601 0 0)
(103.992 0 0)
(104.413 0 0)
(104.86 0 0)
(105.329 0 0)
(105.819 0 0)
(106.327 0 0)
(106.851 0 0)
(107.389 0 0)
(107.941 0 0)
(108.504 0 0)
(109.077 0 0)
(109.66 0 0)
(110.252 0 0)
(110.851 0 0)
(111.457 0 0)
(112.069 0 0)
(112.686 0 0)
(113.308 0 0)
(113.935 0 0)
(114.566 0 0)
(115.2 0 0)
(115.837 0 0)
(116.477 0 0)
(117.12 0 0)
(117.764 0 0)
(118.41 0 0)
(119.058 0 0)
(119.707 0 0)
(120.357 0 0)
(121.008 0 0)
(121.66 0 0)
(122.312 0 0)
(122.964 0 0)
(123.616 0 0)
(124.269 0 0)
(124.921 0 0)
(125.573 0 0)
(126.226 0 0)
(126.871 0 0)
(127.541 0 0)
(128.129 0 0)
(128.971 0 0)
(170.699 0 0)
(167.992 0 0)
(165.18 0 0)
(162.253 0 0)
(159.202 0 0)
(156.02 0 0)
(152.699 0 0)
(149.236 0 0)
(145.634 0 0)
(141.903 0 0)
(138.068 0 0)
(134.174 0 0)
(130.28 0 0)
(126.465 0 0)
(122.812 0 0)
(119.401 0 0)
(116.296 0 0)
(113.538 0 0)
(111.143 0 0)
(109.107 0 0)
(107.408 0 0)
(106.015 0 0)
(104.894 0 0)
(104.01 0 0)
(103.329 0 0)
(102.823 0 0)
(102.466 0 0)
(102.237 0 0)
(102.115 0 0)
(102.087 0 0)
(102.138 0 0)
(102.259 0 0)
(102.439 0 0)
(102.67 0 0)
(102.947 0 0)
(103.264 0 0)
(103.615 0 0)
(103.998 0 0)
(104.407 0 0)
(104.841 0 0)
(105.296 0 0)
(105.771 0 0)
(106.262 0 0)
(106.769 0 0)
(107.29 0 0)
(107.824 0 0)
(108.368 0 0)
(108.922 0 0)
(109.486 0 0)
(110.058 0 0)
(110.637 0 0)
(111.222 0 0)
(111.814 0 0)
(112.411 0 0)
(113.013 0 0)
(113.619 0 0)
(114.229 0 0)
(114.842 0 0)
(115.458 0 0)
(116.077 0 0)
(116.699 0 0)
(117.322 0 0)
(117.948 0 0)
(118.575 0 0)
(119.203 0 0)
(119.832 0 0)
(120.462 0 0)
(121.093 0 0)
(121.724 0 0)
(122.355 0 0)
(122.987 0 0)
(123.619 0 0)
(124.251 0 0)
(124.881 0 0)
(125.514 0 0)
(126.139 0 0)
(126.787 0 0)
(127.358 0 0)
(128.172 0 0)
(167.531 0 0)
(164.794 0 0)
(161.949 0 0)
(158.987 0 0)
(155.901 0 0)
(152.684 0 0)
(149.334 0 0)
(145.852 0 0)
(142.248 0 0)
(138.542 0 0)
(134.772 0 0)
(130.991 0 0)
(127.268 0 0)
(123.679 0 0)
(120.299 0 0)
(117.192 0 0)
(114.403 0 0)
(111.953 0 0)
(109.846 0 0)
(108.066 0 0)
(106.588 0 0)
(105.382 0 0)
(104.414 0 0)
(103.654 0 0)
(103.073 0 0)
(102.646 0 0)
(102.35 0 0)
(102.167 0 0)
(102.081 0 0)
(102.078 0 0)
(102.147 0 0)
(102.279 0 0)
(102.465 0 0)
(102.699 0 0)
(102.974 0 0)
(103.286 0 0)
(103.63 0 0)
(104.003 0 0)
(104.402 0 0)
(104.823 0 0)
(105.265 0 0)
(105.724 0 0)
(106.2 0 0)
(106.691 0 0)
(107.195 0 0)
(107.71 0 0)
(108.237 0 0)
(108.773 0 0)
(109.318 0 0)
(109.87 0 0)
(110.43 0 0)
(110.996 0 0)
(111.568 0 0)
(112.145 0 0)
(112.727 0 0)
(113.313 0 0)
(113.903 0 0)
(114.496 0 0)
(115.092 0 0)
(115.691 0 0)
(116.292 0 0)
(116.895 0 0)
(117.5 0 0)
(118.107 0 0)
(118.714 0 0)
(119.323 0 0)
(119.933 0 0)
(120.544 0 0)
(121.155 0 0)
(121.766 0 0)
(122.378 0 0)
(122.989 0 0)
(123.601 0 0)
(124.212 0 0)
(124.824 0 0)
(125.429 0 0)
(126.057 0 0)
(126.61 0 0)
(127.397 0 0)
(164.323 0 0)
(161.554 0 0)
(158.676 0 0)
(155.68 0 0)
(152.561 0 0)
(149.317 0 0)
(145.948 0 0)
(142.463 0 0)
(138.88 0 0)
(135.232 0 0)
(131.565 0 0)
(127.94 0 0)
(124.426 0 0)
(121.092 0 0)
(118.002 0 0)
(115.201 0 0)
(112.716 0 0)
(110.555 0 0)
(108.709 0 0)
(107.159 0 0)
(105.877 0 0)
(104.834 0 0)
(104 0 0)
(103.349 0 0)
(102.855 0 0)
(102.496 0 0)
(102.254 0 0)
(102.112 0 0)
(102.057 0 0)
(102.076 0 0)
(102.161 0 0)
(102.302 0 0)
(102.494 0 0)
(102.728 0 0)
(103.001 0 0)
(103.308 0 0)
(103.645 0 0)
(104.009 0 0)
(104.397 0 0)
(104.806 0 0)
(105.234 0 0)
(105.68 0 0)
(106.141 0 0)
(106.615 0 0)
(107.103 0 0)
(107.601 0 0)
(108.11 0 0)
(108.628 0 0)
(109.155 0 0)
(109.689 0 0)
(110.23 0 0)
(110.777 0 0)
(111.33 0 0)
(111.888 0 0)
(112.451 0 0)
(113.017 0 0)
(113.587 0 0)
(114.161 0 0)
(114.738 0 0)
(115.317 0 0)
(115.898 0 0)
(116.482 0 0)
(117.067 0 0)
(117.654 0 0)
(118.242 0 0)
(118.831 0 0)
(119.421 0 0)
(120.012 0 0)
(120.603 0 0)
(121.195 0 0)
(121.787 0 0)
(122.379 0 0)
(122.971 0 0)
(123.563 0 0)
(124.156 0 0)
(124.742 0 0)
(125.349 0 0)
(125.885 0 0)
(126.646 0 0)
(161.073 0 0)
(158.273 0 0)
(155.362 0 0)
(152.335 0 0)
(149.19 0 0)
(145.928 0 0)
(142.556 0 0)
(139.091 0 0)
(135.561 0 0)
(132.007 0 0)
(128.483 0 0)
(125.052 0 0)
(121.778 0 0)
(118.719 0 0)
(115.924 0 0)
(113.421 0 0)
(111.223 0 0)
(109.327 0 0)
(107.717 0 0)
(106.37 0 0)
(105.26 0 0)
(104.36 0 0)
(103.644 0 0)
(103.088 0 0)
(102.67 0 0)
(102.371 0 0)
(102.176 0 0)
(102.07 0 0)
(102.041 0 0)
(102.08 0 0)
(102.178 0 0)
(102.328 0 0)
(102.523 0 0)
(102.758 0 0)
(103.029 0 0)
(103.331 0 0)
(103.66 0 0)
(104.015 0 0)
(104.393 0 0)
(104.79 0 0)
(105.205 0 0)
(105.637 0 0)
(106.083 0 0)
(106.542 0 0)
(107.014 0 0)
(107.496 0 0)
(107.988 0 0)
(108.489 0 0)
(108.998 0 0)
(109.514 0 0)
(110.037 0 0)
(110.566 0 0)
(111.101 0 0)
(111.64 0 0)
(112.184 0 0)
(112.731 0 0)
(113.283 0 0)
(113.837 0 0)
(114.395 0 0)
(114.955 0 0)
(115.518 0 0)
(116.082 0 0)
(116.648 0 0)
(117.216 0 0)
(117.785 0 0)
(118.355 0 0)
(118.926 0 0)
(119.498 0 0)
(120.07 0 0)
(120.642 0 0)
(121.215 0 0)
(121.788 0 0)
(122.361 0 0)
(122.934 0 0)
(123.508 0 0)
(124.075 0 0)
(124.663 0 0)
(125.182 0 0)
(125.918 0 0)
(157.782 0 0)
(154.951 0 0)
(152.011 0 0)
(148.959 0 0)
(145.798 0 0)
(142.533 0 0)
(139.18 0 0)
(135.764 0 0)
(132.322 0 0)
(128.902 0 0)
(125.559 0 0)
(122.354 0 0)
(119.341 0 0)
(116.567 0 0)
(114.062 0 0)
(111.843 0 0)
(109.911 0 0)
(108.253 0 0)
(106.853 0 0)
(105.686 0 0)
(104.727 0 0)
(103.953 0 0)
(103.339 0 0)
(102.866 0 0)
(102.514 0 0)
(102.268 0 0)
(102.113 0 0)
(102.039 0 0)
(102.034 0 0)
(102.09 0 0)
(102.199 0 0)
(102.356 0 0)
(102.554 0 0)
(102.789 0 0)
(103.056 0 0)
(103.353 0 0)
(103.675 0 0)
(104.021 0 0)
(104.388 0 0)
(104.774 0 0)
(105.177 0 0)
(105.595 0 0)