/*--------------------------------*- C++ -*----------------------------------*\
| =========                 |                                                 |
| \\      /  F ield         | OpenFOAM: The Open Source CFD Toolbox           |
|  \\    /   O peration     | Version:  2312                                  |
|   \\  /    A nd           | Website:  www.openfoam.com                      |
|    \\/     M anipulation  |                                                 |
\*---------------------------------------------------------------------------*/
FoamFile
{
    version     2.0;
    format      ascii;
    arch        "LSB;label=32;scalar=64";
    class       volVectorField;
    location    "0.126";
    object      U;
}
// * * * * * * * * * * * * * * * * * * * * * * * * * * * * * * * * * * * * * //

dimensions      [0 1 -1 0 0 0 0];

internalField   nonuniform List<vector> 
31205
(
(153.206 0 0)
(149.69 0 0)
(146.089 0 0)
(142.405 0 0)
(138.647 0 0)
(134.825 0 0)
(130.96 0 0)
(127.086 0 0)
(123.249 0 0)
(119.515 0 0)
(115.965 0 0)
(112.69 0 0)
(109.774 0 0)
(107.285 0 0)
(105.263 0 0)
(103.716 0 0)
(102.626 0 0)
(101.954 0 0)
(101.652 0 0)
(101.671 0 0)
(101.96 0 0)
(102.476 0 0)
(103.179 0 0)
(104.036 0 0)
(105.02 0 0)
(106.109 0 0)
(107.283 0 0)
(108.527 0 0)
(109.829 0 0)
(111.178 0 0)
(112.566 0 0)
(113.986 0 0)
(115.431 0 0)
(116.897 0 0)
(118.38 0 0)
(119.876 0 0)
(121.383 0 0)
(122.897 0 0)
(124.418 0 0)
(125.942 0 0)
(127.469 0 0)
(128.997 0 0)
(130.526 0 0)
(132.053 0 0)
(133.579 0 0)
(135.102 0 0)
(136.622 0 0)
(138.139 0 0)
(139.652 0 0)
(141.16 0 0)
(142.663 0 0)
(144.161 0 0)
(145.654 0 0)
(147.141 0 0)
(148.623 0 0)
(150.098 0 0)
(151.567 0 0)
(153.03 0 0)
(154.486 0 0)
(155.937 0 0)
(157.38 0 0)
(158.817 0 0)
(160.247 0 0)
(161.67 0 0)
(163.087 0 0)
(164.497 0 0)
(165.9 0 0)
(167.296 0 0)
(168.685 0 0)
(170.067 0 0)
(171.443 0 0)
(172.811 0 0)
(174.174 0 0)
(175.527 0 0)
(176.88 0 0)
(178.205 0 0)
(179.588 0 0)
(180.768 0 0)
(182.541 0 0)
(150.025 0 0)
(146.528 0 0)
(142.952 0 0)
(139.302 0 0)
(135.59 0 0)
(131.831 0 0)
(128.053 0 0)
(124.297 0 0)
(120.617 0 0)
(117.086 0 0)
(113.786 0 0)
(110.799 0 0)
(108.196 0 0)
(106.027 0 0)
(104.311 0 0)
(103.042 0 0)
(102.192 0 0)
(101.719 0 0)
(101.576 0 0)
(101.717 0 0)
(102.098 0 0)
(102.678 0 0)
(103.423 0 0)
(104.306 0 0)
(105.302 0 0)
(106.391 0 0)
(107.557 0 0)
(108.787 0 0)
(110.068 0 0)
(111.393 0 0)
(112.753 0 0)
(114.142 0 0)
(115.555 0 0)
(116.987 0 0)
(118.435 0 0)
(119.895 0 0)
(121.365 0 0)
(122.842 0 0)
(124.325 0 0)
(125.812 0 0)
(127.301 0 0)
(128.791 0 0)
(130.282 0 0)
(131.771 0 0)
(133.26 0 0)
(134.746 0 0)
(136.229 0 0)
(137.708 0 0)
(139.184 0 0)
(140.656 0 0)
(142.123 0 0)
(143.585 0 0)
(145.042 0 0)
(146.494 0 0)
(147.94 0 0)
(149.381 0 0)
(150.816 0 0)
(152.244 0 0)
(153.667 0 0)
(155.083 0 0)
(156.493 0 0)
(157.897 0 0)
(159.294 0 0)
(160.685 0 0)
(162.069 0 0)
(163.446 0 0)
(164.817 0 0)
(166.182 0 0)
(167.54 0 0)
(168.891 0 0)
(170.235 0 0)
(171.573 0 0)
(172.905 0 0)
(174.228 0 0)
(175.551 0 0)
(176.847 0 0)
(178.198 0 0)
(179.354 0 0)
(181.078 0 0)
(146.699 0 0)
(143.226 0 0)
(139.683 0 0)
(136.077 0 0)
(132.425 0 0)
(128.749 0 0)
(125.084 0 0)
(121.478 0 0)
(117.994 0 0)
(114.706 0 0)
(111.692 0 0)
(109.023 0 0)
(106.751 0 0)
(104.907 0 0)
(103.492 0 0)
(102.489 0 0)
(101.865 0 0)
(101.576 0 0)
(101.579 0 0)
(101.83 0 0)
(102.292 0 0)
(102.929 0 0)
(103.712 0 0)
(104.616 0 0)
(105.621 0 0)
(106.709 0 0)
(107.865 0 0)
(109.079 0 0)
(110.34 0 0)
(111.64 0 0)
(112.972 0 0)
(114.331 0 0)
(115.712 0 0)
(117.111 0 0)
(118.524 0 0)
(119.948 0 0)
(121.382 0 0)
(122.823 0 0)
(124.269 0 0)
(125.718 0 0)
(127.17 0 0)
(128.624 0 0)
(130.077 0 0)
(131.53 0 0)
(132.981 0 0)
(134.43 0 0)
(135.877 0 0)
(137.321 0 0)
(138.761 0 0)
(140.197 0 0)
(141.628 0 0)
(143.055 0 0)
(144.477 0 0)
(145.895 0 0)
(147.307 0 0)
(148.713 0 0)
(150.114 0 0)
(151.509 0 0)
(152.898 0 0)
(154.281 0 0)
(155.659 0 0)
(157.03 0 0)
(158.395 0 0)
(159.754 0 0)
(161.106 0 0)
(162.452 0 0)
(163.792 0 0)
(165.125 0 0)
(166.452 0 0)
(167.773 0 0)
(169.087 0 0)
(170.395 0 0)
(171.697 0 0)
(172.99 0 0)
(174.283 0 0)
(175.551 0 0)
(176.87 0 0)
(178.005 0 0)
(179.68 0 0)
(143.325 0 0)
(139.882 0 0)
(136.38 0 0)
(132.831 0 0)
(129.256 0 0)
(125.685 0 0)
(122.16 0 0)
(118.737 0 0)
(115.482 0 0)
(112.468 0 0)
(109.763 0 0)
(107.422 0 0)
(105.481 0 0)
(103.949 0 0)
(102.818 0 0)
(102.06 0 0)
(101.64 0 0)
(101.516 0 0)
(101.648 0 0)
(101.997 0 0)
(102.53 0 0)
(103.217 0 0)
(104.032 0 0)
(104.954 0 0)
(105.964 0 0)
(107.049 0 0)
(108.195 0 0)
(109.393 0 0)
(110.633 0 0)
(111.909 0 0)
(113.214 0 0)
(114.544 0 0)
(115.893 0 0)
(117.259 0 0)
(118.639 0 0)
(120.029 0 0)
(121.428 0 0)
(122.833 0 0)
(124.243 0 0)
(125.657 0 0)
(127.073 0 0)
(128.49 0 0)
(129.907 0 0)
(131.324 0 0)
(132.74 0 0)
(134.153 0 0)
(135.565 0 0)
(136.973 0 0)
(138.378 0 0)
(139.779 0 0)
(141.176 0 0)
(142.569 0 0)
(143.957 0 0)
(145.34 0 0)
(146.718 0 0)
(148.092 0 0)
(149.459 0 0)
(150.822 0 0)
(152.178 0 0)
(153.529 0 0)
(154.875 0 0)
(156.214 0 0)
(157.547 0 0)
(158.875 0 0)
(160.196 0 0)
(161.511 0 0)
(162.821 0 0)
(164.124 0 0)
(165.421 0 0)
(166.711 0 0)
(167.996 0 0)
(169.274 0 0)
(170.546 0 0)
(171.81 0 0)
(173.074 0 0)
(174.314 0 0)
(175.603 0 0)
(176.714 0 0)
(178.346 0 0)
(139.957 0 0)
(136.552 0 0)
(133.102 0 0)
(129.626 0 0)
(126.148 0 0)
(122.708 0 0)
(119.353 0 0)
(116.145 0 0)
(113.149 0 0)
(110.43 0 0)
(108.044 0 0)
(106.03 0 0)
(104.404 0 0)
(103.164 0 0)
(102.29 0 0)
(101.751 0 0)
(101.51 0 0)
(101.53 0 0)
(101.774 0 0)
(102.207 0 0)
(102.8 0 0)
(103.528 0 0)
(104.369 0 0)
(105.304 0 0)
(106.318 0 0)
(107.398 0 0)
(108.533 0 0)
(109.714 0 0)
(110.934 0 0)
(112.185 0 0)
(113.464 0 0)
(114.765 0 0)
(116.084 0 0)
(117.419 0 0)
(118.765 0 0)
(120.122 0 0)
(121.487 0 0)
(122.858 0 0)
(124.233 0 0)
(125.612 0 0)
(126.993 0 0)
(128.375 0 0)
(129.758 0 0)
(131.14 0 0)
(132.52 0 0)
(133.899 0 0)
(135.276 0 0)
(136.65 0 0)
(138.021 0 0)
(139.388 0 0)
(140.751 0 0)
(142.111 0 0)
(143.465 0 0)
(144.816 0 0)
(146.161 0 0)
(147.502 0 0)
(148.837 0 0)
(150.168 0 0)
(151.493 0 0)
(152.812 0 0)
(154.126 0 0)
(155.434 0 0)
(156.737 0 0)
(158.034 0 0)
(159.325 0 0)
(160.61 0 0)
(161.889 0 0)
(163.162 0 0)
(164.429 0 0)
(165.69 0 0)
(166.946 0 0)
(168.195 0 0)
(169.438 0 0)
(170.674 0 0)
(171.909 0 0)
(173.121 0 0)
(174.381 0 0)
(175.468 0 0)
(177.059 0 0)
(136.623 0 0)
(133.269 0 0)
(129.888 0 0)
(126.503 0 0)
(123.148 0 0)
(119.866 0 0)
(116.713 0 0)
(113.747 0 0)
(111.031 0 0)
(108.619 0 0)
(106.552 0 0)
(104.85 0 0)
(103.519 0 0)
(102.543 0 0)
(101.898 0 0)
(101.55 0 0)
(101.466 0 0)
(101.608 0 0)
(101.946 0 0)
(102.45 0 0)
(103.094 0 0)
(103.856 0 0)
(104.717 0 0)
(105.661 0 0)
(106.675 0 0)
(107.748 0 0)
(108.87 0 0)
(110.034 0 0)
(111.233 0 0)
(112.461 0 0)
(113.713 0 0)
(114.986 0 0)
(116.276 0 0)
(117.58 0 0)
(118.895 0 0)
(120.219 0 0)
(121.551 0 0)
(122.888 0 0)
(124.23 0 0)
(125.575 0 0)
(126.922 0 0)
(128.271 0 0)
(129.619 0 0)
(130.967 0 0)
(132.314 0 0)
(133.659 0 0)
(135.003 0 0)
(136.343 0 0)
(137.681 0 0)
(139.015 0 0)
(140.346 0 0)
(141.672 0 0)
(142.995 0 0)
(144.313 0 0)
(145.627 0 0)
(146.936 0 0)
(148.24 0 0)
(149.539 0 0)
(150.832 0 0)
(152.121 0 0)
(153.404 0 0)
(154.682 0 0)
(155.954 0 0)
(157.221 0 0)
(158.482 0 0)
(159.738 0 0)
(160.988 0 0)
(162.232 0 0)
(163.47 0 0)
(164.702 0 0)
(165.929 0 0)
(167.149 0 0)
(168.365 0 0)
(169.572 0 0)
(170.78 0 0)
(171.964 0 0)
(173.195 0 0)
(174.258 0 0)
(175.81 0 0)
(133.346 0 0)
(130.057 0 0)
(126.763 0 0)
(123.494 0 0)
(120.288 0 0)
(117.195 0 0)
(114.27 0 0)
(111.569 0 0)
(109.147 0 0)
(107.043 0 0)
(105.284 0 0)
(103.876 0 0)
(102.813 0 0)
(102.072 0 0)
(101.627 0 0)
(101.445 0 0)
(101.494 0 0)
(101.741 0 0)
(102.158 0 0)
(102.72 0 0)
(103.405 0 0)
(104.193 0 0)
(105.069 0 0)
(106.019 0 0)
(107.031 0 0)
(108.095 0 0)
(109.204 0 0)
(110.35 0 0)
(111.528 0 0)
(112.732 0 0)
(113.959 0 0)
(115.204 0 0)
(116.465 0 0)
(117.738 0 0)
(119.023 0 0)
(120.316 0 0)
(121.616 0 0)
(122.921 0 0)
(124.23 0 0)
(125.542 0 0)
(126.856 0 0)
(128.172 0 0)
(129.487 0 0)
(130.802 0 0)
(132.117 0 0)
(133.429 0 0)
(134.74 0 0)
(136.048 0 0)
(137.353 0 0)
(138.655 0 0)
(139.954 0 0)
(141.249 0 0)
(142.54 0 0)
(143.827 0 0)
(145.11 0 0)
(146.388 0 0)
(147.661 0 0)
(148.929 0 0)
(150.193 0 0)
(151.452 0 0)
(152.705 0 0)
(153.953 0 0)
(155.196 0 0)
(156.433 0 0)
(157.666 0 0)
(158.892 0 0)
(160.113 0 0)
(161.329 0 0)
(162.538 0 0)
(163.743 0 0)
(164.941 0 0)
(166.134 0 0)
(167.321 0 0)
(168.501 0 0)
(169.681 0 0)
(170.838 0 0)
(172.041 0 0)
(173.081 0 0)
(174.595 0 0)
(130.142 0 0)
(126.937 0 0)
(123.753 0 0)
(120.625 0 0)
(117.597 0 0)
(114.719 0 0)
(112.046 0 0)
(109.626 0 0)
(107.501 0 0)
(105.698 0 0)
(104.229 0 0)
(103.091 0 0)
(102.267 0 0)
(101.734 0 0)
(101.463 0 0)
(101.423 0 0)
(101.584 0 0)
(101.919 0 0)
(102.402 0 0)
(103.012 0 0)
(103.73 0 0)
(104.539 0 0)
(105.425 0 0)
(106.377 0 0)
(107.384 0 0)
(108.438 0 0)
(109.532 0 0)
(110.66 0 0)
(111.817 0 0)
(112.998 0 0)
(114.199 0 0)
(115.417 0 0)
(116.649 0 0)
(117.894 0 0)
(119.148 0 0)
(120.411 0 0)
(121.679 0 0)
(122.953 0 0)
(124.231 0 0)
(125.511 0 0)
(126.793 0 0)
(128.077 0 0)
(129.36 0 0)
(130.644 0 0)
(131.926 0 0)
(133.207 0 0)
(134.486 0 0)
(135.762 0 0)
(137.036 0 0)
(138.307 0 0)
(139.575 0 0)
(140.839 0 0)
(142.1 0 0)
(143.356 0 0)
(144.608 0 0)
(145.856 0 0)
(147.1 0 0)
(148.338 0 0)
(149.572 0 0)
(150.802 0 0)
(152.026 0 0)
(153.245 0 0)
(154.459 0 0)
(155.668 0 0)
(156.872 0 0)
(158.07 0 0)
(159.263 0 0)
(160.45 0 0)
(161.632 0 0)
(162.809 0 0)
(163.98 0 0)
(165.146 0 0)
(166.306 0 0)
(167.459 0 0)
(168.612 0 0)
(169.743 0 0)
(170.917 0 0)
(171.935 0 0)
(173.412 0 0)
(127.029 0 0)
(123.929 0 0)
(120.88 0 0)
(117.921 0 0)
(115.097 0 0)
(112.459 0 0)
(110.053 0 0)
(107.92 0 0)
(106.088 0 0)
(104.571 0 0)
(103.371 0 0)
(102.475 0 0)
(101.864 0 0)
(101.511 0 0)
(101.389 0 0)
(101.47 0 0)
(101.726 0 0)
(102.134 0 0)
(102.672 0 0)
(103.321 0 0)
(104.065 0 0)
(104.889 0 0)
(105.782 0 0)
(106.732 0 0)
(107.733 0 0)
(108.776 0 0)
(109.855 0 0)
(110.964 0 0)
(112.099 0 0)
(113.257 0 0)
(114.433 0 0)
(115.624 0 0)
(116.829 0 0)
(118.045 0 0)
(119.27 0 0)
(120.503 0 0)
(121.742 0 0)
(122.985 0 0)
(124.232 0 0)
(125.481 0 0)
(126.733 0 0)
(127.985 0 0)
(129.238 0 0)
(130.49 0 0)
(131.741 0 0)
(132.991 0 0)
(134.239 0 0)
(135.485 0 0)
(136.729 0 0)
(137.97 0 0)
(139.207 0 0)
(140.441 0 0)
(141.672 0 0)
(142.899 0 0)
(144.122 0 0)
(145.34 0 0)
(146.555 0 0)
(147.764 0 0)
(148.97 0 0)
(150.17 0 0)
(151.366 0 0)
(152.557 0 0)
(153.743 0 0)
(154.924 0 0)
(156.1 0 0)
(157.271 0 0)
(158.436 0 0)
(159.596 0 0)
(160.751 0 0)
(161.901 0 0)
(163.045 0 0)
(164.184 0 0)
(165.318 0 0)
(166.444 0 0)
(167.571 0 0)
(168.676 0 0)
(169.823 0 0)
(170.819 0 0)
(172.259 0 0)
(124.027 0 0)
(121.057 0 0)
(118.169 0 0)
(115.404 0 0)
(112.809 0 0)
(110.427 0 0)
(108.297 0 0)
(106.448 0 0)
(104.897 0 0)
(103.647 0 0)
(102.69 0 0)
(102.01 0 0)
(101.584 0 0)
(101.387 0 0)
(101.393 0 0)
(101.575 0 0)
(101.912 0 0)
(102.381 0 0)
(102.964 0 0)
(103.644 0 0)
(104.407 0 0)
(105.242 0 0)
(106.138 0 0)
(107.086 0 0)
(108.078 0 0)
(109.108 0 0)
(110.17 0 0)
(111.261 0 0)
(112.375 0 0)
(113.509 0 0)
(114.66 0 0)
(115.826 0 0)
(117.004 0 0)
(118.193 0 0)
(119.389 0 0)
(120.593 0 0)
(121.802 0 0)
(123.016 0 0)
(124.233 0 0)
(125.453 0 0)
(126.674 0 0)
(127.896 0 0)
(129.119 0 0)
(130.341 0 0)
(131.562 0 0)
(132.782 0 0)
(134.001 0 0)
(135.217 0 0)
(136.431 0 0)
(137.642 0 0)
(138.85 0 0)
(140.055 0 0)
(141.257 0 0)
(142.455 0 0)
(143.649 0 0)
(144.839 0 0)
(146.025 0 0)
(147.207 0 0)
(148.384 0 0)
(149.557 0 0)
(150.725 0 0)
(151.888 0 0)
(153.047 0 0)
(154.201 0 0)
(155.349 0 0)
(156.493 0 0)
(157.632 0 0)
(158.766 0 0)
(159.894 0 0)
(161.017 0 0)
(162.135 0 0)
(163.248 0 0)
(164.356 0 0)
(165.457 0 0)
(166.557 0 0)
(167.637 0 0)
(168.758 0 0)
(169.731 0 0)
(171.136 0 0)
(121.159 0 0)
(118.343 0 0)
(115.641 0 0)
(113.095 0 0)
(110.745 0 0)
(108.628 0 0)
(106.774 0 0)
(105.2 0 0)
(103.912 0 0)
(102.905 0 0)
(102.166 0 0)
(101.676 0 0)
(101.411 0 0)
(101.348 0 0)
(101.461 0 0)
(101.73 0 0)
(102.133 0 0)
(102.653 0 0)
(103.272 0 0)
(103.976 0 0)
(104.755 0 0)
(105.597 0 0)
(106.493 0 0)
(107.435 0 0)
(108.417 0 0)
(109.434 0 0)
(110.48 0 0)
(111.551 0 0)
(112.644 0 0)
(113.756 0 0)
(114.883 0 0)
(116.023 0 0)
(117.175 0 0)
(118.336 0 0)
(119.505 0 0)
(120.68 0 0)
(121.861 0 0)
(123.046 0 0)
(124.234 0 0)
(125.425 0 0)
(126.617 0 0)
(127.81 0 0)
(129.003 0 0)
(130.196 0 0)
(131.388 0 0)
(132.579 0 0)
(133.769 0 0)
(134.956 0 0)
(136.142 0 0)
(137.324 0 0)
(138.504 0 0)
(139.681 0 0)
(140.854 0 0)
(142.024 0 0)
(143.19 0 0)
(144.352 0 0)
(145.511 0 0)
(146.665 0 0)
(147.815 0 0)
(148.961 0 0)
(150.102 0 0)
(151.238 0 0)
(152.37 0 0)
(153.497 0 0)
(154.62 0 0)
(155.737 0 0)
(156.85 0 0)
(157.958 0 0)
(159.06 0 0)
(160.158 0 0)
(161.25 0 0)
(162.337 0 0)
(163.42 0 0)
(164.495 0 0)
(165.57 0 0)
(166.626 0 0)
(167.721 0 0)
(168.673 0 0)
(170.043 0 0)
(118.447 0 0)
(115.811 0 0)
(113.318 0 0)
(111.007 0 0)
(108.913 0 0)
(107.064 0 0)
(105.477 0 0)
(104.162 0 0)
(103.115 0 0)
(102.327 0 0)
(101.781 0 0)
(101.455 0 0)
(101.329 0 0)
(101.379 0 0)
(101.585 0 0)
(101.926 0 0)
(102.384 0 0)
(102.945 0 0)
(103.593 0 0)
(104.317 0 0)
(105.106 0 0)
(105.951 0 0)
(106.845 0 0)
(107.78 0 0)
(108.752 0 0)
(109.754 0 0)
(110.783 0 0)
(111.835 0 0)
(112.907 0 0)
(113.996 0 0)
(115.099 0 0)
(116.214 0 0)
(117.34 0 0)
(118.475 0 0)
(119.617 0 0)
(120.766 0 0)
(121.919 0 0)
(123.076 0 0)
(124.236 0 0)
(125.398 0 0)
(126.562 0 0)
(127.727 0 0)
(128.892 0 0)
(130.056 0 0)
(131.22 0 0)
(132.383 0 0)
(133.544 0 0)
(134.704 0 0)
(135.861 0 0)
(137.016 0 0)
(138.168 0 0)
(139.317 0 0)
(140.463 0 0)
(141.606 0 0)
(142.745 0 0)
(143.88 0 0)
(145.011 0 0)
(146.139 0 0)
(147.262 0 0)
(148.382 0 0)
(149.496 0 0)
(150.607 0 0)
(151.713 0 0)
(152.814 0 0)
(153.911 0 0)
(155.002 0 0)
(156.09 0 0)
(157.172 0 0)
(158.249 0 0)
(159.321 0 0)
(160.389 0 0)
(161.451 0 0)
(162.509 0 0)
(163.56 0 0)
(164.61 0 0)
(165.642 0 0)
(166.711 0 0)
(167.642 0 0)
(168.978 0 0)
(115.915 0 0)
(113.48 0 0)
(111.214 0 0)
(109.149 0 0)
(107.313 0 0)
(105.725 0 0)
(104.392 0 0)
(103.316 0 0)
(102.487 0 0)
(101.893 0 0)
(101.515 0 0)
(101.332 0 0)
(101.324 0 0)
(101.471 0 0)
(101.753 0 0)
(102.154 0 0)
(102.659 0 0)
(103.252 0 0)
(103.924 0 0)
(104.662 0 0)
(105.458 0 0)
(106.304 0 0)
(107.194 0 0)
(108.121 0 0)
(109.08 0 0)
(110.068 0 0)
(111.08 0 0)
(112.112 0 0)
(113.163 0 0)
(114.23 0 0)
(115.31 0 0)
(116.401 0 0)
(117.502 0 0)
(118.611 0 0)
(119.727 0 0)
(120.849 0 0)
(121.975 0 0)
(123.105 0 0)
(124.238 0 0)
(125.373 0 0)
(126.509 0 0)
(127.646 0 0)
(128.783 0 0)
(129.921 0 0)
(131.057 0 0)
(132.192 0 0)
(133.326 0 0)
(134.459 0 0)
(135.589 0 0)
(136.717 0 0)
(137.842 0 0)
(138.964 0 0)
(140.083 0 0)
(141.199 0 0)
(142.312 0 0)
(143.421 0 0)
(144.527 0 0)
(145.628 0 0)
(146.726 0 0)
(147.819 0 0)
(148.908 0 0)
(149.993 0 0)
(151.074 0 0)
(152.15 0 0)
(153.221 0 0)
(154.288 0 0)
(155.35 0 0)
(156.408 0 0)
(157.461 0 0)
(158.508 0 0)
(159.551 0 0)
(160.589 0 0)
(161.623 0 0)
(162.65 0 0)
(163.676 0 0)
(164.684 0 0)
(165.728 0 0)
(166.639 0 0)
(167.941 0 0)
(113.581 0 0)
(111.365 0 0)
(109.337 0 0)
(107.522 0 0)
(105.94 0 0)
(104.599 0 0)
(103.502 0 0)
(102.643 0 0)
(102.009 0 0)
(101.584 0 0)
(101.351 0 0)
(101.291 0 0)
(101.384 0 0)
(101.612 0 0)
(101.959 0 0)
(102.411 0 0)
(102.952 0 0)
(103.573 0 0)
(104.262 0 0)
(105.01 0 0)
(105.81 0 0)
(106.655 0 0)
(107.538 0 0)
(108.456 0 0)
(109.403 0 0)
(110.375 0 0)
(111.37 0 0)
(112.383 0 0)
(113.414 0 0)
(114.458 0 0)
(115.515 0 0)
(116.582 0 0)
(117.659 0 0)
(118.743 0 0)
(119.834 0 0)
(120.929 0 0)
(122.03 0 0)
(123.133 0 0)
(124.24 0 0)
(125.348 0 0)
(126.458 0 0)
(127.568 0 0)
(128.679 0 0)
(129.789 0 0)
(130.899 0 0)
(132.008 0 0)
(133.115 0 0)
(134.221 0 0)
(135.325 0 0)
(136.426 0 0)
(137.525 0 0)
(138.622 0 0)
(139.715 0 0)
(140.805 0 0)
(141.892 0 0)
(142.976 0 0)
(144.056 0 0)
(145.132 0 0)
(146.204 0 0)
(147.273 0 0)
(148.337 0 0)
(149.397 0 0)
(150.453 0 0)
(151.504 0 0)
(152.551 0 0)
(153.594 0 0)
(154.632 0 0)
(155.665 0 0)
(156.694 0 0)
(157.718 0 0)
(158.737 0 0)
(159.751 0 0)
(160.761 0 0)
(161.764 0 0)
(162.767 0 0)
(163.752 0 0)
(164.772 0 0)
(165.662 0 0)
(166.932 0 0)
(111.463 0 0)
(109.476 0 0)
(107.69 0 0)
(106.121 0 0)
(104.781 0 0)
(103.672 0 0)
(102.789 0 0)
(102.123 0 0)
(101.66 0 0)
(101.384 0 0)
(101.276 0 0)
(101.32 0 0)
(101.498 0 0)
(101.795 0 0)
(102.196 0 0)
(102.689 0 0)
(103.261 0 0)
(103.902 0 0)
(104.604 0 0)
(105.36 0 0)
(106.161 0 0)
(107.002 0 0)
(107.879 0 0)
(108.786 0 0)
(109.719 0 0)
(110.676 0 0)
(111.653 0 0)
(112.648 0 0)
(113.657 0 0)
(114.68 0 0)
(115.715 0 0)
(116.759 0 0)
(117.812 0 0)
(118.872 0 0)
(119.937 0 0)
(121.008 0 0)
(122.083 0 0)
(123.161 0 0)
(124.242 0 0)
(125.324 0 0)
(126.408 0 0)
(127.493 0 0)
(128.577 0 0)
(129.662 0 0)
(130.746 0 0)
(131.829 0 0)
(132.911 0 0)
(133.991 0 0)
(135.069 0 0)
(136.145 0 0)
(137.219 0 0)
(138.29 0 0)
(139.358 0 0)
(140.423 0 0)
(141.485 0 0)
(142.544 0 0)
(143.599 0 0)
(144.65 0 0)
(145.698 0 0)
(146.742 0 0)
(147.782 0 0)
(148.818 0 0)
(149.85 0 0)
(150.877 0 0)
(151.9 0 0)
(152.919 0 0)
(153.933 0 0)
(154.943 0 0)
(155.948 0 0)
(156.949 0 0)
(157.945 0 0)
(158.936 0 0)
(159.922 0 0)
(160.903 0 0)
(161.883 0 0)
(162.845 0 0)
(163.841 0 0)
(164.712 0 0)
(165.949 0 0)
(109.568 0 0)
(107.816 0 0)
(106.268 0 0)
(104.936 0 0)
(103.822 0 0)
(102.924 0 0)
(102.233 0 0)
(101.739 0 0)
(101.425 0 0)
(101.276 0 0)
(101.276 0 0)
(101.408 0 0)
(101.658 0 0)
(102.013 0 0)
(102.458 0 0)
(102.984 0 0)
(103.58 0 0)
(104.238 0 0)
(104.95 0 0)
(105.709 0 0)
(106.509 0 0)
(107.346 0 0)
(108.214 0 0)
(109.109 0 0)
(110.029 0 0)
(110.97 0 0)
(111.93 0 0)
(112.905 0 0)
(113.895 0 0)
(114.897 0 0)
(115.91 0 0)
(116.931 0 0)
(117.961 0 0)
(118.997 0 0)
(120.038 0 0)
(121.085 0 0)
(122.135 0 0)
(123.188 0 0)
(124.244 0 0)
(125.301 0 0)
(126.36 0 0)
(127.419 0 0)
(128.479 0 0)
(129.539 0 0)
(130.597 0 0)
(131.655 0 0)
(132.712 0 0)
(133.767 0 0)
(134.821 0 0)
(135.872 0 0)
(136.921 0 0)
(137.967 0 0)
(139.011 0 0)
(140.052 0 0)
(141.089 0 0)
(142.124 0 0)
(143.155 0 0)
(144.183 0 0)
(145.207 0 0)
(146.227 0 0)
(147.243 0 0)
(148.255 0 0)
(149.264 0 0)
(150.268 0 0)
(151.268 0 0)
(152.263 0 0)
(153.255 0 0)
(154.241 0 0)
(155.224 0 0)
(156.201 0 0)
(157.175 0 0)
(158.143 0 0)
(159.107 0 0)
(160.065 0 0)
(161.022 0 0)
(161.963 0 0)
(162.935 0 0)
(163.788 0 0)
(164.993 0 0)
(107.9 0 0)
(106.379 0 0)
(105.062 0 0)
(103.95 0 0)
(103.044 0 0)
(102.336 0 0)
(101.816 0 0)
(101.471 0 0)
(101.287 0 0)
(101.247 0 0)
(101.338 0 0)
(101.545 0 0)
(101.856 0 0)
(102.258 0 0)
(102.74 0 0)
(103.293 0 0)
(103.909 0 0)
(104.579 0 0)
(105.297 0 0)
(106.057 0 0)
(106.855 0 0)
(107.685 0 0)
(108.543 0 0)
(109.427 0 0)
(110.333 0 0)
(111.258 0 0)
(112.2 0 0)
(113.157 0 0)
(114.127 0 0)
(115.108 0 0)
(116.099 0 0)
(117.098 0 0)
(118.105 0 0)
(119.118 0 0)
(120.137 0 0)
(121.159 0 0)
(122.186 0 0)
(123.215 0 0)
(124.246 0 0)
(125.28 0 0)
(126.314 0 0)
(127.349 0 0)
(128.384 0 0)
(129.419 0 0)
(130.454 0 0)
(131.487 0 0)
(132.52 0 0)
(133.551 0 0)
(134.58 0 0)
(135.607 0 0)
(136.632 0 0)
(137.655 0 0)
(138.674 0 0)
(139.692 0 0)
(140.706 0 0)
(141.717 0 0)
(142.724 0 0)
(143.729 0 0)
(144.729 0 0)
(145.726 0 0)
(146.72 0 0)
(147.709 0 0)
(148.695 0 0)
(149.676 0 0)
(150.653 0 0)
(151.626 0 0)
(152.595 0 0)
(153.559 0 0)
(154.519 0 0)
(155.475 0 0)
(156.426 0 0)
(157.372 0 0)
(158.314 0 0)
(159.25 0 0)
(160.186 0 0)
(161.104 0 0)
(162.054 0 0)
(162.888 0 0)
(164.063 0 0)
(106.456 0 0)
(105.158 0 0)
(104.056 0 0)
(103.148 0 0)
(102.43 0 0)
(101.891 0 0)
(101.52 0 0)
(101.305 0 0)
(101.231 0 0)
(101.285 0 0)
(101.453 0 0)
(101.723 0 0)
(102.084 0 0)
(102.526 0 0)
(103.038 0 0)
(103.613 0 0)
(104.243 0 0)
(104.922 0 0)
(105.644 0 0)
(106.403 0 0)
(107.196 0 0)
(108.019 0 0)
(108.867 0 0)
(109.738 0 0)
(110.63 0 0)
(111.539 0 0)
(112.464 0 0)
(113.402 0 0)
(114.352 0 0)
(115.313 0 0)
(116.283 0 0)
(117.261 0 0)
(118.246 0 0)
(119.237 0 0)
(120.232 0 0)
(121.232 0 0)
(122.235 0 0)
(123.241 0 0)
(124.249 0 0)
(125.258 0 0)
(126.269 0 0)
(127.281 0 0)
(128.292 0 0)
(129.304 0 0)
(130.314 0 0)
(131.324 0 0)
(132.333 0 0)
(133.341 0 0)
(134.346 0 0)
(135.35 0 0)
(136.352 0 0)
(137.351 0 0)
(138.348 0 0)
(139.342 0 0)
(140.333 0 0)
(141.321 0 0)
(142.306 0 0)
(143.288 0 0)
(144.266 0 0)
(145.24 0 0)
(146.211 0 0)
(147.178 0 0)
(148.142 0 0)
(149.101 0 0)
(150.056 0 0)
(151.007 0 0)
(151.954 0 0)
(152.897 0 0)
(153.835 0 0)
(154.769 0 0)
(155.698 0 0)
(156.623 0 0)
(157.543 0 0)
(158.458 0 0)
(159.372 0 0)
(160.27 0 0)
(161.198 0 0)
(162.013 0 0)
(163.158 0 0)
(105.226 0 0)
(104.138 0 0)
(103.235 0 0)
(102.511 0 0)
(101.959 0 0)
(101.569 0 0)
(101.328 0 0)
(101.224 0 0)
(101.245 0 0)
(101.378 0 0)
(101.612 0 0)
(101.935 0 0)
(102.338 0 0)
(102.812 0 0)
(103.348 0 0)
(103.94 0 0)
(104.581 0 0)
(105.266 0 0)
(105.989 0 0)
(106.746 0 0)
(107.533 0 0)
(108.347 0 0)
(109.185 0 0)
(110.043 0 0)
(110.92 0 0)
(111.813 0 0)
(112.721 0 0)
(113.641 0 0)
(114.572 0 0)
(115.513 0 0)
(116.463 0 0)
(117.42 0 0)
(118.383 0 0)
(119.352 0 0)
(120.325 0 0)
(121.303 0 0)
(122.283 0 0)
(123.266 0 0)
(124.252 0 0)
(125.238 0 0)
(126.226 0 0)
(127.214 0 0)
(128.203 0 0)
(129.191 0 0)
(130.179 0 0)
(131.167 0 0)
(132.153 0 0)
(133.137 0 0)
(134.12 0 0)
(135.101 0 0)
(136.08 0 0)
(137.057 0 0)
(138.031 0 0)
(139.003 0 0)
(139.972 0 0)
(140.938 0 0)
(141.9 0 0)
(142.86 0 0)
(143.816 0 0)
(144.769 0 0)
(145.718 0 0)
(146.663 0 0)
(147.605 0 0)
(148.542 0 0)
(149.476 0 0)
(150.406 0 0)
(151.331 0 0)
(152.252 0 0)
(153.169 0 0)
(154.082 0 0)
(154.99 0 0)
(155.894 0 0)
(156.794 0 0)
(157.688 0 0)
(158.581 0 0)
(159.458 0 0)
(160.364 0 0)
(161.161 0 0)
(162.278 0 0)
(104.197 0 0)
(103.303 0 0)
(102.58 0 0)
(102.02 0 0)
(101.615 0 0)
(101.354 0 0)
(101.225 0 0)
(101.217 0 0)
(101.319 0 0)
(101.519 0 0)
(101.807 0 0)
(102.174 0 0)
(102.612 0 0)
(103.112 0 0)
(103.668 0 0)
(104.273 0 0)
(104.922 0 0)
(105.61 0 0)
(106.332 0 0)
(107.085 0 0)
(107.866 0 0)
(108.67 0 0)
(109.496 0 0)
(110.342 0 0)
(111.204 0 0)
(112.081 0 0)
(112.972 0 0)
(113.874 0 0)
(114.786 0 0)
(115.708 0 0)
(116.637 0 0)
(117.574 0 0)
(118.516 0 0)
(119.464 0 0)
(120.416 0 0)
(121.371 0 0)
(122.33 0 0)
(123.291 0 0)
(124.254 0 0)
(125.219 0 0)
(126.184 0 0)
(127.15 0 0)
(128.117 0 0)
(129.083 0 0)
(130.049 0 0)
(131.013 0 0)
(131.977 0 0)
(132.94 0 0)
(133.901 0 0)
(134.86 0 0)
(135.817 0 0)
(136.772 0 0)
(137.724 0 0)
(138.674 0 0)
(139.621 0 0)
(140.565 0 0)
(141.507 0 0)
(142.445 0 0)
(143.379 0 0)
(144.311 0 0)
(145.238 0 0)
(146.163 0 0)
(147.083 0 0)
(148 0 0)
(148.913 0 0)
(149.821 0 0)
(150.726 0 0)
(151.627 0 0)
(152.523 0 0)
(153.415 0 0)
(154.303 0 0)
(155.186 0 0)
(156.065 0 0)
(156.939 0 0)
(157.811 0 0)
(158.669 0 0)
(159.554 0 0)
(160.334 0 0)
(161.421 0 0)
(103.352 0 0)
(102.634 0 0)
(102.072 0 0)
(101.657 0 0)
(101.38 0 0)
(101.231 0 0)
(101.198 0 0)
(101.272 0 0)
(101.442 0 0)
(101.698 0 0)
(102.032 0 0)
(102.436 0 0)
(102.902 0 0)
(103.423 0 0)
(103.994 0 0)
(104.609 0 0)
(105.263 0 0)
(105.952 0 0)
(106.672 0 0)
(107.42 0 0)
(108.192 0 0)
(108.987 0 0)
(109.802 0 0)
(110.634 0 0)
(111.481 0 0)
(112.342 0 0)
(113.216 0 0)
(114.1 0 0)
(114.995 0 0)
(115.897 0 0)
(116.807 0 0)
(117.724 0 0)
(118.646 0 0)
(119.573 0 0)
(120.504 0 0)
(121.438 0 0)
(122.376 0 0)
(123.316 0 0)
(124.257 0 0)
(125.2 0 0)
(126.144 0 0)
(127.089 0 0)
(128.033 0 0)
(128.978 0 0)
(129.922 0 0)
(130.865 0 0)
(131.807 0 0)
(132.748 0 0)
(133.688 0 0)
(134.625 0 0)
(135.561 0 0)
(136.495 0 0)
(137.426 0 0)
(138.355 0 0)
(139.281 0 0)
(140.204 0 0)
(141.124 0 0)
(142.041 0 0)
(142.955 0 0)
(143.866 0 0)
(144.773 0 0)
(145.677 0 0)
(146.577 0 0)
(147.473 0 0)
(148.365 0 0)
(149.254 0 0)
(150.138 0 0)
(151.018 0 0)
(151.895 0 0)
(152.767 0 0)
(153.634 0 0)
(154.498 0 0)
(155.357 0 0)
(156.211 0 0)
(157.063 0 0)
(157.901 0 0)
(158.765 0 0)
(159.528 0 0)
(160.588 0 0)
(102.674 0 0)
(102.113 0 0)
(101.693 0 0)
(101.405 0 0)
(101.239 0 0)
(101.186 0 0)
(101.235 0 0)
(101.378 0 0)
(101.606 0 0)
(101.91 0 0)
(102.282 0 0)
(102.716 0 0)
(103.204 0 0)
(103.742 0 0)
(104.325 0 0)
(104.946 0 0)
(105.603 0 0)
(106.291 0 0)
(107.008 0 0)
(107.749 0 0)
(108.513 0 0)
(109.298 0 0)
(110.1 0 0)
(110.919 0 0)
(111.752 0 0)
(112.597 0 0)
(113.454 0 0)
(114.321 0 0)
(115.197 0 0)
(116.081 0 0)
(116.972 0 0)
(117.869 0 0)
(118.772 0 0)
(119.679 0 0)
(120.589 0 0)
(121.503 0 0)
(122.42 0 0)
(123.339 0 0)
(124.26 0 0)
(125.182 0 0)
(126.105 0 0)
(127.029 0 0)
(127.952 0 0)
(128.876 0 0)
(129.799 0 0)
(130.721 0 0)
(131.643 0 0)
(132.563 0 0)
(133.481 0 0)
(134.398 0 0)
(135.313 0 0)
(136.226 0 0)
(137.137 0 0)
(138.045 0 0)
(138.95 0 0)
(139.853 0 0)
(140.753 0 0)
(141.65 0 0)
(142.544 0 0)
(143.434 0 0)
(144.321 0 0)
(145.205 0 0)
(146.085 0 0)
(146.961 0 0)
(147.834 0 0)
(148.702 0 0)
(149.567 0 0)
(150.428 0 0)
(151.284 0 0)
(152.137 0 0)
(152.985 0 0)
(153.829 0 0)
(154.668 0 0)
(155.503 0 0)
(156.336 0 0)
(157.155 0 0)
(157.999 0 0)
(158.745 0 0)
(159.778 0 0)
(102.144 0 0)
(101.723 0 0)
(101.427 0 0)
(101.248 0 0)
(101.178 0 0)
(101.207 0 0)
(101.326 0 0)
(101.528 0 0)
(101.804 0 0)
(102.147 0 0)
(102.551 0 0)
(103.009 0 0)
(103.516 0 0)
(104.067 0 0)
(104.658 0 0)
(105.284 0 0)
(105.941 0 0)
(106.627 0 0)
(107.339 0 0)
(108.073 0 0)
(108.829 0 0)
(109.602 0 0)
(110.392 0 0)
(111.197 0 0)
(112.015 0 0)
(112.846 0 0)
(113.686 0 0)
(114.536 0 0)
(115.395 0 0)
(116.261 0 0)
(117.133 0 0)
(118.011 0 0)
(118.894 0 0)
(119.781 0 0)
(120.673 0 0)
(121.567 0 0)
(122.464 0 0)
(123.363 0 0)
(124.263 0 0)
(125.165 0 0)
(126.068 0 0)
(126.971 0 0)
(127.874 0 0)
(128.777 0 0)
(129.68 0 0)
(130.582 0 0)
(131.483 0 0)
(132.383 0 0)
(133.281 0 0)
(134.178 0 0)
(135.073 0 0)
(135.966 0 0)
(136.856 0 0)
(137.744 0 0)
(138.63 0 0)
(139.513 0 0)
(140.393 0 0)
(141.27 0 0)
(142.144 0 0)
(143.015 0 0)
(143.883 0 0)
(144.747 0 0)
(145.607 0 0)
(146.464 0 0)
(147.317 0 0)
(148.167 0 0)
(149.012 0 0)
(149.854 0 0)
(150.691 0 0)
(151.524 0 0)
(152.354 0 0)
(153.178 0 0)
(153.999 0 0)
(154.815 0 0)
(155.629 0 0)
(156.429 0 0)
(157.254 0 0)
(157.984 0 0)
(158.991 0 0)
(101.745 0 0)
(101.446 0 0)
(101.258 0 0)
(101.174 0 0)
(101.185 0 0)
(101.284 0 0)
(101.462 0 0)
(101.713 0 0)
(102.03 0 0)
(102.406 0 0)
(102.836 0 0)
(103.314 0 0)
(103.835 0 0)
(104.396 0 0)
(104.992 0 0)
(105.62 0 0)
(106.277 0 0)
(106.96 0 0)
(107.665 0 0)
(108.392 0 0)
(109.138 0 0)
(109.9 0 0)
(110.678 0 0)
(111.469 0 0)
(112.273 0 0)
(113.088 0 0)
(113.912 0 0)
(114.746 0 0)
(115.587 0 0)
(116.435 0 0)
(117.289 0 0)
(118.149 0 0)
(119.013 0 0)
(119.882 0 0)
(120.754 0 0)
(121.628 0 0)
(122.506 0 0)
(123.385 0 0)
(124.266 0 0)
(125.148 0 0)
(126.031 0 0)
(126.915 0 0)
(127.798 0 0)
(128.682 0 0)
(129.565 0 0)
(130.447 0 0)
(131.328 0 0)
(132.208 0 0)
(133.087 0 0)
(133.964 0 0)
(134.84 0 0)
(135.713 0 0)
(136.584 0 0)
(137.453 0 0)
(138.319 0 0)
(139.183 0 0)
(140.044 0 0)
(140.902 0 0)
(141.757 0 0)
(142.608 0 0)
(143.457 0 0)
(144.302 0 0)
(145.144 0 0)
(145.982 0 0)
(146.816 0 0)
(147.647 0 0)
(148.473 0 0)
(149.296 0 0)
(150.115 0 0)
(150.93 0 0)
(151.74 0 0)
(152.547 0 0)
(153.349 0 0)
(154.146 0 0)
(154.942 0 0)
(155.724 0 0)
(156.529 0 0)
(157.244 0 0)
(158.225 0 0)
(101.46 0 0)
(101.266 0 0)
(101.172 0 0)
(101.169 0 0)
(101.25 0 0)
(101.408 0 0)
(101.636 0 0)
(101.928 0 0)
(102.279 0 0)
(102.682 0 0)
(103.132 0 0)
(103.626 0 0)
(104.159 0 0)
(104.727 0 0)
(105.327 0 0)
(105.955 0 0)
(106.609 0 0)
(107.287 0 0)
(107.987 0 0)
(108.705 0 0)
(109.44 0 0)
(110.191 0 0)
(110.957 0 0)
(111.735 0 0)
(112.524 0 0)
(113.323 0 0)
(114.132 0 0)
(114.949 0 0)
(115.773 0 0)
(116.604 0 0)
(117.441 0 0)
(118.283 0 0)
(119.129 0 0)
(119.979 0 0)
(120.832 0 0)
(121.688 0 0)
(122.547 0 0)
(123.407 0 0)
(124.269 0 0)
(125.132 0 0)
(125.996 0 0)
(126.861 0 0)
(127.725 0 0)
(128.589 0 0)
(129.453 0 0)
(130.316 0 0)
(131.178 0 0)
(132.039 0 0)
(132.899 0 0)
(133.757 0 0)
(134.613 0 0)
(135.468 0 0)
(136.32 0 0)
(137.17 0 0)
(138.017 0 0)
(138.862 0 0)
(139.705 0 0)
(140.544 0 0)
(141.38 0 0)
(142.213 0 0)
(143.043 0 0)
(143.87 0 0)
(144.693 0 0)
(145.513 0 0)
(146.329 0 0)
(147.141 0 0)
(147.95 0 0)
(148.755 0 0)
(149.555 0 0)
(150.352 0 0)
(151.144 0 0)
(151.933 0 0)
(152.717 0 0)
(153.496 0 0)
(154.274 0 0)
(155.039 0 0)
(155.825 0 0)
(156.524 0 0)
(157.48 0 0)
(101.273 0 0)
(101.171 0 0)
(101.156 0 0)
(101.222 0 0)
(101.362 0 0)
(101.571 0 0)
(101.841 0 0)
(102.168 0 0)
(102.546 0 0)
(102.971 0 0)
(103.438 0 0)
(103.944 0 0)
(104.485 0 0)
(105.058 0 0)
(105.659 0 0)
(106.287 0 0)
(106.938 0 0)
(107.61 0 0)
(108.302 0 0)
(109.011 0 0)
(109.737 0 0)
(110.476 0 0)
(111.229 0 0)
(111.993 0 0)
(112.769 0 0)
(113.553 0 0)
(114.346 0 0)
(115.147 0 0)
(115.955 0 0)
(116.769 0 0)
(117.589 0 0)
(118.413 0 0)
(119.241 0 0)
(120.073 0 0)
(120.909 0 0)
(121.747 0 0)
(122.587 0 0)
(123.429 0 0)
(124.273 0 0)
(125.117 0 0)
(125.962 0 0)
(126.808 0 0)
(127.654 0 0)
(128.5 0 0)
(129.345 0 0)
(130.189 0 0)
(131.033 0 0)
(131.875 0 0)
(132.717 0 0)
(133.556 0 0)
(134.394 0 0)
(135.23 0 0)
(136.064 0 0)
(136.896 0 0)
(137.725 0 0)
(138.552 0 0)
(139.376 0 0)
(140.197 0 0)
(141.015 0 0)
(141.83 0 0)
(142.642 0 0)
(143.451 0 0)
(144.256 0 0)
(145.058 0 0)
(145.856 0 0)
(146.651 0 0)
(147.442 0 0)
(148.229 0 0)
(149.012 0 0)
(149.791 0 0)
(150.566 0 0)
(151.336 0 0)
(152.103 0 0)
(152.865 0 0)
(153.625 0 0)
(154.372 0 0)
(155.141 0 0)
(155.825 0 0)
(156.756 0 0)
(101.17 0 0)
(101.146 0 0)
(101.2 0 0)
(101.325 0 0)
(101.515 0 0)
(101.766 0 0)
(102.071 0 0)
(102.426 0 0)
(102.828 0 0)
(103.27 0 0)
(103.751 0 0)
(104.266 0 0)
(104.813 0 0)
(105.389 0 0)
(105.99 0 0)
(106.615 0 0)
(107.262 0 0)
(107.928 0 0)
(108.612 0 0)
(109.312 0 0)
(110.027 0 0)
(110.755 0 0)
(111.495 0 0)
(112.246 0 0)
(113.007 0 0)
(113.777 0 0)
(114.555 0 0)
(115.34 0 0)
(116.132 0 0)
(116.929 0 0)
(117.732 0 0)
(118.539 0 0)
(119.351 0 0)
(120.165 0 0)
(120.983 0 0)
(121.804 0 0)
(122.626 0 0)
(123.45 0 0)
(124.276 0 0)
(125.102 0 0)