/*--------------------------------*- C++ -*----------------------------------*\
| =========                 |                                                 |
| \\      /  F ield         | OpenFOAM: The Open Source CFD Toolbox           |
|  \\    /   O peration     | Version:  2312                                  |
|   \\  /    A nd           | Website:  www.openfoam.com                      |
|    \\/     M anipulation  |                                                 |
\*---------------------------------------------------------------------------*/
FoamFile
{
    version     2.0;
    format      ascii;
    arch        "LSB;label=32;scalar=64";
    class       volVectorField;
    location    "0.955";
    object      U;
}
// * * * * * * * * * * * * * * * * * * * * * * * * * * * * * * * * * * * * * //

dimensions      [0 1 -1 0 0 0 0];

internalField   nonuniform List<vector> 
31205
(
(237.151 0 0)
(234.795 0 0)
(232.366 0 0)
(229.86 0 0)
(227.273 0 0)
(224.598 0 0)
(221.832 0 0)
(218.967 0 0)
(215.996 0 0)
(212.912 0 0)
(209.705 0 0)
(206.365 0 0)
(202.878 0 0)
(199.231 0 0)
(195.407 0 0)
(191.385 0 0)
(187.14 0 0)
(182.643 0 0)
(177.857 0 0)
(172.737 0 0)
(167.229 0 0)
(161.266 0 0)
(154.789 0 0)
(147.787 0 0)
(140.379 0 0)
(132.867 0 0)
(125.706 0 0)
(119.353 0 0)
(114.111 0 0)
(110.067 0 0)
(107.134 0 0)
(105.133 0 0)
(103.873 0 0)
(103.18 0 0)
(102.917 0 0)
(102.979 0 0)
(103.287 0 0)
(103.785 0 0)
(104.429 0 0)
(105.188 0 0)
(106.039 0 0)
(106.963 0 0)
(107.946 0 0)
(108.977 0 0)
(110.048 0 0)
(111.151 0 0)
(112.282 0 0)
(113.435 0 0)
(114.606 0 0)
(115.793 0 0)
(116.993 0 0)
(118.204 0 0)
(119.423 0 0)
(120.649 0 0)
(121.882 0 0)
(123.119 0 0)
(124.359 0 0)
(125.602 0 0)
(126.847 0 0)
(128.094 0 0)
(129.341 0 0)
(130.588 0 0)
(131.835 0 0)
(133.081 0 0)
(134.326 0 0)
(135.57 0 0)
(136.812 0 0)
(138.052 0 0)
(139.29 0 0)
(140.525 0 0)
(141.758 0 0)
(142.988 0 0)
(144.215 0 0)
(145.438 0 0)
(146.664 0 0)
(147.867 0 0)
(149.126 0 0)
(150.202 0 0)
(151.824 0 0)
(235.02 0 0)
(232.665 0 0)
(230.236 0 0)
(227.73 0 0)
(225.143 0 0)
(222.47 0 0)
(219.704 0 0)
(216.839 0 0)
(213.869 0 0)
(210.785 0 0)
(207.578 0 0)
(204.236 0 0)
(200.747 0 0)
(197.097 0 0)
(193.267 0 0)
(189.237 0 0)
(184.981 0 0)
(180.47 0 0)
(175.664 0 0)
(170.52 0 0)
(164.981 0 0)
(158.984 0 0)
(152.481 0 0)
(145.491 0 0)
(138.171 0 0)
(130.855 0 0)
(123.992 0 0)
(117.994 0 0)
(113.103 0 0)
(109.362 0 0)
(106.663 0 0)
(104.831 0 0)
(103.683 0 0)
(103.061 0 0)
(102.838 0 0)
(102.918 0 0)
(103.229 0 0)
(103.719 0 0)
(104.349 0 0)
(105.088 0 0)
(105.914 0 0)
(106.811 0 0)
(107.765 0 0)
(108.766 0 0)
(109.806 0 0)
(110.877 0 0)
(111.975 0 0)
(113.095 0 0)
(114.233 0 0)
(115.387 0 0)
(116.553 0 0)
(117.731 0 0)
(118.917 0 0)
(120.11 0 0)
(121.309 0 0)
(122.513 0 0)
(123.72 0 0)
(124.931 0 0)
(126.143 0 0)
(127.357 0 0)
(128.572 0 0)
(129.787 0 0)
(131.002 0 0)
(132.216 0 0)
(133.43 0 0)
(134.642 0 0)
(135.853 0 0)
(137.061 0 0)
(138.268 0 0)
(139.473 0 0)
(140.675 0 0)
(141.874 0 0)
(143.072 0 0)
(144.264 0 0)
(145.459 0 0)
(146.633 0 0)
(147.86 0 0)
(148.912 0 0)
(150.486 0 0)
(232.779 0 0)
(230.422 0 0)
(227.992 0 0)
(225.485 0 0)
(222.897 0 0)
(220.222 0 0)
(217.454 0 0)
(214.588 0 0)
(211.615 0 0)
(208.528 0 0)
(205.317 0 0)
(201.969 0 0)
(198.474 0 0)
(194.814 0 0)
(190.973 0 0)
(186.929 0 0)
(182.655 0 0)
(178.119 0 0)
(173.285 0 0)
(168.105 0 0)
(162.523 0 0)
(156.483 0 0)
(149.954 0 0)
(142.989 0 0)
(135.789 0 0)
(128.714 0 0)
(122.194 0 0)
(116.584 0 0)
(112.068 0 0)
(108.642 0 0)
(106.186 0 0)
(104.528 0 0)
(103.497 0 0)
(102.949 0 0)
(102.769 0 0)
(102.871 0 0)
(103.188 0 0)
(103.673 0 0)
(104.289 0 0)
(105.009 0 0)
(105.813 0 0)
(106.685 0 0)
(107.612 0 0)
(108.584 0 0)
(109.593 0 0)
(110.633 0 0)
(111.699 0 0)
(112.787 0 0)
(113.894 0 0)
(115.015 0 0)
(116.149 0 0)
(117.294 0 0)
(118.447 0 0)
(119.608 0 0)
(120.775 0 0)
(121.947 0 0)
(123.122 0 0)
(124.301 0 0)
(125.481 0 0)
(126.664 0 0)
(127.847 0 0)
(129.031 0 0)
(130.215 0 0)
(131.398 0 0)
(132.581 0 0)
(133.762 0 0)
(134.942 0 0)
(136.121 0 0)
(137.297 0 0)
(138.472 0 0)
(139.644 0 0)
(140.814 0 0)
(141.981 0 0)
(143.144 0 0)
(144.31 0 0)
(145.456 0 0)
(146.651 0 0)
(147.681 0 0)
(149.207 0 0)
(230.489 0 0)
(228.129 0 0)
(225.696 0 0)
(223.187 0 0)
(220.595 0 0)
(217.917 0 0)
(215.146 0 0)
(212.276 0 0)
(209.298 0 0)
(206.205 0 0)
(202.986 0 0)
(199.629 0 0)
(196.123 0 0)
(192.45 0 0)
(188.592 0 0)
(184.527 0 0)
(180.227 0 0)
(175.661 0 0)
(170.789 0 0)
(165.563 0 0)
(159.93 0 0)
(153.841 0 0)
(147.29 0 0)
(140.37 0 0)
(133.325 0 0)
(126.529 0 0)
(120.382 0 0)
(115.179 0 0)
(111.042 0 0)
(107.933 0 0)
(105.717 0 0)
(104.231 0 0)
(103.317 0 0)
(102.845 0 0)
(102.71 0 0)
(102.835 0 0)
(103.16 0 0)
(103.642 0 0)
(104.247 0 0)
(104.951 0 0)
(105.734 0 0)
(106.582 0 0)
(107.483 0 0)
(108.427 0 0)
(109.408 0 0)
(110.419 0 0)
(111.455 0 0)
(112.512 0 0)
(113.587 0 0)
(114.677 0 0)
(115.78 0 0)
(116.893 0 0)
(118.016 0 0)
(119.145 0 0)
(120.281 0 0)
(121.421 0 0)
(122.565 0 0)
(123.713 0 0)
(124.863 0 0)
(126.014 0 0)
(127.167 0 0)
(128.32 0 0)
(129.474 0 0)
(130.627 0 0)
(131.78 0 0)
(132.931 0 0)
(134.081 0 0)
(135.23 0 0)
(136.377 0 0)
(137.523 0 0)
(138.666 0 0)
(139.806 0 0)
(140.945 0 0)
(142.079 0 0)
(143.216 0 0)
(144.333 0 0)
(145.499 0 0)
(146.505 0 0)
(147.988 0 0)
(228.18 0 0)
(225.817 0 0)
(223.381 0 0)
(220.868 0 0)
(218.273 0 0)
(215.59 0 0)
(212.815 0 0)
(209.938 0 0)
(206.954 0 0)
(203.853 0 0)
(200.624 0 0)
(197.257 0 0)
(193.736 0 0)
(190.046 0 0)
(186.168 0 0)
(182.078 0 0)
(177.748 0 0)
(173.145 0 0)
(168.229 0 0)
(162.952 0 0)
(157.263 0 0)
(151.128 0 0)
(144.569 0 0)
(137.725 0 0)
(130.873 0 0)
(124.389 0 0)
(118.633 0 0)
(113.838 0 0)
(110.07 0 0)
(107.262 0 0)
(105.275 0 0)
(103.952 0 0)
(103.149 0 0)
(102.748 0 0)
(102.657 0 0)
(102.805 0 0)
(103.138 0 0)
(103.618 0 0)
(104.214 0 0)
(104.903 0 0)
(105.667 0 0)
(106.492 0 0)
(107.369 0 0)
(108.287 0 0)
(109.24 0 0)
(110.223 0 0)
(111.23 0 0)
(112.257 0 0)
(113.303 0 0)
(114.363 0 0)
(115.435 0 0)
(116.518 0 0)
(117.61 0 0)
(118.709 0 0)
(119.814 0 0)
(120.924 0 0)
(122.038 0 0)
(123.155 0 0)
(124.275 0 0)
(125.397 0 0)
(126.52 0 0)
(127.643 0 0)
(128.767 0 0)
(129.891 0 0)
(131.014 0 0)
(132.136 0 0)
(133.258 0 0)
(134.378 0 0)
(135.496 0 0)
(136.612 0 0)
(137.727 0 0)
(138.839 0 0)
(139.949 0 0)
(141.055 0 0)
(142.164 0 0)
(143.254 0 0)
(144.39 0 0)
(145.372 0 0)
(146.816 0 0)
(225.867 0 0)
(223.5 0 0)
(221.061 0 0)
(218.544 0 0)
(215.945 0 0)
(213.258 0 0)
(210.476 0 0)
(207.593 0 0)
(204.601 0 0)
(201.491 0 0)
(198.251 0 0)
(194.871 0 0)
(191.334 0 0)
(187.625 0 0)
(183.724 0 0)
(179.606 0 0)
(175.242 0 0)
(170.599 0 0)
(165.634 0 0)
(160.302 0 0)
(154.558 0 0)
(148.386 0 0)
(141.843 0 0)
(135.109 0 0)
(128.488 0 0)
(122.344 0 0)
(116.987 0 0)
(112.59 0 0)
(109.172 0 0)
(106.645 0 0)
(104.868 0 0)
(103.695 0 0)
(102.995 0 0)
(102.661 0 0)
(102.61 0 0)
(102.779 0 0)
(103.121 0 0)
(103.598 0 0)
(104.185 0 0)
(104.859 0 0)
(105.605 0 0)
(106.409 0 0)
(107.262 0 0)
(108.155 0 0)
(109.082 0 0)
(110.037 0 0)
(111.016 0 0)
(112.016 0 0)
(113.032 0 0)
(114.063 0 0)
(115.106 0 0)
(116.16 0 0)
(117.222 0 0)
(118.291 0 0)
(119.367 0 0)
(120.448 0 0)
(121.532 0 0)
(122.62 0 0)
(123.711 0 0)
(124.803 0 0)
(125.897 0 0)
(126.992 0 0)
(128.087 0 0)
(129.182 0 0)
(130.276 0 0)
(131.37 0 0)
(132.463 0 0)
(133.555 0 0)
(134.645 0 0)
(135.733 0 0)
(136.82 0 0)
(137.904 0 0)
(138.987 0 0)
(140.065 0 0)
(141.146 0 0)
(142.209 0 0)
(143.317 0 0)
(144.276 0 0)
(145.68 0 0)
(223.556 0 0)
(221.186 0 0)
(218.744 0 0)
(216.223 0 0)
(213.619 0 0)
(210.926 0 0)
(208.139 0 0)
(205.248 0 0)
(202.248 0 0)
(199.127 0 0)
(195.875 0 0)
(192.48 0 0)
(188.926 0 0)
(185.196 0 0)
(181.269 0 0)
(177.12 0 0)
(172.719 0 0)
(168.032 0 0)
(163.016 0 0)
(157.628 0 0)
(151.834 0 0)
(145.641 0 0)
(139.143 0 0)
(132.557 0 0)
(126.203 0 0)
(120.418 0 0)
(115.459 0 0)
(111.443 0 0)
(108.353 0 0)
(106.084 0 0)
(104.5 0 0)
(103.463 0 0)
(102.856 0 0)
(102.582 0 0)
(102.568 0 0)
(102.757 0 0)
(103.105 0 0)
(103.581 0 0)
(104.158 0 0)
(104.819 0 0)
(105.547 0 0)
(106.331 0 0)
(107.161 0 0)
(108.03 0 0)
(108.931 0 0)
(109.86 0 0)
(110.812 0 0)
(111.784 0 0)
(112.772 0 0)
(113.775 0 0)
(114.79 0 0)
(115.815 0 0)
(116.848 0 0)
(117.889 0 0)
(118.936 0 0)
(119.988 0 0)
(121.044 0 0)
(122.104 0 0)
(123.166 0 0)
(124.23 0 0)
(125.295 0 0)
(126.362 0 0)
(127.429 0 0)
(128.496 0 0)
(129.562 0 0)
(130.628 0 0)
(131.694 0 0)
(132.758 0 0)
(133.82 0 0)
(134.881 0 0)
(135.941 0 0)
(136.998 0 0)
(138.053 0 0)
(139.105 0 0)
(140.159 0 0)
(141.195 0 0)
(142.275 0 0)
(143.211 0 0)
(144.578 0 0)
(221.249 0 0)
(218.876 0 0)
(216.43 0 0)
(213.905 0 0)
(211.296 0 0)
(208.598 0 0)
(205.804 0 0)
(202.906 0 0)
(199.896 0 0)
(196.764 0 0)
(193.499 0 0)
(190.087 0 0)
(186.514 0 0)
(182.761 0 0)
(178.806 0 0)
(174.624 0 0)
(170.184 0 0)
(165.45 0 0)
(160.382 0 0)
(154.939 0 0)
(149.104 0 0)
(142.91 0 0)
(136.491 0 0)
(130.093 0 0)
(124.035 0 0)
(118.621 0 0)
(114.053 0 0)
(110.399 0 0)
(107.611 0 0)
(105.578 0 0)
(104.168 0 0)
(103.255 0 0)
(102.732 0 0)
(102.513 0 0)
(102.532 0 0)
(102.738 0 0)
(103.092 0 0)
(103.564 0 0)
(104.133 0 0)
(104.78 0 0)
(105.491 0 0)
(106.255 0 0)
(107.063 0 0)
(107.909 0 0)
(108.786 0 0)
(109.689 0 0)
(110.615 0 0)
(111.56 0 0)
(112.521 0 0)
(113.497 0 0)
(114.484 0 0)
(115.481 0 0)
(116.487 0 0)
(117.5 0 0)
(118.519 0 0)
(119.543 0 0)
(120.572 0 0)
(121.604 0 0)
(122.638 0 0)
(123.674 0 0)
(124.712 0 0)
(125.751 0 0)
(126.791 0 0)
(127.831 0 0)
(128.87 0 0)
(129.909 0 0)
(130.947 0 0)
(131.985 0 0)
(133.02 0 0)
(134.055 0 0)
(135.087 0 0)
(136.118 0 0)
(137.147 0 0)
(138.172 0 0)
(139.2 0 0)
(140.21 0 0)
(141.263 0 0)
(142.176 0 0)
(143.506 0 0)
(218.947 0 0)
(216.571 0 0)
(214.121 0 0)
(211.592 0 0)
(208.978 0 0)
(206.274 0 0)
(203.472 0 0)
(200.565 0 0)
(197.545 0 0)
(194.401 0 0)
(191.121 0 0)
(187.693 0 0)
(184.099 0 0)
(180.32 0 0)
(176.336 0 0)
(172.118 0 0)
(167.636 0 0)
(162.854 0 0)
(157.732 0 0)
(152.241 0 0)
(146.377 0 0)
(140.21 0 0)
(133.905 0 0)
(127.731 0 0)
(121.994 0 0)
(116.956 0 0)
(112.767 0 0)
(109.451 0 0)
(106.942 0 0)
(105.124 0 0)
(103.871 0 0)
(103.069 0 0)
(102.622 0 0)
(102.452 0 0)
(102.5 0 0)
(102.721 0 0)
(103.08 0 0)
(103.55 0 0)
(104.109 0 0)
(104.743 0 0)
(105.437 0 0)
(106.182 0 0)
(106.969 0 0)
(107.792 0 0)
(108.645 0 0)
(109.524 0 0)
(110.425 0 0)
(111.344 0 0)
(112.279 0 0)
(113.228 0 0)
(114.188 0 0)
(115.159 0 0)
(116.138 0 0)
(117.124 0 0)
(118.116 0 0)
(119.113 0 0)
(120.114 0 0)
(121.119 0 0)
(122.127 0 0)
(123.136 0 0)
(124.147 0 0)
(125.16 0 0)
(126.173 0 0)
(127.186 0 0)
(128.199 0 0)
(129.211 0 0)
(130.223 0 0)
(131.234 0 0)
(132.244 0 0)
(133.252 0 0)
(134.259 0 0)
(135.263 0 0)
(136.267 0 0)
(137.266 0 0)
(138.268 0 0)
(139.253 0 0)
(140.279 0 0)
(141.17 0 0)
(142.465 0 0)
(216.65 0 0)
(214.271 0 0)
(211.817 0 0)
(209.283 0 0)
(206.663 0 0)
(203.953 0 0)
(201.143 0 0)
(198.227 0 0)
(195.196 0 0)
(192.039 0 0)
(188.743 0 0)
(185.296 0 0)
(181.679 0 0)
(177.874 0 0)
(173.857 0 0)
(169.602 0 0)
(165.075 0 0)
(160.243 0 0)
(155.07 0 0)
(149.537 0 0)
(143.664 0 0)
(137.553 0 0)
(131.4 0 0)
(125.483 0 0)
(120.085 0 0)
(115.422 0 0)
(111.595 0 0)
(108.595 0 0)
(106.34 0 0)
(104.717 0 0)
(103.606 0 0)
(102.904 0 0)
(102.525 0 0)
(102.399 0 0)
(102.474 0 0)
(102.708 0 0)
(103.07 0 0)
(103.536 0 0)
(104.087 0 0)
(104.707 0 0)
(105.385 0 0)
(106.111 0 0)
(106.878 0 0)
(107.679 0 0)
(108.509 0 0)
(109.364 0 0)
(110.24 0 0)
(111.135 0 0)
(112.045 0 0)
(112.968 0 0)
(113.903 0 0)
(114.847 0 0)
(115.8 0 0)
(116.76 0 0)
(117.725 0 0)
(118.696 0 0)
(119.671 0 0)
(120.65 0 0)
(121.631 0 0)
(122.615 0 0)
(123.6 0 0)
(124.586 0 0)
(125.573 0 0)
(126.56 0 0)
(127.548 0 0)
(128.535 0 0)
(129.521 0 0)
(130.506 0 0)
(131.49 0 0)
(132.473 0 0)
(133.454 0 0)
(134.434 0 0)
(135.412 0 0)
(136.386 0 0)
(137.363 0 0)
(138.324 0 0)
(139.323 0 0)
(140.193 0 0)
(141.453 0 0)
(214.357 0 0)
(211.975 0 0)
(209.516 0 0)
(206.978 0 0)
(204.352 0 0)
(201.635 0 0)
(198.817 0 0)
(195.891 0 0)
(192.848 0 0)
(189.676 0 0)
(186.363 0 0)
(182.895 0 0)
(179.254 0 0)
(175.42 0 0)
(171.369 0 0)
(167.074 0 0)
(162.501 0 0)
(157.619 0 0)
(152.399 0 0)
(146.835 0 0)
(140.976 0 0)
(134.954 0 0)
(128.99 0 0)
(123.357 0 0)
(118.309 0 0)
(114.014 0 0)
(110.53 0 0)
(107.822 0 0)
(105.8 0 0)
(104.352 0 0)
(103.37 0 0)
(102.758 0 0)
(102.439 0 0)
(102.353 0 0)
(102.451 0 0)
(102.697 0 0)
(103.062 0 0)
(103.524 0 0)
(104.065 0 0)
(104.673 0 0)
(105.335 0 0)
(106.043 0 0)
(106.79 0 0)
(107.57 0 0)
(108.378 0 0)
(109.21 0 0)
(110.063 0 0)
(110.933 0 0)
(111.818 0 0)
(112.716 0 0)
(113.626 0 0)
(114.545 0 0)
(115.473 0 0)
(116.407 0 0)
(117.347 0 0)
(118.293 0 0)
(119.242 0 0)
(120.196 0 0)
(121.151 0 0)
(122.109 0 0)
(123.069 0 0)
(124.03 0 0)
(124.992 0 0)
(125.954 0 0)
(126.916 0 0)
(127.878 0 0)
(128.839 0 0)
(129.8 0 0)
(130.759 0 0)
(131.717 0 0)
(132.674 0 0)
(133.629 0 0)
(134.582 0 0)
(135.532 0 0)
(136.484 0 0)
(137.421 0 0)
(138.395 0 0)
(139.244 0 0)
(140.469 0 0)
(212.069 0 0)
(209.683 0 0)
(207.22 0 0)
(204.676 0 0)
(202.045 0 0)
(199.319 0 0)
(196.492 0 0)
(193.556 0 0)
(190.499 0 0)
(187.312 0 0)
(183.981 0 0)
(180.491 0 0)
(176.823 0 0)
(172.958 0 0)
(168.871 0 0)
(164.533 0 0)
(159.914 0 0)
(154.983 0 0)
(149.721 0 0)
(144.143 0 0)
(138.325 0 0)
(132.428 0 0)
(126.686 0 0)
(121.361 0 0)
(116.667 0 0)
(112.728 0 0)
(109.566 0 0)
(107.127 0 0)
(105.316 0 0)
(104.026 0 0)
(103.159 0 0)
(102.628 0 0)
(102.365 0 0)
(102.314 0 0)
(102.433 0 0)
(102.689 0 0)
(103.055 0 0)
(103.513 0 0)
(104.045 0 0)
(104.64 0 0)
(105.287 0 0)
(105.978 0 0)
(106.705 0 0)
(107.465 0 0)
(108.251 0 0)
(109.061 0 0)
(109.891 0 0)
(110.737 0 0)
(111.599 0 0)
(112.473 0 0)
(113.358 0 0)
(114.253 0 0)
(115.156 0 0)
(116.066 0 0)
(116.981 0 0)
(117.902 0 0)
(118.827 0 0)
(119.755 0 0)
(120.686 0 0)
(121.62 0 0)
(122.555 0 0)
(123.491 0 0)
(124.428 0 0)
(125.366 0 0)
(126.304 0 0)
(127.241 0 0)
(128.178 0 0)
(129.114 0 0)
(130.05 0 0)
(130.983 0 0)
(131.916 0 0)
(132.847 0 0)
(133.776 0 0)
(134.702 0 0)
(135.63 0 0)
(136.544 0 0)
(137.493 0 0)
(138.322 0 0)
(139.514 0 0)
(209.786 0 0)
(207.396 0 0)
(204.929 0 0)
(202.379 0 0)
(199.74 0 0)
(197.006 0 0)
(194.17 0 0)
(191.221 0 0)
(188.15 0 0)
(184.946 0 0)
(181.595 0 0)
(178.081 0 0)
(174.385 0 0)
(170.487 0 0)
(166.361 0 0)
(161.98 0 0)
(157.313 0 0)
(152.337 0 0)
(147.044 0 0)
(141.472 0 0)
(135.725 0 0)
(129.988 0 0)
(124.5 0 0)
(119.497 0 0)
(115.155 0 0)
(111.557 0 0)
(108.694 0 0)
(106.501 0 0)
(104.882 0 0)
(103.736 0 0)
(102.972 0 0)
(102.514 0 0)
(102.3 0 0)
(102.281 0 0)
(102.418 0 0)
(102.683 0 0)
(103.05 0 0)
(103.503 0 0)
(104.027 0 0)
(104.609 0 0)
(105.241 0 0)
(105.914 0 0)
(106.624 0 0)
(107.363 0 0)
(108.129 0 0)
(108.917 0 0)
(109.725 0 0)
(110.549 0 0)
(111.387 0 0)
(112.238 0 0)
(113.1 0 0)
(113.971 0 0)
(114.85 0 0)
(115.736 0 0)
(116.627 0 0)
(117.524 0 0)
(118.425 0 0)
(119.329 0 0)
(120.236 0 0)
(121.146 0 0)
(122.057 0 0)
(122.969 0 0)
(123.882 0 0)
(124.796 0 0)
(125.71 0 0)
(126.624 0 0)
(127.537 0 0)
(128.45 0 0)
(129.361 0 0)
(130.272 0 0)
(131.181 0 0)
(132.088 0 0)
(132.994 0 0)
(133.897 0 0)
(134.802 0 0)
(135.692 0 0)
(136.617 0 0)
(137.426 0 0)
(138.586 0 0)
(207.507 0 0)
(205.113 0 0)
(202.64 0 0)
(200.084 0 0)
(197.438 0 0)
(194.695 0 0)
(191.848 0 0)
(188.886 0 0)
(185.8 0 0)
(182.578 0 0)
(179.205 0 0)
(175.665 0 0)
(171.939 0 0)
(168.006 0 0)
(163.84 0 0)
(159.414 0 0)
(154.701 0 0)
(149.685 0 0)
(144.376 0 0)
(138.834 0 0)
(133.191 0 0)
(127.648 0 0)
(122.437 0 0)
(117.766 0 0)
(113.77 0 0)
(110.494 0 0)
(107.909 0 0)
(105.94 0 0)
(104.493 0 0)
(103.476 0 0)
(102.806 0 0)
(102.413 0 0)
(102.244 0 0)
(102.253 0 0)
(102.407 0 0)
(102.678 0 0)
(103.046 0 0)
(103.494 0 0)
(104.009 0 0)
(104.579 0 0)
(105.196 0 0)
(105.853 0 0)
(106.545 0 0)
(107.265 0 0)
(108.011 0 0)
(108.778 0 0)
(109.564 0 0)
(110.366 0 0)
(111.182 0 0)
(112.011 0 0)
(112.85 0 0)
(113.698 0 0)
(114.554 0 0)
(115.416 0 0)
(116.285 0 0)
(117.158 0 0)
(118.035 0 0)
(118.916 0 0)
(119.8 0 0)
(120.686 0 0)
(121.574 0 0)
(122.463 0 0)
(123.353 0 0)
(124.244 0 0)
(125.134 0 0)
(126.025 0 0)
(126.915 0 0)
(127.805 0 0)
(128.693 0 0)
(129.581 0 0)
(130.467 0 0)
(131.352 0 0)
(132.235 0 0)
(133.115 0 0)
(133.997 0 0)
(134.865 0 0)
(135.767 0 0)
(136.556 0 0)
(137.684 0 0)
(205.233 0 0)
(202.834 0 0)
(200.356 0 0)
(197.793 0 0)
(195.139 0 0)
(192.386 0 0)
(189.526 0 0)
(186.551 0 0)
(183.448 0 0)
(180.206 0 0)
(176.809 0 0)
(173.242 0 0)
(169.484 0 0)
(165.514 0 0)
(161.307 0 0)
(156.836 0 0)
(152.08 0 0)
(147.034 0 0)
(141.726 0 0)
(136.243 0 0)
(130.738 0 0)
(125.42 0 0)
(120.505 0 0)
(116.168 0 0)
(112.505 0 0)
(109.531 0 0)
(107.202 0 0)
(105.437 0 0)
(104.147 0 0)
(103.245 0 0)
(102.659 0 0)
(102.325 0 0)
(102.195 0 0)
(102.23 0 0)
(102.398 0 0)
(102.676 0 0)
(103.044 0 0)
(103.487 0 0)
(103.992 0 0)
(104.55 0 0)
(105.153 0 0)
(105.795 0 0)
(106.469 0 0)
(107.171 0 0)
(107.897 0 0)
(108.644 0 0)
(109.409 0 0)
(110.19 0 0)
(110.985 0 0)
(111.791 0 0)
(112.608 0 0)
(113.434 0 0)
(114.267 0 0)
(115.107 0 0)
(115.953 0 0)
(116.804 0 0)
(117.658 0 0)
(118.517 0 0)
(119.378 0 0)
(120.241 0 0)
(121.106 0 0)
(121.973 0 0)
(122.84 0 0)
(123.708 0 0)
(124.577 0 0)
(125.445 0 0)
(126.312 0 0)
(127.18 0 0)
(128.046 0 0)
(128.911 0 0)
(129.775 0 0)
(130.637 0 0)
(131.498 0 0)
(132.356 0 0)
(133.216 0 0)
(134.063 0 0)
(134.941 0 0)
(135.711 0 0)
(136.808 0 0)
(202.963 0 0)
(200.559 0 0)
(198.075 0 0)
(195.504 0 0)
(192.841 0 0)
(190.077 0 0)
(187.205 0 0)
(184.214 0 0)
(181.093 0 0)
(177.829 0 0)
(174.408 0 0)
(170.811 0 0)
(167.02 0 0)
(163.011 0 0)
(158.761 0 0)
(154.247 0 0)
(149.454 0 0)
(144.391 0 0)
(139.107 0 0)
(133.712 0 0)
(128.378 0 0)
(123.311 0 0)
(118.705 0 0)
(114.699 0 0)
(111.354 0 0)
(108.663 0 0)
(106.567 0 0)
(104.986 0 0)
(103.837 0 0)
(103.04 0 0)
(102.529 0 0)
(102.248 0 0)
(102.154 0 0)
(102.211 0 0)
(102.392 0 0)
(102.675 0 0)
(103.042 0 0)
(103.48 0 0)
(103.976 0 0)
(104.523 0 0)
(105.112 0 0)
(105.738 0 0)
(106.395 0 0)
(107.079 0 0)
(107.787 0 0)
(108.514 0 0)
(109.259 0 0)
(110.02 0 0)
(110.793 0 0)
(111.579 0 0)
(112.374 0 0)
(113.178 0 0)
(113.99 0 0)
(114.808 0 0)
(115.632 0 0)
(116.461 0 0)
(117.294 0 0)
(118.13 0 0)
(118.969 0 0)
(119.81 0 0)
(120.653 0 0)
(121.498 0 0)
(122.343 0 0)
(123.189 0 0)
(124.036 0 0)
(124.882 0 0)
(125.728 0 0)
(126.573 0 0)
(127.418 0 0)
(128.261 0 0)
(129.104 0 0)
(129.944 0 0)
(130.784 0 0)
(131.62 0 0)
(132.458 0 0)
(133.284 0 0)
(134.14 0 0)
(134.891 0 0)
(135.958 0 0)
(200.698 0 0)
(198.288 0 0)
(195.797 0 0)
(193.218 0 0)
(190.545 0 0)
(187.77 0 0)
(184.883 0 0)
(181.875 0 0)
(178.735 0 0)
(175.448 0 0)
(172 0 0)
(168.372 0 0)
(164.545 0 0)
(160.497 0 0)
(156.205 0 0)
(151.65 0 0)
(146.829 0 0)
(141.765 0 0)
(136.531 0 0)
(131.257 0 0)
(126.125 0 0)
(121.33 0 0)
(117.039 0 0)
(113.355 0 0)
(110.311 0 0)
(107.88 0 0)
(105.997 0 0)
(104.583 0 0)
(103.561 0 0)
(102.858 0 0)
(102.414 0 0)
(102.182 0 0)
(102.119 0 0)
(102.197 0 0)
(102.389 0 0)
(102.676 0 0)
(103.042 0 0)
(103.474 0 0)
(103.961 0 0)
(104.497 0 0)
(105.073 0 0)
(105.684 0 0)
(106.324 0 0)
(106.991 0 0)
(107.68 0 0)
(108.389 0 0)
(109.114 0 0)
(109.855 0 0)
(110.608 0 0)
(111.373 0 0)
(112.148 0 0)
(112.931 0 0)
(113.722 0 0)
(114.519 0 0)
(115.321 0 0)
(116.129 0 0)
(116.94 0 0)
(117.755 0 0)
(118.573 0 0)
(119.393 0 0)
(120.215 0 0)
(121.038 0 0)
(121.862 0 0)
(122.687 0 0)
(123.512 0 0)
(124.337 0 0)
(125.161 0 0)
(125.985 0 0)
(126.809 0 0)
(127.631 0 0)
(128.452 0 0)
(129.272 0 0)
(130.09 0 0)
(130.906 0 0)
(131.723 0 0)
(132.527 0 0)
(133.361 0 0)
(134.095 0 0)
(135.132 0 0)
(198.436 0 0)
(196.02 0 0)
(193.522 0 0)
(190.934 0 0)
(188.25 0 0)
(185.462 0 0)
(182.56 0 0)
(179.534 0 0)
(176.373 0 0)
(173.061 0 0)
(169.584 0 0)
(165.924 0 0)
(162.06 0 0)
(157.972 0 0)
(153.639 0 0)
(149.05 0 0)
(144.212 0 0)
(139.168 0 0)
(134.012 0 0)
(128.891 0 0)
(123.988 0 0)
(119.48 0 0)
(115.503 0 0)
(112.13 0 0)
(109.368 0 0)
(107.176 0 0)
(105.486 0 0)
(104.223 0 0)
(103.315 0 0)
(102.696 0 0)
(102.314 0 0)
(102.124 0 0)
(102.09 0 0)
(102.186 0 0)
(102.388 0 0)
(102.678 0 0)
(103.042 0 0)
(103.468 0 0)
(103.948 0 0)
(104.472 0 0)
(105.035 0 0)
(105.631 0 0)
(106.256 0 0)
(106.906 0 0)
(107.577 0 0)
(108.268 0 0)
(108.975 0 0)
(109.696 0 0)
(110.43 0 0)
(111.175 0 0)
(111.929 0 0)
(112.692 0 0)
(113.462 0 0)
(114.239 0 0)
(115.021 0 0)
(115.808 0 0)
(116.599 0 0)
(117.393 0 0)
(118.19 0 0)
(118.989 0 0)
(119.79 0 0)
(120.592 0 0)
(121.395 0 0)
(122.199 0 0)
(123.004 0 0)
(123.808 0 0)
(124.612 0 0)
(125.416 0 0)
(126.218 0 0)
(127.02 0 0)
(127.821 0 0)
(128.62 0 0)
(129.417 0 0)
(130.212 0 0)
(131.009 0 0)
(131.793 0 0)
(132.606 0 0)
(133.322 0 0)
(134.331 0 0)
(196.178 0 0)
(193.756 0 0)
(191.249 0 0)
(188.651 0 0)
(185.955 0 0)
(183.153 0 0)
(180.235 0 0)
(177.19 0 0)
(174.006 0 0)
(170.668 0 0)
(167.161 0 0)
(163.466 0 0)
(159.565 0 0)
(155.436 0 0)
(151.066 0 0)
(146.451 0 0)
(141.612 0 0)
(136.613 0 0)
(131.566 0 0)
(126.628 0 0)
(121.974 0 0)
(117.762 0 0)
(114.095 0 0)
(111.018 0 0)
(108.517 0 0)
(106.543 0 0)
(105.029 0 0)
(103.902 0 0)
(103.096 0 0)
(102.553 0 0)
(102.226 0 0)
(102.074 0 0)
(102.066 0 0)
(102.178 0 0)
(102.388 0 0)
(102.681 0 0)
(103.043 0 0)
(103.464 0 0)
(103.934 0 0)
(104.448 0 0)
(104.998 0 0)
(105.58 0 0)
(106.19 0 0)
(106.824 0 0)
(107.478 0 0)
(108.151 0 0)
(108.84 0 0)
(109.542 0 0)
(110.257 0 0)
(110.983 0 0)
(111.718 0 0)
(112.461 0 0)
(113.212 0 0)
(113.968 0 0)
(114.73 0 0)
(115.497 0 0)
(116.268 0 0)
(117.042 0 0)
(117.818 0 0)
(118.597 0 0)
(119.378 0 0)
(120.16 0 0)
(120.944 0 0)
(121.727 0 0)
(122.512 0 0)
(123.296 0 0)
(124.08 0 0)
(124.863 0 0)
(125.646 0 0)
(126.427 0 0)
(127.208 0 0)
(127.987 0 0)
(128.765 0 0)
(129.54 0 0)
(130.316 0 0)
(131.081 0 0)
(131.873 0 0)
(132.572 0 0)
(133.553 0 0)
(193.924 0 0)
(191.494 0 0)
(188.978 0 0)
(186.369 0 0)
(183.661 0 0)
(180.843 0 0)
(177.907 0 0)
(174.841 0 0)
(171.633 0 0)
(168.268 0 0)
(164.729 0 0)
(160.999 0 0)
(157.059 0 0)
(152.893 0 0)
(148.491 0 0)
(143.861 0 0)
(139.041 0 0)
(134.113 0 0)
(129.205 0 0)
(124.476 0 0)
(120.09 0 0)
(116.176 0 0)
(112.809 0 0)
(110.01 0 0)
(107.751 0 0)
(105.976 0 0)
(104.62 0 0)
(103.615 0 0)
(102.902 0 0)
(102.427 0 0)
(102.149 0 0)
(102.032 0 0)
(102.047 0 0)
(102.173 0 0)
(102.39 0 0)
(102.685 0 0)
(103.045 0 0)
(103.46 0 0)
(103.922 0 0)
(104.425 0 0)
(104.963 0 0)
(105.532 0 0)
(106.126 0 0)
(106.744 0 0)
(107.382 0 0)
(108.038 0 0)
(108.709 0 0)
(109.394 0 0)
(110.09 0 0)
(110.797 0 0)
(111.514 0 0)
(112.238 0 0)
(112.969 0 0)
(113.707 0 0)
(114.449 0 0)
(115.196 0 0)
(115.948 0 0)
(116.702 0 0)
(117.459 0 0)
(118.219 0 0)
(118.98 0 0)
(119.742 0 0)
(120.506 0 0)
(121.27 0 0)
(122.035 0 0)
(122.799 0 0)
(123.564 0 0)
(124.328 0 0)
(125.091 0 0)
(125.853 0 0)
(126.614 0 0)
(127.373 0 0)
(128.132 0 0)
(128.888 0 0)
(129.644 0 0)
(130.39 0 0)
(131.162 0 0)
(131.844 0 0)
(132.798 0 0)
(191.672 0 0)
(189.234 0 0)
(186.708 0 0)
(184.088 0 0)
(181.365 0 0)
(178.531 0 0)
(175.576 0 0)
(172.488 0 0)
(169.254 0 0)
(165.86 0 0)
(162.288 0 0)
(158.522 0 0)
(154.545 0 0)
(150.345 0 0)
(145.92 0 0)
(141.29 0 0)
(136.512 0 0)
(131.683 0 0)
(126.943 0 0)
(122.446 0 0)
(118.337 0 0)
(114.718 0 0)
(111.639 0 0)
(109.1 0 0)
(107.062 0 0)
(105.468 0 0)
(104.254 0 0)
(103.36 0 0)
(102.729 0 0)
(102.316 0 0)
(102.082 0 0)
(101.996 0 0)
(102.032 0 0)
(102.17 0 0)
(102.394 0 0)
(102.69 0 0)
(103.047 0 0)
(103.456 0 0)
(103.91 0 0)
(104.403 0 0)
(104.929 0 0)
(105.484 0 0)
(106.065 0 0)
(106.668 0 0)
(107.29 0 0)
(107.929 0 0)
(108.583 0 0)
(109.25 0 0)
(109.929 0 0)
(110.618 0 0)
(111.316 0 0)
(112.022 0 0)
(112.735 0 0)
(113.453 0 0)
(114.177 0 0)
(114.906 0 0)
(115.638 0 0)
(116.373 0 0)
(117.111 0 0)
(117.852 0 0)
(118.594 0 0)
(119.337 0 0)
(120.082 0 0)
(120.827 0 0)
(121.573 0 0)
(122.318 0 0)
(123.064 0 0)
(123.808 0 0)
(124.553 0 0)
(125.296 0 0)
(126.038 0 0)
(126.779 0 0)
(127.518 0 0)
(128.255 0 0)
(128.993 0 0)
(129.72 0 0)
(130.472 0 0)
(131.138 0 0)
(132.065 0 0)
(189.424 0 0)
(186.976 0 0)
(184.439 0 0)
(181.806 0 0)
(179.069 0 0)
(176.217 0 0)
(173.242 0 0)
(170.13 0 0)
(166.869 0 0)
(163.443 0 0)
(159.838 0 0)
(156.036 0 0)
(152.025 0 0)
(147.796 0 0)
(143.358 0 0)
(138.748 0 0)
(134.036 0 0)
(129.337 0 0)
(124.79 0 0)
(120.542 0 0)
(116.715 0 0)
(113.385 0 0)
(110.578 0 0)
(108.279 0 0)
(106.443 0 0)
(105.013 0 0)
(103.928 0 0)
(103.133 0 0)
(102.577 0 0)
(102.219 0 0)
(102.025 0 0)
(101.966 0 0)
(102.021 0 0)
(102.17 0 0)
(102.399 0 0)
(102.696 0 0)
(103.05 0 0)
(103.454 0 0)
(103.899 0 0)
(104.382 0 0)
(104.897 0 0)
(105.439 0 0)
(106.006 0 0)
(106.594 0 0)
(107.2 0 0)
(107.823 0 0)
(108.461 0 0)
(109.111 0 0)
(109.773 0 0)
(110.445 0 0)
(111.125 0 0)
(111.813 0 0)
(112.508 0 0)
(113.208 0 0)
(113.914 0 0)
(114.624 0 0)
(115.338 0 0)
(116.055 0 0)
(116.775 0 0)
(117.497 0 0)
(118.22 0 0)
(118.945 0 0)
(119.671 0 0)
(120.398 0 0)
(121.125 0 0)
(121.852 0 0)
(122.579 0 0)
(123.305 0 0)
(124.031 0 0)
(124.756 0 0)
(125.479 0 0)
(126.202 0 0)
(126.923 0 0)
(127.641 0 0)
(128.361 0 0)
(129.07 0 0)
(129.803 0 0)
(130.452 0 0)
(131.354 0 0)
(187.177 0 0)
(184.719 0 0)
(182.171 0 0)
(179.524 0 0)
(176.77 0 0)
(173.9 0 0)
(170.902 0 0)
(167.765 0 0)
(164.476 0 0)
(161.019 0 0)
(157.38 0 0)
(153.544 0 0)
(149.501 0 0)
(145.252 0 0)
(140.817 0 0)
(136.247 0 0)
(131.63 0 0)
(127.086 0 0)
(122.755 0 0)
(118.768 0 0)
(115.222 0 0)
(112.17 0 0)
(109.618 0 0)
(107.541 0 0)
(105.889 0 0)
(104.606 0 0)
(103.637 0 0)
(102.931 0 0)
(102.442 0 0)
(102.134 0 0)
(101.975 0 0)
(101.942 0 0)
(102.013 0 0)
(102.172 0 0)
(102.406 0 0)
(102.703 0 0)
(103.054 0 0)
(103.451 0 0)
(103.889 0 0)
(104.362 0 0)
(104.865 0 0)
(105.395 0 0)
(105.948 0 0)
(106.522 0 0)
(107.114 0 0)
(107.722 0 0)
(108.343 0 0)
(108.977 0 0)
(109.622 0 0)
(110.277 0 0)
(110.94 0 0)
(111.611 0 0)
(112.288 0 0)
(112.971 0 0)
(113.659 0 0)
(114.352 0 0)
(115.048 0 0)
(115.747 0 0)
(116.449 0 0)
(117.153 0 0)
(117.859 0 0)
(118.566 0 0)
(119.274 0 0)
(119.982 0 0)
(120.692 0 0)
(121.401 0 0)
(122.11 0 0)
(122.818 0 0)
(123.526 0 0)
(124.232 0 0)
(124.938 0 0)
(125.642 0 0)
(126.345 0 0)
(127.046 0 0)
(127.747 0 0)
(128.439 0 0)
(129.153 0 0)
(129.787 0 0)
(130.664 0 0)
(184.932 0 0)
(182.464 0 0)
(179.903 0 0)
(177.241 0 0)
(174.469 0 0)
(171.579 0 0)
(168.558 0 0)
(165.395 0 0)
(162.076 0 0)
(158.587 0 0)
(154.914 0 0)
(151.046 0 0)
(146.978 0 0)
(142.72 0 0)
(138.306 0 0)
(133.801 0 0)
(129.305 0 0)
(124.943 0 0)
(120.845 0 0)
(117.124 0 0)
(113.854 0 0)
(111.066 0 0)
(108.752 0 0)
(106.877 0 0)
(105.392 0 0)
(104.243 0 0)
(103.378 0 0)
(102.751 0 0)
(102.323 0 0)
(102.059 0 0)
(101.933 0 0)
(101.922 0 0)
(102.008 0 0)
(102.176 0 0)
(102.413 0 0)
(102.71 0 0)
(103.058 0 0)
(103.45 0 0)
(103.88 0 0)
(104.343 0 0)
(104.835 0 0)
(105.353 0 0)
(105.893 0 0)
(106.453 0 0)
(107.03 0 0)
(107.623 0 0)
(108.229 0 0)
(108.848 0 0)
(109.477 0 0)
(110.115 0 0)
(110.762 0 0)
(111.416 0 0)
(112.076 0 0)
(112.742 0 0)
(113.413 0 0)
(114.088 0 0)
(114.767 0 0)
(115.449 0 0)
(116.133 0 0)
(116.82 0 0)
(117.508 0 0)
(118.198 0 0)
(118.889 0 0)
(119.58 0 0)
(120.272 0 0)
(120.963 0 0)
(121.655 0 0)
(122.346 0 0)
(123.036 0 0)
(123.725 0 0)
(124.413 0 0)
(125.1 0 0)
(125.786 0 0)
(126.469 0 0)
(127.153 0 0)
(127.827 0 0)
(128.523 0 0)
(129.142 0 0)
(129.994 0 0)
(182.688 0 0)
(180.208 0 0)
(177.633 0 0)
(174.955 0 0)
(172.165 0 0)
(169.253 0 0)
(166.208 0 0)
(163.017 0 0)
(159.668 0 0)
(156.147 0 0)
(152.442 0 0)
(148.547 0 0)
(144.463 0 0)
(140.211 0 0)
(135.838 0 0)
(131.423 0 0)
(127.074 0 0)
(122.915 0 0)
(119.063 0 0)
(115.609 0 0)
(112.606 0 0)
(110.067 0 0)
(107.972 0 0)
(106.281 0 0)
(104.947 0 0)
(103.918 0 0)
(103.147 0 0)
(102.592 0 0)
(102.218 0 0)
(101.995 0 0)
(101.898 0 0)
(101.907 0 0)
(102.006 0 0)
(102.181 0 0)
(102.422 0 0)
(102.718 0 0)
(103.062 0 0)
(103.448 0 0)
(103.87 0 0)
(104.324 0 0)
(104.806 0 0)
(105.312 0 0)
(105.84 0 0)
(106.386 0 0)
(106.95 0 0)
(107.528 0 0)
(108.119 0 0)
(108.723 0 0)
(109.336 0 0)
(109.959 0 0)
(110.589 0 0)
(111.227 0 0)
(111.871 0 0)
(112.521 0 0)
(113.175 0 0)
(113.833 0 0)
(114.495 0 0)
(115.161 0 0)
(115.828 0 0)
(116.498 0 0)
(117.169 0 0)
(117.842 0 0)
(118.516 0 0)
(119.19 0 0)
(119.865 0 0)
(120.539 0 0)
(121.214 0 0)
(121.888 0 0)
(122.561 0 0)
(123.233 0 0)
(123.905 0 0)
(124.575 0 0)
(125.243 0 0)
(125.909 0 0)
(126.576 0 0)
(127.234 0 0)
(127.912 0 0)
(128.516 0 0)
(129.345 0 0)
(180.445 0 0)
(177.952 0 0)
(175.363 0 0)
(172.667 0 0)
(169.857 0 0)
(166.923 0 0)
(163.852 0 0)
(160.633 0 0)
(157.253 0 0)
(153.701 0 0)
(149.968 0 0)
(146.051 0 0)
(141.963 0 0)
(137.734 0 0)
(133.425 0 0)
(129.127 0 0)
(124.949 0 0)
(121.01 0 0)
(117.409 0 0)
(114.219 0 0)
(111.471 0 0)
(109.163 0 0)
(107.27 0 0)
(105.747 0 0)
(104.549 0 0)
(103.628 0 0)
(102.941 0 0)
(102.451 0 0)
(102.126 0 0)
(101.939 0 0)
(101.868 0 0)
(101.896 0 0)
(102.006 0 0)
(102.188 0 0)
(102.431 0 0)
(102.726 0 0)
(103.067 0 0)
(103.447 0 0)
(103.862 0 0)
(104.307 0 0)
(104.778 0 0)
(105.273 0 0)
(105.788 0 0)
(106.322 0 0)
(106.872 0 0)
(107.436 0 0)
(108.013 0 0)
(108.602 0 0)
(109.2 0 0)
(109.807 0 0)
(110.422 0 0)
(111.044 0 0)
(111.673 0 0)
(112.306 0 0)
(112.944 0 0)
(113.587 0 0)
(114.233 0 0)
(114.881 0 0)
(115.533 0 0)
(116.186 0 0)
(116.841 0 0)
(117.497 0 0)
(118.155 0 0)
(118.813 0 0)
(119.471 0 0)
(120.129 0 0)
(120.787 0 0)
(121.444 0 0)
(122.101 0 0)
(122.757 0 0)
(123.412 0 0)
(124.065 0 0)
(124.717 0 0)
(125.367 0 0)
(126.017 0 0)
(126.658 0 0)
(127.32 0 0)
(127.91 0 0)
(128.715 0 0)
(178.203 0 0)
(175.696 0 0)
(173.09 0 0)
(170.376 0 0)
(167.545 0 0)
(164.587 0 0)
(161.49 0 0)
(158.242 0 0)
(154.833 0 0)
(151.252 0 0)
(147.495 0 0)
(143.566 0 0)
(139.487 0 0)
(135.301 0 0)
(131.081 0 0)
(126.924 0 0)
(122.938 0 0)
(119.23 0 0)
(115.884 0 0)
(112.949 0 0)
(110.442 0 0)
(108.349 0 0)
(106.639 0 0)
(105.269 0 0)
(104.193 0 0)
(103.37 0 0)
(102.759 0 0)
(102.327 0 0)
(102.046 0 0)
(101.891 0 0)
(101.844 0 0)
(101.888 0 0)
(102.009 0 0)
(102.196 0 0)
(102.441 0 0)
(102.735 0 0)
(103.072 0 0)
(103.447 0 0)
(103.854 0 0)
(104.29 0 0)
(104.751 0 0)