/*--------------------------------*- C++ -*----------------------------------*\
| =========                 |                                                 |
| \\      /  F ield         | OpenFOAM: The Open Source CFD Toolbox           |
|  \\    /   O peration     | Version:  2206                                  |
|   \\  /    A nd           | Website:  www.openfoam.com                      |
|    \\/     M anipulation  |                                                 |
\*---------------------------------------------------------------------------*/
FoamFile
{
    version     2.0;
    format      ascii;
    arch        "LSB;label=32;scalar=64";
    class       volScalarField;
    location    "2.05";
    object      wave;
}
// * * * * * * * * * * * * * * * * * * * * * * * * * * * * * * * * * * * * * //

dimensions      [0 0 0 0 0 0 0];

internalField   nonuniform List<scalar> 
100
(
0.848031
0.753647
0.640329
0.510925
0.368685
0.217183
0.0602253
-0.0982458
-0.254249
-0.403864
-0.543334
-0.669154
-0.778163
-0.867623
-0.935287
-0.979454
-0.999015
-0.993478
-0.962983
-0.908296
-0.83079
-0.732414
-0.615637
-0.483394
-0.339007
-0.186103
-0.0285247
0.129771
0.284806
0.432686
0.569697
0.692395
0.797699
0.882962
0.946044
0.985359
0.99992
0.98936
0.953946
0.894566
0.812713
0.710443
0.590324
0.455376
0.308987
0.154836
-0.00320465
-0.161165
-0.315076
-0.461073
-0.595485
-0.714938
-0.816431
-0.897412
-0.955849
-0.990272
-0.999818
-0.984246
-0.943948
-0.879935
-0.793817
-0.687756
-0.564417
-0.426899
-0.278656
-0.123413
0.0349308
0.192397
0.34503
0.488995
0.620675
0.736762
0.834341
0.910959
0.964691
0.994189
0.99871
0.978141
0.932999
0.864419
0.774122
0.664377
0.537942
0.397993
0.248045
0.0918655
-0.0666217
-0.223435
-0.374636
-0.516424
-0.645239
-0.757844
-0.851411
-0.923588
-0.972562
-0.997104
-0.996596
-0.971051
-0.921112
-0.848032
)
;

boundaryField
{
    movingWall
    {
        type            calculated;
        value           uniform 0;
    }
    fixedWalls
    {
        type            calculated;
        value           uniform 0;
    }
    frontAndBack
    {
        type            empty;
    }
}


// ************************************************************************* //
