/*--------------------------------*- C++ -*----------------------------------*\
| =========                 |                                                 |
| \\      /  F ield         | OpenFOAM: The Open Source CFD Toolbox           |
|  \\    /   O peration     | Version:  2312                                  |
|   \\  /    A nd           | Website:  www.openfoam.com                      |
|    \\/     M anipulation  |                                                 |
\*---------------------------------------------------------------------------*/
FoamFile
{
    version     2.0;
    format      ascii;
    arch        "LSB;label=32;scalar=64";
    class       surfaceScalarField;
    location    "0.744";
    object      phi;
}
// * * * * * * * * * * * * * * * * * * * * * * * * * * * * * * * * * * * * * //

dimensions      [0 3 -1 0 0 0 0];

oriented        oriented;

internalField   nonuniform List<scalar> 
62015
(
52.5006
0.276018
-52.0456
52.9345
0.273969
53.3486
0.271568
53.7444
0.268824
54.1234
0.265744
54.4868
0.262338
54.8359
0.258611
55.1719
0.254572
55.4958
0.250227
55.8087
0.245584
56.1114
0.240648
56.405
0.235428
56.6903
0.229929
56.9681
0.224158
57.2392
0.218121
57.5043
0.211826
57.7641
0.205277
58.0193
0.198483
58.2706
0.191449
58.5185
0.184181
58.7636
0.176686
59.0065
0.168972
59.2478
0.161043
59.4878
0.152906
59.7271
0.144569
59.9662
0.136038
60.2055
0.127319
60.4454
0.118419
60.6863
0.109345
60.9286
0.100104
61.1727
0.0907018
61.4188
0.0811455
61.6674
0.0714431
61.9186
0.0616002
62.1729
0.0516248
62.4304
0.041523
62.6915
0.031303
62.9564
0.0209707
63.2253
0.010534
63.4983
0
63.7758
-0.0106244
64.0578
-0.0213309
64.3446
-0.032114
64.6363
-0.0429645
64.9329
-0.0538764
65.2347
-0.0648414
65.5418
-0.0758529
65.8541
-0.0869024
66.1718
-0.0979838
66.495
-0.109088
66.8237
-0.120209
67.1578
-0.131339
67.4975
-0.142469
67.8427
-0.153594
68.1934
-0.164704
68.5496
-0.175792
68.9112
-0.186852
69.2781
-0.197875
69.6503
-0.208855
70.0277
-0.219781
70.4101
-0.23065
70.7975
-0.241451
71.1896
-0.252178
71.5864
-0.262822
71.9876
-0.273378
72.393
-0.283837
72.8025
-0.294191
73.2157
-0.304434
73.6325
-0.314558
74.0525
-0.324554
74.4754
-0.334417
74.901
-0.344138
75.3288
-0.35371
75.7585
-0.363126
76.1899
-0.372377
76.6221
-0.381459
77.0551
-0.39036
77.4896
-0.399075
-0.40762
77.9148
51.5408
0.550497
-51.1388
51.9249
0.545967
52.292
0.540774
52.6433
0.534933
52.9801
0.528458
53.3034
0.521363
53.6144
0.51366
53.9141
0.505364
54.2034
0.496487
54.4833
0.48704
54.7545
0.477038
55.0179
0.466491
55.2743
0.455412
55.5244
0.443812
55.7689
0.431706
56.0084
0.419103
56.2436
0.406015
56.4751
0.392457
56.7035
0.378438
56.9293
0.363971
57.1531
0.34907
57.3753
0.333744
57.5964
0.318008
57.817
0.301874
58.0374
0.285353
58.258
0.268459
58.4793
0.251204
58.7017
0.233601
58.9255
0.215662
59.151
0.197402
59.3787
0.178833
59.6087
0.159968
59.8415
0.140819
60.0772
0.121402
60.3162
0.101729
60.5587
0.0818128
60.805
0.0616684
61.0552
0.0413087
61.3097
0.0207482
61.5684
0
61.8318
-0.0209216
62.0999
-0.0420023
62.3728
-0.0632288
62.6508
-0.0845865
62.9338
-0.10606
63.2221
-0.127638
63.5158
-0.149303
63.8149
-0.171042
64.1194
-0.192842
64.4295
-0.214686
64.7451
-0.23656
65.0664
-0.258451
65.3933
-0.280343
65.7258
-0.302223
66.0639
-0.324075
66.4076
-0.345885
66.7568
-0.367638
67.1115
-0.38932
67.4716
-0.410917
67.837
-0.432413
68.2077
-0.453793
68.5834
-0.475045
68.9641
-0.496154
69.3497
-0.517103
69.7399
-0.53788
70.1346
-0.55847
70.5336
-0.578858
70.9366
-0.599031
71.3436
-0.618973
71.7541
-0.638671
72.1679
-0.658111
72.5849
-0.677278
73.0046
-0.696158
73.4266
-0.714738
73.8508
-0.733002
74.2768
-0.750939
74.7035
-0.768533
75.134
-0.785755
-0.802695
75.5526
50.5892
0.823205
-50.2358
50.9274
0.815812
51.2509
0.807481
51.561
0.798231
51.8585
0.78808
52.1446
0.777046
52.4201
0.765148
52.686
0.752403
52.9431
0.738828
53.1921
0.724439
53.4338
0.709254
53.669
0.69329
53.8983
0.676562
54.1223
0.659089
54.3418
0.640887
54.5573
0.621972
54.7693
0.602362
54.9785
0.582072
55.1853
0.561122
55.3903
0.539527
55.5938
0.517305
55.7965
0.494473
55.9986
0.471049
56.2007
0.44705
56.4032
0.422496
56.6063
0.397402
56.8106
0.371788
57.0163
0.345672
57.2238
0.319072
57.4334
0.292008
57.6454
0.264497
57.8601
0.236559
58.0778
0.208213
58.2987
0.179478
58.5231
0.150374
58.7513
0.120919
58.9833
0.0911353
59.2196
0.0610402
59.4601
0.0306556
59.7052
0
59.955
-0.0309058
60.2096
-0.062041
60.4692
-0.0933856
60.7339
-0.124919
61.0038
-0.156622
61.2791
-0.188471
61.5597
-0.220448
61.8459
-0.252531
62.1376
-0.284699
62.435
-0.316931
62.7379
-0.349206
63.0466
-0.381504
63.361
-0.413802
63.681
-0.446082
64.0068
-0.47832
64.3381
-0.510496
64.6752
-0.542588
65.0177
-0.574577
65.3658
-0.60644
65.7193
-0.638157
66.0782
-0.669706
66.4423
-0.701067
66.8115
-0.732219
67.1858
-0.763141
67.5648
-0.793812
67.9486
-0.82421
68.3368
-0.854317
68.7294
-0.88411
69.1261
-0.91357
69.5267
-0.942676
69.931
-0.971407
70.3386
-0.999744
70.7494
-1.02766
71.1631
-1.05515
71.5793
-1.08218
71.9978
-1.10874
72.4174
-1.13481
72.8423
-1.16032
-1.18548
73.2532
49.6309
1.09368
-49.3213
49.9276
1.08311
50.2116
1.07135
50.4842
1.05843
50.7461
1.04436
50.9981
1.02919
51.2413
1.01291
51.4762
0.995558
51.7037
0.97715
51.9244
0.957708
52.139
0.937252
52.3482
0.915802
52.5525
0.893379
52.7526
0.870003
52.949
0.845697
53.1422
0.820479
53.3328
0.794373
53.5212
0.767398
53.708
0.739577
53.8936
0.71093
54.0784
0.681481
54.2628
0.65125
54.4472
0.620261
54.6321
0.588535
54.8177
0.556095
55.0045
0.522965
55.1928
0.489167
55.3829
0.454725
55.5751
0.419663
55.7697
0.384003
55.967
0.347772
56.1672
0.310992
56.3707
0.273688
56.5776
0.235886
56.7882
0.197609
57.0027
0.158883
57.2213
0.119734
57.4441
0.0801865
57.6715
0.0402666
57.9035
0
58.1403
-0.0405873
58.3821
-0.0814689
58.6289
-0.122619
58.8809
-0.16401
59.1382
-0.205617
59.4009
-0.247413
59.6691
-0.28937
59.9428
-0.331463
60.2222
-0.373663
60.5072
-0.415945
60.7979
-0.458281
61.0943
-0.500643
61.3965
-0.543005
61.7044
-0.58534
62.018
-0.627621
62.3374
-0.669819
62.6624
-0.711909
62.9931
-0.753863
63.3294
-0.795653
63.6712
-0.837254
64.0184
-0.878637
64.3709
-0.919775
64.7287
-0.960642
65.0916
-1.00121
65.4595
-1.04146
65.8322
-1.08135
66.2096
-1.12086
66.5916
-1.15997
66.9778
-1.19865
67.3682
-1.23688
67.7625
-1.27462
68.1605
-1.31185
68.562
-1.34854
68.9666
-1.38468
69.3741
-1.42023
69.7846
-1.45516
70.1961
-1.48948
70.6143
-1.52306
-1.55626
71.017
48.6616
1.36145
-48.3913
48.9209
1.34743
49.1694
1.332
49.4081
1.31519
49.6377
1.29703
49.859
1.27754
50.0727
1.25674
50.2795
1.23466
50.4801
1.21132
50.675
1.18674
50.8649
1.16094
51.0503
1.13396
51.2318
1.10582
51.4099
1.07653
51.5851
1.04613
51.7579
1.01463
51.9288
0.982069
52.0981
0.948465
52.2665
0.913843
52.4341
0.878231
52.6015
0.841654
52.7691
0.804138
52.9371
0.765709
53.106
0.726395
53.276
0.686222
53.4476
0.645219
53.621
0.603412
53.7965
0.560831
53.9744
0.517502
54.155
0.473456
54.3385
0.42872
54.5251
0.383324
54.7152
0.337299
54.9089
0.290672
55.1065
0.243475
55.3082
0.195738
55.514
0.147491
55.7243
0.0987646
55.9392
0.0495905
56.1588
0
56.3833
-0.0499759
56.6128
-0.100306
56.8474
-0.150957
57.0873
-0.201899
57.3326
-0.253099
57.5833
-0.304524
57.8395
-0.356143
58.1013
-0.407923
58.3687
-0.459831
58.6418
-0.511835
58.9207
-0.563902
59.2053
-0.615999
59.4957
-0.668093
59.7919
-0.720152
60.0938
-0.772142
60.4014
-0.824032
60.7148
-0.875787
61.0339
-0.927376
61.3586
-0.978764
61.6889
-1.02992
62.0246
-1.08081
62.3658
-1.13141
62.7123
-1.18167
63.064
-1.23157
63.4207
-1.28108
63.7825
-1.33016
64.149
-1.37878
64.5203
-1.42691
64.896
-1.47452
65.276
-1.52157
65.6602
-1.56804
66.0483
-1.61389
66.4401
-1.6591
66.8353
-1.70362
67.2338
-1.74744
67.6355
-1.79052
68.0385
-1.83285
68.4493
-1.87427
-1.9153
68.8433
47.6818
1.62609
-47.4468
47.9075
1.6084
48.1241
1.58911
48.3322
1.56825
48.5327
1.54583
48.7262
1.52189
48.9133
1.49646
49.0947
1.46955
49.2708
1.44119
49.4423
1.41142
49.6096
1.38025
49.7734
1.34771
49.9341
1.31384
50.0921
1.27865
50.248
1.24217
50.4021
1.20443
50.5548
1.16547
50.7067
1.1253
50.8581
1.08396
51.0093
1.04147
51.1607
0.997875
51.3126
0.953191
51.4655
0.907455
51.6196
0.860695
51.7752
0.812943
51.9326
0.764231
52.0922
0.71459
52.2541
0.664054
52.4187
0.612655
52.5862
0.560426
52.7568
0.507399
52.9308
0.45361
53.1084
0.399093
53.2897
0.34388
53.4751
0.288009
53.6646
0.231514
53.8585
0.174429
54.0569
0.116791
54.2599
0.0586362
54.4678
0
54.6806
-0.0590808
54.8985
-0.11857
55.1216
-0.178429
55.35
-0.238623
55.5837
-0.299114
55.823
-0.359863
56.0677
-0.420835
56.3181
-0.48199
56.5741
-0.543292
56.8359
-0.604701
57.1033
-0.666181
57.3766
-0.727693
57.6556
-0.789199
57.9404
-0.850661
58.231
-0.91204
58.5273
-0.973299
58.8294
-1.0344
59.1371
-1.0953
59.4505
-1.15597
59.7696
-1.21637
60.0941
-1.27645
60.4241
-1.33619
60.7595
-1.39554
61.1001
-1.45446
61.4459
-1.51293
61.7968
-1.57089
62.1526
-1.62832
62.5131
-1.68518
62.8783
-1.74143
63.248
-1.79704
63.6219
-1.85196
63.9999
-1.90616
64.3819
-1.95962
64.7676
-2.01228
65.1566
-2.06412
65.5493
-2.1151
65.9434
-2.16522
66.3461
-2.21425
-2.26291
66.7311
46.6942
1.88725
-46.4907
46.8897
1.86572
47.0775
1.84241
47.2582
1.81735
47.4325
1.79056
47.6008
1.76207
47.7639
1.73191
47.9221
1.70011
48.0761
1.66669
48.2263
1.63168
48.3732
1.59511
48.5173
1.55701
48.659
1.51741
48.7987
1.47634
48.9368
1.43382
49.0738
1.3899
49.2101
1.34459
49.3459
1.29794
49.4816
1.24996
49.6177
1.20071
49.7544
1.1502
49.892
1.09847
50.0309
1.04556
50.1713
0.991497
50.3135
0.936321
50.4579
0.880066
50.6046
0.822766
50.7539
0.76446
50.9061
0.705183
51.0614
0.644972
51.22
0.583866
51.3822
0.521901
51.548
0.459118
51.7178
0.395554
51.8917
0.331248
52.0698
0.266241
52.2524
0.200573
52.4396
0.134282
52.6315
0.0674114
52.8283
0
53.0301
-0.0679103
53.237
-0.136277
53.4491
-0.205061
53.6665
-0.274218
53.8893
-0.343707
54.1176
-0.413485
54.3514
-0.483511
54.5909
-0.55374
54.836
-0.624131
55.0868
-0.694641
55.3433
-0.765227
55.6056
-0.835845
55.8737
-0.906452
56.1475
-0.977006
56.4271
-1.04746
56.7125
-1.11778
57.0036
-1.18791
57.3004
-1.25782
57.6029
-1.32746
57.9109
-1.39679
58.2245
-1.46576
58.5436
-1.53433
58.8681
-1.60247
59.1979
-1.67012
59.533
-1.73725
59.8731
-1.80381
60.2182
-1.86976
60.5682
-1.93507
60.9228
-1.99968
61.2821
-2.06356
61.6458
-2.12667
62.0137
-2.18896
62.3857
-2.2504
62.7616
-2.31095
63.1411
-2.37057
63.5245
-2.4292
63.9094
-2.48688
64.3036
-2.54331
-2.59938
64.6793
45.7019
2.14463
-45.5267
45.8703
2.11912
46.0322
2.09167
46.1882
2.0623
46.3387
2.03104
46.4844
1.99793
46.6257
1.96299
46.763
1.92624
46.8969
1.88772
47.0278
1.84746
47.1561
1.80549
47.2822
1.76184
47.4066
1.71654
47.5296
1.66962
47.6516
1.62111
47.773
1.57105
47.894
1.51948
48.0151
1.46642
48.1366
1.41191
48.2587
1.35598
48.3819
1.29868
48.5063
1.24003
48.6322
1.18008
48.76
1.11887
48.8899
1.05642
49.0222
0.99279
49.157
0.928006
49.2946
0.862112
49.4353
0.795148
49.5792
0.727155
49.7266
0.658174
49.8777
0.588249
50.0326
0.517421
50.1915
0.445733
50.3546
0.373228
50.5221
0.29995
50.6941
0.225944
50.8707
0.151253
51.0521
0.0759236
51.2384
0
51.4298
-0.0764721
51.6262
-0.153447
51.8279
-0.230878
52.0349
-0.308719
52.2473
-0.386923
52.4652
-0.465444
52.6886
-0.544234
52.9176
-0.623246
53.1523
-0.702434
53.3926
-0.781747
53.6387
-0.861141
53.8904
-0.940567
54.148
-1.01998
54.4112
-1.09932
54.6803
-1.17856
54.955
-1.25763
55.2355
-1.3365
55.5217
-1.41511
55.8135
-1.49342
56.1109
-1.57138
56.4139
-1.64895
56.7223
-1.72607
57.0362
-1.80269
57.3554
-1.87878
57.6798
-1.95428
58.0094
-2.02916
58.3439
-2.10335
58.6835
-2.17682
59.0278
-2.24952
59.3767
-2.32141
59.7302
-2.39244
60.088
-2.46256
60.45
-2.53174
60.8161
-2.59992
61.1858
-2.66708
61.5598
-2.73313
61.9353
-2.79814
62.3205
-2.86173
-2.92501
62.687
44.7079
2.398
-44.5582
44.852
2.3684
44.9906
2.33671
45.1242
2.30295
45.2534
2.26716
45.3785
2.22937
45.5001
2.1896
45.6185
2.14788
45.7342
2.10425
45.8476
2.05874
45.959
2.01137
46.0688
1.96219
46.1774
1.91122
46.2852
1.8585
46.3924
1.80406
46.4995
1.74794
46.6066
1.69017
46.7143
1.63079
46.8226
1.56984
46.932
1.50736
47.0426
1.44338
47.1549
1.37795
47.2689
1.3111
47.3851
1.24288
47.5035
1.17332
47.6245
1.10247
47.7483
1.03038
47.8751
0.957075
48.0051
0.882612
48.1384
0.807033
48.2754
0.730382
48.4161
0.652705
48.5608
0.574048
48.7095
0.494458
48.8626
0.413983
49.02
0.332669
49.182
0.250565
49.3487
0.167719
49.5201
0.0841815
49.6966
0
49.878
-0.0847751
50.0646
-0.170094
50.2564
-0.255905
50.4535
-0.34216
50.656
-0.428806
50.864
-0.515792
51.0774
-0.603068
51.2965
-0.690581
51.5211
-0.778279
51.7514
-0.866112
51.9874
-0.954027
52.2291
-1.04197
52.4765
-1.12989
52.7296
-1.21774
52.9885
-1.30546
53.253
-1.393
53.5232
-1.48032
53.7991
-1.56734
54.0806
-1.65404
54.3676
-1.74034
54.6602
-1.82621
54.9583
-1.91159
55.2618
-1.99642
55.5706
-2.08067
55.8846
-2.16427
56.2038
-2.24717
56.5281
-2.32934
56.8573
-2.4107
57.1913
-2.49123
57.5301
-2.57086
57.8734
-2.64955
58.2212
-2.72725
58.5732
-2.80391
58.9294
-2.87949
59.2894
-2.95394
59.6538
-3.02719
60.0197
-3.0993
60.3958
-3.16983
-3.2401
60.753
43.7151
2.64717
-43.5883
43.8373
2.6134
43.9549
2.57739
44.0684
2.53919
44.1782
2.49882
44.2848
2.4563
44.3886
2.41169
44.4898
2.36499
44.589
2.31625
44.6864
2.26549
44.7824
2.21275
44.8774
2.15807
44.9717
2.10148
45.0655
2.04301
45.1593
1.9827
45.2533
1.92059
45.3478
1.85672
45.443
1.79112
45.5394
1.72383
45.637
1.65491
45.7362
1.58438
45.8372
1.51229
45.9403
1.43868
46.0457
1.36359
46.1536
1.28708
46.2642
1.20918
46.3777
1.12994
46.4944
1.04941
46.6144
0.967638
46.7379
0.884665
46.8652
0.800542
46.9962
0.715319
47.1313
0.629045
47.2705
0.541771
47.4141
0.453548
47.5621
0.364426
47.7147
0.274458
47.872
0.183696
48.0342
0.0921919
48.2012
0
48.3733
-0.0928266
48.5505
-0.186234
48.733
-0.280168
48.9207
-0.374574
49.1138
-0.469396
49.3123
-0.56458
49.5163
-0.660071
49.7258
-0.755813
49.9409
-0.851749
50.1616
-0.947824
50.3879
-1.04398
50.6199
-1.14017
50.8576
-1.23632
51.1009
-1.33239
51.3499
-1.42832
51.6046
-1.52404
51.8649
-1.61952
52.1308
-1.71468
52.4023
-1.80948
52.6793
-1.90385
52.9618
-1.99774
53.2498
-2.0911
53.5432
-2.18387
53.8418
-2.276
54.1457
-2.36743
54.4548
-2.4581
54.7689
-2.54796
55.088
-2.63697
55.4119
-2.72506
55.7406
-2.81218
56.0738
-2.89828
56.4116
-2.98331
56.7537
-3.06721
57.1001
-3.14994
57.4503
-3.23145
57.805
-3.31166
58.1614
-3.39064
58.5282
-3.4679
-3.54494
58.876
42.7258
2.89199
-42.6195
42.8283
2.85397
42.927
2.8136
43.0223
2.77091
43.1147
2.72593
43.2046
2.67868
43.2922
2.62921
43.3779
2.57753
43.4621
2.52369
43.545
2.46771
43.6271
2.40964
43.7086
2.3495
43.7898
2.28734
43.871
2.22318
43.9524
2.15708
44.0345
2.08906
44.1173
2.01917
44.2013
1.94745
44.2865
1.87394
44.3734
1.79869
44.462
1.72173
44.5527
1.64311
44.6457
1.56288
44.7412
1.48109
44.8393
1.39777
44.9403
1.31299
45.0443
1.22678
45.1517
1.13919
45.2624
1.05029
45.3768
0.960108
45.4949
0.868709
45.6169
0.776141
45.743
0.682457
45.8734
0.587711
46.0081
0.491957
46.1472
0.395249
46.291
0.297644
46.4395
0.199196
46.5928
0.0999626
46.751
0
46.9142
-0.100635
47.0826
-0.201884
47.2561
-0.30369
47.4349
-0.405993
47.6191
-0.508736
47.8086
-0.611859
48.0035
-0.715304
48.204
-0.81901
48.4099
-0.922918
48.6214
-1.02697
48.8385
-1.1311
49.0612
-1.23526
49.2895
-1.33937
49.5234
-1.44339
49.763
-1.54725
50.0081
-1.6509
50.2588
-1.75426
50.5151
-1.85728
50.7769
-1.95991
51.0442
-2.06208
51.317
-2.16373
51.5951
-2.26481
51.8786
-2.36525
52.1674
-2.46499
52.4614
-2.56398
52.7605
-2.66216
53.0647
-2.75947
53.3738
-2.85585
53.6878
-2.95125
54.0065
-3.04562
54.3299
-3.13888
54.6578
-3.231
54.99
-3.32191
55.3266
-3.41155
55.6671
-3.49989
56.0122
-3.58683
56.359
-3.67248
56.7164
-3.75624
-3.83984
57.0548
41.7422
3.13232
-41.6544
41.8269
3.09002
41.9086
3.04526
41.9876
2.99806
42.0642
2.94845
42.1389
2.89647
42.2119
2.84214
42.2835
2.7855
42.3541
2.72658
42.424
2.66542
42.4934
2.60205
42.5626
2.53651
42.6318
2.46884
42.7015
2.39907
42.7717
2.32725
42.8428
2.25341
42.9151
2.1776
42.9886
2.09986
43.0638
2.02023
43.1408
1.93877
43.2197
1.8555
43.3009
1.7705
43.3846
1.68379
43.4708
1.59543
43.5599
1.50547
43.652
1.41395
43.7473
1.32094
43.8459
1.22648
43.948
1.13062
44.0539
1.03342
44.1635
0.934936
44.2771
0.835219
44.3949
0.734326
44.5169
0.632315
44.6432
0.529242
44.7741
0.425166
44.9095
0.320144
45.0497
0.214235
45.1946
0.107501
45.3445
0
45.4994
-0.108207
45.6594
-0.217058
45.8245
-0.326492
45.9948
-0.436448
46.1704
-0.546864
46.3513
-0.657675
46.5377
-0.768821
46.7294
-0.880237
46.9266
-0.991861
47.1293
-1.10363
47.3376
-1.21548
47.5513
-1.32734
47.7707
-1.43916
47.9955
-1.55087
48.2259
-1.6624
48.4619
-1.77369
48.7033
-1.88469
48.9503
-1.99531
49.2028
-2.10551
49.4606
-2.21521
49.7239
-2.32436
49.9926
-2.43289
50.2665
-2.54074
50.5456
-2.64785
50.83
-2.75415
51.1194
-2.85958
51.4139
-2.96409
51.7132
-3.0676
52.0175
-3.17007
52.3264
-3.27143
52.64
-3.37162
52.9582
-3.47059
53.2807
-3.56827
53.6076
-3.6646
53.9384
-3.75955
54.2739
-3.853
54.6111
-3.94508
54.959
-4.03514
-4.1251
55.2882
40.766
3.36806
-40.6948
40.8348
3.32146
40.9011
3.27229
40.9653
3.22057
41.0278
3.16634
41.0888
3.10963
41.1486
3.05047
41.2075
2.98889
41.2658
2.92494
41.3237
2.85863
41.3815
2.79002
41.4396
2.71914
41.498
2.64602
41.5571
2.57071
41.6172
2.49325
41.6783
2.41368
41.7408
2.33205
41.8049
2.2484
41.8708
2.16277
41.9386
2.07521
42.0087
1.98578
42.0812
1.89451
42.1562
1.80146
42.234
1.70669
42.3148
1.61023
42.3986
1.51215
42.4857
1.41249
42.5763
1.31132
42.6704
1.20869
42.7683
1.10466
42.87
0.999274
42.9758
0.892601
43.0857
0.784697
43.1998
0.675622
43.3184
0.565436
43.4414
0.454201
43.569
0.341977
43.7014
0.228827
43.8385
0.114813
43.9805
0
44.1274
-0.11555
44.2794
-0.231771
44.4365
-0.3486
44.5988
-0.46597
44.7663
-0.583818
44.9391
-0.702075
45.1172
-0.820677
45.3007
-0.939557
45.4895
-1.05865
45.6838
-1.17788
45.8836
-1.2972
46.0888
-1.41652
46.2995
-1.53579
46.5156
-1.65493
46.7372
-1.77388
46.9643
-1.89257
47.1969
-2.01094
47.4349
-2.12891
47.6783
-2.24643
47.927
-2.36341
48.1811
-2.47981
48.4405
-2.59554
48.7051
-2.71055
48.9749
-2.82477
49.2498
-2.93814
49.5298
-3.05058
49.8148
-3.16204
50.1046
-3.27245
50.3993
-3.38174
50.6987
-3.48987
51.0027
-3.59675
51.3112
-3.70234
51.6242
-3.80656
51.9415
-3.90936
52.2627
-4.0107
52.5887
-4.11045
52.9165
-4.20875
53.2549
-4.3049
-4.401
53.5749
39.7989
3.59916
-39.7426
39.8533
3.54824
39.9058
3.49465
39.9567
3.43842
40.0063
3.37958
40.0549
3.31816
40.1028
3.2542
40.1502
3.18772
40.1973
3.11877
40.2445
3.04737
40.2919
2.97358
40.3398
2.89742
40.3884
2.81893
40.4379
2.73816
40.4886
2.65516
40.5406
2.56995
40.5943
2.4826
40.6497
2.39314
40.7071
2.30162
40.7666
2.2081
40.8285
2.11262
40.8929
2.01523
40.96
1.91598
41.03
1.81493
41.103
1.71213
41.1793
1.60764
41.2588
1.50151
41.3419
1.3938
41.4286
1.28457
41.5191
1.17387
41.6134
1.06177
41.7118
0.948332
41.8144
0.833609
41.9212
0.717668
42.0324
0.60057
42.1481
0.48238
42.2684
0.363164
42.3933
0.242983
42.523
0.121907
42.6576
0
42.7971
-0.122671
42.9415
-0.246038
43.091
-0.370033
43.2456
-0.494588
43.4054
-0.619635
43.5704
-0.745104
43.7407
-0.870926
43.9162
-0.997032
44.0971
-1.12335
44.2834
-1.24981
44.475
-1.37635
44.672
-1.50289
44.8744
-1.62936
45.0822
-1.75569
45.2953
-1.88182
45.5139
-2.00766
45.7379
-2.13316
45.9672
-2.25823
46.2018
-2.38282
46.4417
-2.50685
46.6869
-2.63024
46.9373
-2.75294
47.1929
-2.87487
47.4536
-2.99596
47.7194
-3.11615
47.9902
-3.23537
48.2659
-3.35354
48.5464
-3.47061
48.8317
-3.58651
49.1218
-3.70116
49.4164
-3.81451
49.7155
-3.9265
50.019
-4.03705
50.3268
-4.1461
50.6386
-4.25361
50.9552
-4.35944
51.2735
-4.46377
51.6025
-4.5658
-4.66783
51.9135
38.8421
3.82554
-38.7993
38.8836
3.77031
38.9237
3.71231
38.9626
3.65159
39.0007
3.58816
39.0382
3.52207
39.0753
3.45334
39.1122
3.382
39.1493
3.30811
39.1866
3.23168
39.2246
3.15277
39.2632
3.0714
39.3029
2.98763
39.3437
2.90148
39.3859
2.81302
39.4296
2.72228
39.4751
2.62931
39.5226
2.53415
39.5722
2.43687
39.6241
2.3375
39.6785
2.23609
39.7355
2.13271
39.7953
2.02741
39.8581
1.92023
39.924
1.81124
39.9932
1.70049
40.0657
1.58805
40.1418
1.47396
40.2216
1.3583
40.3052
1.24112
40.3927
1.12249
40.4843
1.00246
40.58
0.881105
40.6799
0.758488
40.7843
0.634674
40.8931
0.50973
41.0064
0.383722
41.1244
0.256719
41.2471
0.128788
41.3746
0
41.507
-0.129576
41.6443
-0.259871
41.7866
-0.390812
41.9339
-0.52233
42.0864
-0.654351
42.244
-0.786805
42.4068
-0.919619
42.5748
-1.05272
42.748
-1.18604
42.9266
-1.31949
43.1104
-1.45302
43.2995
-1.58654
43.4939
-1.71997
43.6937
-1.85326
43.8987
-1.98632
44.1091
-2.11908
44.3247
-2.25147
44.5457
-2.38341
44.7718
-2.51484
45.0032
-2.64566
45.2398
-2.77583
45.4815
-2.90525
45.7284
-3.03387
45.9802
-3.16161
46.2371
-3.28839
46.4989
-3.41415
46.7656
-3.53881
47.0371
-3.66232
47.3133
-3.78459
47.5941
-3.90555
47.8795
-4.02515
48.1694
-4.14332
48.4636
-4.25998
48.7622
-4.37506
49.0647
-4.48853
49.3719
-4.60025
49.681
-4.71039
50.0006
-4.81812
-4.92587
50.3027
37.8969
4.04718
-37.8661
37.9268
3.98765
37.9557
3.92527
37.9838
3.86007
38.0115
3.7921
38.0389
3.72136
38.0663
3.64791
38.0938
3.57178
38.1218
3.49299
38.1503
3.4116
38.1796
3.32763
38.2099
3.24114
38.2414
3.15216
38.2743
3.06073
38.3088
2.96691
38.345
2.87073
38.3831
2.77225
38.4233
2.67151
38.4658
2.56857
38.5107
2.46347
38.5581
2.35628
38.6084
2.24704
38.6615
2.13581
38.7176
2.02265
38.7769
1.90762
38.8396
1.79077
38.9057
1.67217
38.9753
1.55187
39.0487
1.42994
39.1258
1.30645
39.2069
1.18146
39.2921
1.05502
39.3814
0.927222
39.4749
0.798118
39.5728
0.667778
39.6751
0.536272
39.7819
0.403671
39.8934
0.270045
40.0095
0.135464
40.1303
-2.72969e-07
40.256
-0.136273
40.3865
-0.273284
40.522
-0.410959
40.6624
-0.549223
40.8079
-0.688001
40.9584
-0.827221
41.1141
-0.966805
41.2749
-1.10668
41.4408
-1.24677
41.612
-1.38699
41.7883
-1.52728
41.9699
-1.66755
42.1567
-1.80773
42.3487
-1.94774
42.546
-2.08751
42.7484
-2.22696
42.9561
-2.36601
43.1689
-2.50459
43.3869
-2.64262
43.6101
-2.78002
43.8383
-2.91673
44.0716
-3.05266
44.31
-3.18773
44.5533
-3.32189
44.8015
-3.45504
45.0546
-3.58712
45.3125
-3.71805
45.5751
-3.84777
45.8424
-3.9762
46.1143
-4.10326
46.3907
-4.2289
46.6716
-4.35303
46.9567
-4.47559
47.2461
-4.59651
47.5395
-4.71574
47.8376
-4.83314
48.1376
-4.9489
48.4478
-5.06213
-5.17541
48.7412
36.9643
4.26406
-36.9443
36.9837
4.20025
37.0025
4.13352
37.021
4.06389
37.0393
3.9914
37.0577
3.91607
37.0763
3.83795
37.0953
3.75707
37.115
3.67347
37.1355
3.58717
37.1571
3.49824
37.1798
3.40669
37.204
3.31259
37.2297
3.21597
37.2571
3.11688
37.2864
3.01537
37.3177
2.91148
37.3513
2.80527
37.3873
2.69679
37.4258
2.5861
37.4669
2.47324
37.5109
2.35828
37.5578
2.24127
37.6078
2.12227
37.6611
2.00134
37.7177
1.87854
37.7778
1.75393
37.8414
1.62758
37.9088
1.49956
37.98
1.36992
38.0552
1.23873
38.1343
1.10607
38.2176
0.972
38.3051
0.836589
38.3969
0.69991
38.4932
0.562032
38.5938
0.423029
38.6991
0.282973
38.809
0.141939
38.9235
0
39.0428
-0.142769
39.1669
-0.286291
39.2959
-0.430491
39.4298
-0.575293
39.5686
-0.720618
39.7125
-0.86639
39.8613
-1.01253
40.0152
-1.15896
40.1742
-1.30561
40.3383
-1.45238
40.5075
-1.59921
40.6818
-1.74602
40.8613
-1.89272
41.0459
-2.03924
41.2356
-2.18549
41.4305
-2.33141
41.6305
-2.4769
41.8355
-2.6219
42.0456
-2.76631
42.2608
-2.91007
42.481
-3.05309
42.7062
-3.1953
42.9363
-3.33662
43.1713
-3.47698
43.4111
-3.61628
43.6557
-3.75447
43.9051
-3.89146
44.1591
-4.02718
44.4178
-4.16156
44.6809
-4.29451
44.9485
-4.42597
45.2205
-4.55587
45.4968
-4.68414
45.7773
-4.81069
46.0617
-4.93548
46.3508
-5.05837
46.6417
-5.17955
46.9429
-5.29809
-5.41672
47.2276
36.045
4.47617
-36.0347
36.0551
4.40812
36.0649
4.33707
36.0747
4.26305
36.0846
4.18609
36.0948
4.10623
36.1055
4.0235
36.1169
3.93794
36.1291
3.84958
36.1424
3.75846
36.1569
3.66463
36.1728
3.56812
36.1903
3.46898
36.2094
3.36726
36.2304
3.26301
36.2535
3.15626
36.2787
3.04708
36.3062
2.93552
36.3362
2.82162
36.3689
2.70545
36.4042
2.58706
36.4424
2.4665
36.4837
2.34384
36.5281
2.21914
36.5757
2.09246
36.6267
1.96386
36.6813
1.8334
36.7394
1.70116
36.8012
1.56719
36.8669
1.43157
36.9364
1.29436
37.01
1.15564
37.0877
1.01548
37.1695
0.873937
37.2557
0.731097
37.3462
0.587031
37.4411
0.441812
37.5405
0.295517
37.6445
0.14822
37.7531
0
37.8664
-0.149067
37.9844
-0.298903
38.1072
-0.449429
38.2349
-0.600566
38.3674
-0.752234
38.5049
-0.904354
38.6472
-1.05684
38.7946
-1.20962
38.9469
-1.36261
39.1042
-1.51573
39.2666
-1.66889
39.434
-1.82202
39.6064
-1.97503
39.7839
-2.12784
39.9664
-2.28037
40.1539
-2.43254
40.3465
-2.58426
40.544
-2.73546
40.7465
-2.88605
40.954
-3.03595
41.1664
-3.18508
41.3837
-3.33336
41.6059
-3.48071
41.8328
-3.62705
42.0645
-3.77231
42.3009
-3.91639
42.542
-4.05923
42.7876
-4.20075
43.0378
-4.34087
43.2925
-4.47951
43.5515
-4.6166
43.8149
-4.75207
44.0824
-4.88584
44.3542
-5.01783
44.6299
-5.14799
44.9101
-5.27618
45.1923
-5.4026
45.4844
-5.52627
-5.65005
45.7607
35.1399
4.68352
-35.1382
35.1416
4.61127
35.1434
4.53595
35.1453
4.45759
35.1476
4.37622
35.1505
4.29188
35.1541
4.2046
35.1586
4.11442
35.1642
4.02138
35.1709
3.92552
35.1791
3.82687
35.1888
3.72548
35.2002
3.62141
35.2134
3.51468
35.2286
3.40536
35.246
3.29349
35.2656
3.17913
35.2876
3.06232
35.3122
2.94312
35.3394
2.82159
35.3695
2.69779
35.4024
2.57177
35.4385
2.4436
35.4776
2.31334
35.5201
2.18104
35.566
2.04679
35.6154
1.91063
35.6683
1.77265
35.725
1.6329
35.7855
1.49146
35.8499
1.34839
35.9182
1.20378
35.9907
1.05769
36.0672
0.910192
36.148
0.761368
36.2332
0.611292
36.3226
0.460038
36.4166
0.307687
36.515
0.154314
36.618
0
36.7256
-0.155176
36.8378
-0.311133
36.9548
-0.467791
37.0765
-0.625067
37.2031
-0.782881
37.3344
-0.941149
37.4706
-1.09979
37.6116
-1.25872
37.7576
-1.41785
37.9085
-1.5771
38.0643
-1.7364
38.225
-1.89564
38.3907
-2.05475
38.5613
-2.21365
38.7369
-2.37225
38.9174
-2.53046
39.1028
-2.68821
39.2931
-2.8454
39.4883
-3.00195
39.6884
-3.15779
39.8932
-3.31282
40.1029
-3.46697
40.3173
-3.62015
40.5365
-3.77228
40.7603
-3.92328
40.9887
-4.07306
41.2218
-4.22155
41.4593
-4.36867
41.7013
-4.51434
41.9476
-4.65847
42.1983
-4.801
42.4533
-4.94184
42.7124
-5.08092
42.9756
-5.21817
43.2427
-5.35352
43.5143
-5.48682
43.7878
-5.61829
44.071
-5.74692
-5.87566
44.3391
34.2495
4.88614
-34.2556
34.2438
4.80973
34.2383
4.73019
34.2332
4.64754
34.2287
4.56182
34.225
4.47306
34.2223
4.38131
34.2206
4.28658
34.2201
4.18894
34.221
4.0884
34.2234
3.98503
34.2275
3.87885
34.2335
3.76993
34.2413
3.6583
34.2513
3.54401
34.2634
3.42712
34.278
3.30768
34.295
3.18574
34.3146
3.06136
34.3369
2.9346
34.3621
2.80552
34.3902
2.67417
34.4215
2.54061
34.4559
2.40493
34.4936
2.26716
34.5347
2.12739
34.5793
1.98569
34.6275
1.84211
34.6794
1.69673
34.7351
1.54963
34.7946
1.40086
34.8581
1.25052
34.9256
1.09867
34.9972
0.945386
35.073
0.790749
35.1531
0.634835
35.2375
0.477723
35.3262
0.319493
35.4194
0.160225
35.5171
0
35.6193
-0.1611
35.7261
-0.322992
35.8375
-0.485594
35.9536
-0.648821
36.0744
-0.812589
36.1999
-0.976813
36.3302
-1.14141
36.4653
-1.30629
36.6052
-1.47137
36.7499
-1.63657
36.8994
-1.80179
37.0538
-1.96695
37.213
-2.13197
37.377
-2.29675
37.5459
-2.46122
37.7196
-2.62528
37.8982
-2.78885
38.0815
-2.95184
38.2696
-3.11416
38.4625
-3.27573
38.6601
-3.43647
38.8624
-3.59629
39.0694
-3.7551
39.281
-3.91282
39.4972
-4.06937
39.7179
-4.22465
39.9431
-4.3786
40.1727
-4.53113
40.4067
-4.68215
40.6451
-4.83159
40.8876
-4.97937
41.1344
-5.1254
41.3852
-5.26961
41.6401
-5.41192
41.8988
-5.55228
42.1619
-5.69052
42.427
-5.82687
42.7016
-5.96028
-6.09382
42.9616
33.3744
5.08405
-33.3873
33.3619
5.00354
33.35
4.91982
33.3386
4.83295
33.3281
4.74294
33.3185
4.64983
33.31
4.55367
33.3028
4.45448
33.2969
4.3523
33.2925
4.24719
33.2898
4.13917
33.2889
4.0283
33.2898
3.91462
33.2928
3.79818
33.298
3.67903
33.3055
3.55723
33.3154
3.43282
33.3278
3.30587
33.3429
3.17642
33.3608
3.04455
33.3815
2.9103
33.4052
2.77375
33.4321
2.63495
33.4621
2.49397
33.4954
2.35087
33.5321
2.20573
33.5723
2.05862
33.6161
1.9096
33.6635
1.75874
33.7147
1.60612
33.7697
1.45182
33.8287
1.2959
33.8916
1.13845
33.9586
0.979549
34.0297
0.819265
34.105
0.657683
34.1846
0.494883
34.2684
0.330948
34.3567
0.165959
34.4493
-2.72918e-07
34.5464
-0.166845
34.648
-0.334492
34.7542
-0.502855
34.8649
-0.671849
34.9803
-0.841386
35.1003
-1.01138
35.225
-1.18174
35.3543
-1.35239
35.4884
-1.52323
35.6272
-1.69418
35.7707
-1.86514
35.9189
-2.03603
36.0719
-2.20676
36.2297
-2.37724
36.3922
-2.54738
36.5594
-2.71709
36.7313
-2.88629
36.9079
-3.05489
37.0892
-3.22279
37.2752
-3.38991
37.4658
-3.55616
37.661
-3.72145
37.8608
-3.8857
38.0651
-4.04883
38.2738
-4.21073
38.4871
-4.37134
38.7047
-4.53056
38.9267
-4.6883
39.1529
-4.8445
39.3834
-4.99906
39.6181
-5.1519
39.8568
-5.30295
40.0996
-5.45212
40.3464
-5.59932
40.5969
-5.74451
40.8518
-5.88752
41.1087
-6.02857
41.3747
-6.1666
-6.30476
41.6268
32.5148
5.27729
-32.5339
32.4965
5.19273
32.4787
5.10491
32.4618
5.01386
32.4459
4.91963
32.431
4.82225
32.4174
4.72175
32.4052
4.61817
32.3945
4.51155
32.3853
4.40193
32.378
4.28936
32.3725
4.17388
32.369
4.05554
32.3676
3.9344
32.3685
3.81049
32.3717
3.68388
32.3774
3.55461
32.3857
3.42276
32.3967
3.28836
32.4105
3.1515
32.4272
3.01221
32.4468
2.87058
32.4696
2.72666
32.4956
2.58052
32.5249
2.43224
32.5575
2.28186
32.5936
2.12948
32.6333
1.97516
32.6766
1.81897
32.7237
1.66099
32.7745
1.5013
32.8292
1.33997
32.8878
1.17708
32.9505
1.01271
33.0172
0.846941
33.088
0.679855
33.163
0.511533
33.2423
0.342061
33.3259
0.171522
33.4137
0
33.506
-0.172417
33.6027
-0.345644
33.7039
-0.519592
33.8095
-0.694175
33.9197
-0.869302
34.0344
-1.04489
34.1537
-1.22084
34.2776
-1.39707
34.4061
-1.57348
34.5393
-1.74999
34.677
-1.92651
34.8194
-2.10295
34.9665
-2.2792
35.1182
-2.45519
35.2745
-2.63082
35.4354
-2.80601
35.601
-2.98065
35.7712
-3.15466
35.9459
-3.32795
36.1252
-3.50043
36.309
-3.67201
36.4974
-3.8426
36.6902
-4.01211
36.8874
-4.18045
37.089
-4.34753
37.295
-4.51327
37.5053
-4.67758
37.7198
-4.84038
37.9386
-5.00157
38.1615
-5.16107
38.3884
-5.31881
38.6194
-5.47469
38.8544
-5.62864
39.0933
-5.78057
39.3358
-5.93042
39.5827
-6.07803
39.8315
-6.22363
40.0892
-6.36611
-6.50872