/*--------------------------------*- C++ -*----------------------------------*\
| =========                 |                                                 |
| \\      /  F ield         | OpenFOAM: The Open Source CFD Toolbox           |
|  \\    /   O peration     | Version:  2312                                  |
|   \\  /    A nd           | Website:  www.openfoam.com                      |
|    \\/     M anipulation  |                                                 |
\*---------------------------------------------------------------------------*/
FoamFile
{
    version     2.0;
    format      ascii;
    arch        "LSB;label=32;scalar=64";
    class       surfaceScalarField;
    location    "0.621";
    object      phi;
}
// * * * * * * * * * * * * * * * * * * * * * * * * * * * * * * * * * * * * * //

dimensions      [0 3 -1 0 0 0 0];

oriented        oriented;

internalField   nonuniform List<scalar> 
62015
(
45.2021
0.0882491
-44.3257
46.0572
0.0882153
46.8907
0.0880358
47.7035
0.0877123
48.4963
0.0872473
49.2699
0.0866423
50.025
0.0859002
50.7627
0.0850228
51.4835
0.084013
52.1884
0.0828727
52.878
0.0816046
53.5531
0.0802109
54.2144
0.0786941
54.8626
0.0770566
55.4983
0.0753006
56.1221
0.0734285
56.7346
0.071443
57.3364
0.0693462
57.9279
0.0671403
58.5098
0.064828
59.0824
0.0624117
59.6463
0.0598935
60.2019
0.0572761
60.7496
0.0545619
61.2899
0.0517531
61.823
0.0488525
62.3494
0.045862
62.8695
0.0427849
63.3835
0.0396232
63.8918
0.0363794
64.3947
0.0330559
64.8924
0.0296557
65.3854
0.0261815
65.8737
0.022635
66.3578
0.01902
66.8378
0.015338
67.3139
0.0115925
67.7865
0.00778599
68.2556
0.00392066
68.7216
0
69.1845
-0.00397362
69.6446
-0.00799781
70.102
-0.012069
70.557
-0.016185
71.0096
-0.0203431
71.46
-0.0245397
71.9083
-0.028773
72.3547
-0.0330391
72.7992
-0.037336
73.2421
-0.0416608
73.6834
-0.04601
74.1231
-0.050381
74.5615
-0.054771
74.9985
-0.0591774
75.4342
-0.0635965
75.8688
-0.0680262
76.3022
-0.0724629
76.7345
-0.0769042
77.1658
-0.0813471
77.596
-0.0857882
78.0253
-0.0902252
78.4536
-0.0946552
78.881
-0.0990746
79.3075
-0.103481
79.7331
-0.107872
80.1577
-0.112243
80.5814
-0.116593
81.0041
-0.120918
81.4258
-0.125216
81.8465
-0.129484
82.2662
-0.133718
82.6847
-0.137916
83.102
-0.142076
83.5185
-0.146194
83.9325
-0.150269
84.3488
-0.154291
84.7522
-0.158283
85.1898
-0.16216
-0.166183
85.5145
44.8041
0.177727
-44.0049
45.5849
0.177399
46.3466
0.176797
47.0901
0.175923
47.8158
0.174782
48.5248
0.173377
49.2175
0.171713
49.8948
0.169794
50.5574
0.167624
51.206
0.165207
51.8412
0.162548
52.4636
0.159651
53.0739
0.15652
53.6726
0.15316
54.2603
0.149575
54.8376
0.145769
55.405
0.141746
55.9629
0.137512
56.5118
0.13307
57.0521
0.128425
57.5844
0.123581
58.109
0.118543
58.6262
0.113316
59.1366
0.107903
59.6403
0.10231
60.1379
0.0965408
60.6295
0.0906004
61.1156
0.0844938
61.5964
0.0782251
62.0722
0.0717999
62.5433
0.0652223
63.01
0.0584976
63.4725
0.0516303
63.931
0.0446263
64.3857
0.0374895
64.837
0.0302256
65.285
0.0228395
65.7299
0.0153363
66.1719
0.00772148
66.6112
0
67.0479
-0.00782284
67.4823
-0.0157417
67.9144
-0.0237516
68.3445
-0.0318467
68.7726
-0.0400218
69.199
-0.0482715
69.6236
-0.05659
70.0467
-0.0649726
70.4684
-0.0734131
70.8887
-0.0819064
71.3077
-0.0904463
71.7256
-0.0990282
72.1424
-0.107646
72.5582
-0.116294
72.973
-0.124966
73.387
-0.133658
73.8002
-0.142363
74.2125
-0.151076
74.6242
-0.159792
75.0351
-0.168503
75.4454
-0.177206
75.8551
-0.185894
76.2641
-0.194563
76.6725
-0.203205
77.0802
-0.211815
77.4874
-0.220389
77.8939
-0.22892
78.2998
-0.237402
78.705
-0.245832
79.1096
-0.254202
79.5134
-0.262507
79.9165
-0.270743
80.3186
-0.278903
80.7202
-0.286982
81.1199
-0.294978
81.522
-0.302871
81.9121
-0.310706
82.3351
-0.318316
-0.326209
82.6518
44.3836
0.26822
-43.6556
45.0954
0.267366
45.7905
0.266122
46.4695
0.264495
47.1331
0.26249
47.7819
0.260111
48.4166
0.257364
49.0378
0.254256
49.6462
0.250791
50.2422
0.246975
50.8265
0.242815
51.3997
0.238316
51.9622
0.233484
52.5147
0.228325
53.0575
0.222845
53.5911
0.21705
54.116
0.210945
54.6327
0.204538
55.1415
0.197834
55.6428
0.190839
56.137
0.183559
56.6245
0.176002
57.1056
0.168172
57.5806
0.160078
58.05
0.151725
58.5139
0.143119
58.9726
0.134268
59.4265
0.125178
59.8759
0.115856
60.3209
0.106308
60.7619
0.0965422
61.199
0.0865651
61.6325
0.0763835
62.0626
0.0660051
62.4895
0.0554362
62.9135
0.044685
63.3346
0.0337584
63.7532
0.0226634
64.1693
0.0114082
64.5832
0
64.9949
-0.0115537
65.4047
-0.0232452
65.8126
-0.0350671
66.2189
-0.047011
66.6236
-0.0590695
67.0269
-0.0712351
67.4288
-0.0834993
67.8296
-0.0958546
68.2292
-0.108293
68.6278
-0.120806
69.0254
-0.133387
69.4223
-0.146026
69.8183
-0.158716
70.2136
-0.171449
70.6083
-0.184217
71.0024
-0.197011
71.396
-0.209824
71.789
-0.222646
72.1817
-0.235472
72.5739
-0.24829
72.9657
-0.261095
73.3571
-0.273878
73.7482
-0.28663
74.1389
-0.299343
74.5293
-0.31201
74.9193
-0.324623
75.309
-0.337172
75.6984
-0.34965
76.0873
-0.362051
76.4759
-0.374364
76.864
-0.386583
77.2517
-0.398699
77.6388
-0.410705
78.0256
-0.422592
78.4108
-0.434359
78.7987
-0.445975
79.1754
-0.457506
79.5837
-0.46871
-0.480325
79.8913
43.9179
0.359392
-43.2549
44.5668
0.35781
45.201
0.355738
45.8212
0.353183
46.4279
0.35015
47.0217
0.346648
47.6031
0.34268
48.1728
0.338256
48.7312
0.333382
49.2789
0.328064
49.8164
0.322309
50.3441
0.316125
50.8625
0.309519
51.3721
0.302498
51.8733
0.295069
52.3665
0.28724
52.852
0.279017
53.3304
0.27041
53.8018
0.261424
54.2668
0.252069
54.7255
0.242351
55.1784
0.232279
55.6257
0.221861
56.0678
0.211105
56.5049
0.200018
56.9373
0.18861
57.3652
0.176888
57.789
0.164862
58.2088
0.152539
58.6249
0.139929
59.0374
0.12704
59.4468
0.113882
59.853
0.100462
60.2564
0.0867915
60.657
0.0728776
61.0552
0.0587308
61.451
0.04436
61.8446
0.0297751
62.2363
0.0149851
62.626
0
63.0141
-0.0151706
63.4005
-0.0305169
63.7855
-0.0460291
64.1692
-0.0616968
64.5516
-0.0775111
64.933
-0.0934605
65.3133
-0.109536
65.6927
-0.125727
66.0713
-0.142023
66.4492
-0.158414
66.8265
-0.17489
67.2031
-0.19144
67.5793
-0.208055
67.955
-0.224722
68.3304
-0.241433
68.7054
-0.258177
69.0801
-0.274942
69.4546
-0.29172
69.8289
-0.308498
70.203
-0.325267
70.577
-0.342016
70.9508
-0.358736
71.3245
-0.375414
71.6981
-0.392041
72.0717
-0.408607
72.4451
-0.4251
72.8184
-0.441511
73.1916
-0.45783
73.5647
-0.474045
73.9376
-0.490148
74.3103
-0.506126
74.6829
-0.521972
75.0551
-0.537674
75.4274
-0.553222
75.7983
-0.568612
76.172
-0.583807
76.5353
-0.598892
76.9291
-0.613552
-0.628747
77.2268
43.4027
0.450908
-42.7988
43.9944
0.448427
44.5732
0.445367
45.1398
0.441735
45.6946
0.437539
46.2382
0.432785
46.771
0.427482
47.2935
0.421635
47.8062
0.415255
48.3096
0.408347
48.804
0.400921
49.2899
0.392983
49.7678
0.384543
50.2379
0.375609
50.7006
0.366188
51.1564
0.356291
51.6056
0.345924
52.0484
0.335097
52.4853
0.32382
52.9165
0.3121
53.3423
0.299948
53.763
0.287372
54.1789
0.274382
54.5903
0.260988
54.9973
0.247198
55.4003
0.233024
55.7994
0.218475
56.195
0.203561
56.5872
0.188293
56.9762
0.17268
57.3622
0.156733
57.7455
0.140464
58.1261
0.123882
58.5043
0.107
58.8803
0.0898263
59.2542
0.0723739
59.6262
0.0546539
59.9963
0.0366771
60.3649
0.0184552
60.7319
0
61.0976
-0.0186769
61.462
-0.037564
61.8253
-0.0566492
62.1875
-0.0759201
62.5489
-0.0953654
62.9094
-0.114973
63.2693
-0.13473
63.6285
-0.154624
63.9871
-0.174643
64.3453
-0.194775
64.7031
-0.215008
65.0606
-0.235328
65.4178
-0.255723
65.7748
-0.276181
66.1317
-0.296689
66.4884
-0.317235
66.8451
-0.337805
67.2018
-0.358387
67.5585
-0.378968
67.9153
-0.399537
68.2721
-0.420079
68.629
-0.440583
68.986
-0.461035
69.3431
-0.481424
69.7003
-0.501735
70.0576
-0.521959
70.4151
-0.54208
70.7726
-0.562088
71.1303
-0.581969
71.488
-0.601711
71.8457
-0.621303
72.2035
-0.64073
72.5612
-0.659984
72.9192
-0.679047
73.276
-0.69792
73.6358
-0.716554
73.9859
-0.735054
74.3654
-0.753036
-0.771669
74.653
42.8411
0.542472
-42.2908
43.3808
0.538948
43.9093
0.534764
44.4271
0.529931
44.9347
0.524455
45.4324
0.518344
45.9208
0.511606
46.4002
0.504249
46.8711
0.496282
47.3338
0.487713
47.7887
0.478551
48.2363
0.468805
48.6767
0.458483
49.1104
0.447596
49.5378
0.436151
49.9591
0.42416
50.3746
0.411631
50.7846
0.398575
51.1895
0.385001
51.5894
0.37092
51.9846
0.356342
52.3755
0.341277
52.7622
0.325737
53.145
0.309732
53.524
0.293273
53.8996
0.276372
54.2719
0.25904
54.6412
0.241289
55.0075
0.22313
55.3712
0.204575
55.7324
0.185637
56.0912
0.166327
56.4479
0.146659
56.8025
0.126644
57.1554
0.106295
57.5064
0.0856249
57.856
0.0646474
58.2041
0.0433754
58.5509
0.0218217
58.8965
0
59.2411
-0.0220762
59.5847
-0.0443934
59.9275
-0.0669376
60.2695
-0.0896954
60.6109
-0.112652
60.9518
-0.135794
61.2922
-0.159108
61.6322
-0.182578
61.9719
-0.206191
62.3114
-0.229932
62.6507
-0.253787
62.9899
-0.277741
63.3291
-0.30178
63.6682
-0.325889
64.0075
-0.350053
64.3468
-0.374259
64.6863
-0.398491
65.026
-0.422734
65.3659
-0.446974
65.706
-0.471196
66.0463
-0.495385
66.387
-0.519527
66.7279
-0.543607
67.0691
-0.567611
67.4106
-0.591523
67.7524
-0.615329
68.0946
-0.639015
68.437
-0.662566
68.7797
-0.685968
69.1226
-0.709207
69.4658
-0.732268
69.8092
-0.755136
70.1527
-0.7778
70.4967
-0.80024
70.8398
-0.822457
71.186
-0.844393
71.523
-0.866173
71.8886
-0.887347
-0.909282
72.1661
42.2389
0.633834
-41.7372
42.7313
0.629143
43.214
0.623723
43.6874
0.617582
44.1519
0.610729
44.6078
0.603172
45.0556
0.594918
45.4956
0.585977
45.9281
0.576358
46.3535
0.566069
46.7722
0.55512
47.1844
0.543521
47.5905
0.53128
47.9907
0.518409
48.3854
0.504918
48.7748
0.490815
49.1592
0.476114
49.5389
0.460823
49.9141
0.444955
50.285
0.42852
50.6519
0.411529
51.0151
0.393996
51.3746
0.37593
51.7308
0.357346
52.0838
0.338254
52.4339
0.318667
52.7812
0.298599
53.1259
0.278061
53.4681
0.257068
53.8081
0.235632
54.1461
0.213767
54.482
0.191487
54.8162
0.168805
55.1488
0.145736
55.4799
0.122295
55.8096
0.0984939
56.138
0.0743495
56.4653
0.0498756
56.7917
0.0250876
57.1171
0
57.4418
-0.0253716
57.7658
-0.0510117
58.0892
-0.0769053
58.4122
-0.103036
58.7347
-0.129389
59.057
-0.155948
59.379
-0.182697
59.7008
-0.209621
60.0225
-0.236702
60.3443
-0.263925
60.666
-0.291273
60.9879
-0.318731
61.3099
-0.346281
61.6321
-0.373907
61.9546
-0.401593
62.2773
-0.429323
62.6003
-0.457078
62.9237
-0.484844
63.2475
-0.512603
63.5717
-0.540339
63.8963
-0.568035
64.2213
-0.595675
64.5468
-0.623242
64.8728
-0.650719
65.1992
-0.67809
65.5261
-0.705339
65.8534
-0.732449
66.1812
-0.759403
66.5095
-0.786187
66.8381
-0.812782
67.1672
-0.839175
67.4967
-0.865346
67.8264
-0.891284
68.1568
-0.916967
68.4865
-0.942394
68.8194
-0.967501
69.1436
-0.99243
69.4954
-1.01667
-1.04177
69.7631
41.6019
0.724778
-41.1444
42.0514
0.718817
42.4924
0.712065
42.9253
0.704529
43.3505
0.696218
43.7682
0.68714
44.1788
0.677303
44.5826
0.666718
44.98
0.655393
45.3712
0.643337
45.7566
0.63056
46.1363
0.617073
46.5107
0.602886
46.8801
0.58801
47.2446
0.572455
47.6046
0.556232
47.9603
0.539353
48.3119
0.52183
48.6596
0.503674
49.0037
0.484897
49.3443
0.465513
49.6817
0.445533
50.016
0.424971
50.3475
0.40384
50.6762
0.382153
51.0025
0.359923
51.3265
0.337166
51.6482
0.313895
51.968
0.290123
52.2859
0.265867
52.602
0.241141
52.9166
0.21596
53.2298
0.190338
53.5416
0.164293
53.8523
0.137839
54.1619
0.110992
54.4705
0.0837678
54.7783
0.0561835
55.0854
0.0282554
55.3919
0
55.6978
-0.028566
56.0033
-0.0574256
56.3085
-0.086562
56.6134
-0.115958
56.9181
-0.145595
57.2227
-0.175457
57.5273
-0.205526
57.8319
-0.235783
58.1367
-0.266212
58.4415
-0.296795
58.7467
-0.327513
59.052
-0.358347
59.3577
-0.389282
59.6638
-0.420296
59.9702
-0.451374
60.2771
-0.482496
60.5845
-0.513643
60.8924
-0.544799
61.2008
-0.575943
61.5097
-0.607059
61.8192
-0.638127
62.1293
-0.669129
62.44
-0.700046
62.7513
-0.730862
63.0632
-0.761556
63.3757
-0.792112
63.6888
-0.82251
64.0025
-0.852733
64.3168
-0.882763
64.6317
-0.912582
64.9471
-0.942172
65.263
-0.971515
65.5794
-1.0006
65.8966
-1.02939
66.2133
-1.0579
66.5332
-1.08605
66.845
-1.114
67.1833
-1.14118
-1.16932
67.4412
40.9359
0.815118
-40.5186
41.3463
0.807803
41.7493
0.799639
42.1452
0.790635
42.5344
0.780798
42.9172
0.770139
43.2938
0.758665
43.6646
0.746386
44.0297
0.733312
44.3895
0.719452
44.7441
0.704817
45.094
0.689417
45.4392
0.673263
45.7801
0.656367
46.1168
0.638739
46.4497
0.620392
46.7787
0.601337
47.1043
0.581588
47.4266
0.561156
47.7457
0.540054
48.062
0.518297
48.3754
0.495897
48.6863
0.472869
48.9947
0.449227
49.3009
0.424984
49.6051
0.400157
49.9072
0.374759
50.2076
0.348807
50.5063
0.322315
50.8035
0.295299
51.0993
0.267776
51.3939
0.239762
51.6873
0.211273
51.9798
0.182326
52.2713
0.152939
52.562
0.123128
52.852
0.0929104
53.1415
0.062305
53.4305
0.0313287
53.7191
0
54.0073
-0.031663
54.2954
-0.0636419
54.5833
-0.0959178
54.8712
-0.128472
55.1591
-0.161287
55.447
-0.194342
55.7351
-0.227618
56.0234
-0.261096
56.312
-0.294757
56.6009
-0.328581
56.8902
-0.362548
57.1799
-0.39664
57.4701
-0.430836
57.7608
-0.465115
58.052
-0.499459
58.3438
-0.533847
58.6363
-0.56826
58.9293
-0.602677
59.223
-0.637078
59.5174
-0.671444
59.8125
-0.705754
60.1083
-0.739988
60.4048
-0.774126
60.702
-0.808149
61
-0.842036
61.2987
-0.875768
61.5981
-0.909324
61.8982
-0.942686
62.199
-0.975833
62.5006
-1.00875
62.8028
-1.04141
63.1057
-1.07379
63.4091
-1.10589
63.7134
-1.13767
64.0175
-1.16913
64.3247
-1.2002
64.6244
-1.23105
64.9496
-1.26106
-1.29211
65.1981
40.2458
0.904696
-39.8652
40.6205
0.895955
40.9889
0.886314
41.3511
0.875781
41.7074
0.864365
42.0582
0.852075
42.4037
0.83892
42.744
0.824909
43.0795
0.810053
43.4104
0.794361
43.7369
0.777845
44.0592
0.760514
44.3776
0.74238
44.6922
0.723456
45.0032
0.703752
45.3109
0.683282
45.6154
0.662058
45.9169
0.640093
46.2156
0.617401
46.5116
0.593995
46.8051
0.569889
47.0964
0.545099
47.3854
0.519638
47.6725
0.493521
47.9577
0.466765
48.2411
0.439384
48.523
0.411395
48.8034
0.382815
49.0824
0.353659
49.3603
0.323944
49.6371
0.293688
49.9129
0.262909
50.1879
0.231624
50.4621
0.19985
50.7356
0.167607
51.0086
0.134913
51.2812
0.101785
51.5534
0.0682449
51.8253
0.0343098
52.097
0
52.3687
-0.0346651
52.6403
-0.0696662
52.912
-0.104983
53.1837
-0.140594
53.4557
-0.176482
53.7279
-0.212623
54.0004
-0.248998
54.2733
-0.285587
54.5466
-0.322368
54.8204
-0.359321
55.0946
-0.396423
55.3695
-0.433655
55.6449
-0.470994
55.921
-0.508419
56.1977
-0.54591
56.4751
-0.583443
56.7533
-0.620999
57.0322
-0.658555
57.3119
-0.696089
57.5924
-0.733581
57.8737
-0.771008
58.1558
-0.808349
58.4387
-0.845583
58.7224
-0.882687
59.007
-0.919641
59.2924
-0.956424
59.5787
-0.993013
59.8657
-1.02939
60.1536
-1.06553
60.4423
-1.10141
60.7317
-1.13701
61.022
-1.17232
61.3129
-1.20731
61.6048
-1.24196
61.8966
-1.27626
62.1916
-1.31013
62.4794
-1.34376
62.7918
-1.37647
-1.41031
63.0311
39.5361
0.993374
-39.1889
39.8783
0.983149
40.215
0.971977
40.5464
0.959867
40.8727
0.946828
41.1941
0.932869
41.511
0.917999
41.8235
0.902227
42.1318
0.885564
42.4361
0.868019
42.7366
0.849605
43.0336
0.830332
43.3271
0.810213
43.6175
0.789258
43.9047
0.767481
44.1892
0.744894
44.4709
0.721511
44.7501
0.697346
45.0269
0.672413
45.3015
0.646725
45.574
0.620299
45.8446
0.593148
46.1133
0.565289
46.3804
0.536738
46.646
0.50751
46.9102
0.477622
47.1731
0.447092
47.4349
0.415937
47.6956
0.384173
47.9554
0.35182
48.2143
0.318896
48.4726
0.285418
48.7302
0.251406
48.9874
0.216878
49.2441
0.181855
49.5004
0.146356
49.7566
0.1104
50.0125
0.074009
50.2684
0.037202
50.5243
0
50.7803
-0.037576
51.0364
-0.075505
51.2927
-0.113765
51.5493
-0.152336
51.8062
-0.191196
52.0635
-0.230322
52.3213
-0.269693
52.5795
-0.309286
52.8383
-0.349079
53.0977
-0.389051
53.3578
-0.429178
53.6185
-0.469437
53.8799
-0.509807
54.1421
-0.550263
54.405
-0.590785
54.6688
-0.631347
54.9334
-0.671928
55.1988
-0.712504
55.4651
-0.753053
55.7323
-0.793551
56.0004
-0.833976
56.2694
-0.874304
56.5393
-0.914513
56.8101
-0.954579
57.0818
-0.994479
57.3545
-1.03419
57.6281
-1.07369
57.9026
-1.11296
58.178
-1.15197
58.4543
-1.1907
58.7315
-1.22914
59.0095
-1.26724
59.2884
-1.30501
59.5682
-1.3424
59.8481
-1.37942
60.1312
-1.41598
60.4076
-1.45227
60.7076
-1.48758
-1.52409
60.9379
38.8108
1.08103
-38.494
39.1233
1.06928
39.431
1.05653
39.7342
1.04281
40.0329
1.02811
40.3276
1.01245
40.6182
0.995841
40.9051
0.978287
41.1883
0.959799
41.4682
0.940389
41.7448
0.920069
42.0184
0.898849
42.289
0.876742
42.557
0.853759
42.8223
0.829916
43.0852
0.805223
43.3459
0.779697
43.6044
0.75335
43.8609
0.726197
44.1156
0.698254
44.3685
0.669536
44.6199
0.640058
44.8698
0.609838
45.1184
0.578892
45.3657
0.547236
45.6119
0.514889
45.8571
0.481868
46.1015
0.448191
46.345
0.413878
46.5879
0.378945
46.8302
0.343414
47.072
0.307303
47.3134
0.270633
47.5545
0.233423
47.7954
0.195694
48.0362
0.157467
48.2769
0.118762
48.5176
0.0796021
48.7584
0.0400073
48.9993
0
49.2405
-0.0403978
49.482
-0.0811639
49.7238
-0.122276
49.9661
-0.16371
50.2088
-0.205445
50.452
-0.247457
50.6958
-0.289722
50.9402
-0.332218
51.1853
-0.374921
51.4311
-0.417806
51.6776
-0.460851
51.9249
-0.504031
52.1731
-0.547322
52.422
-0.590699
52.6718
-0.634141
52.9226
-0.67762
53.1742
-0.721113
53.4268
-0.764597
53.6803
-0.808046
53.9348
-0.851436
54.1903
-0.894743
54.4467
-0.937943
54.7042
-0.98101
54.9627
-1.02392
55.2221
-1.06665
55.4826
-1.10918
55.744
-1.15148
56.0065
-1.19352
56.2699
-1.23529
56.5343
-1.27676
56.7996
-1.3179
57.0659
-1.35869
57.333
-1.39912
57.6013
-1.43915
57.8697
-1.47878
58.1412
-1.51791
58.4065
-1.55675
58.6944
-1.59456
-1.63362
58.916
38.0733
1.16757
-37.7843
38.3587
1.15425
38.6399
1.1399
38.9172
1.12453
39.1908
1.10815
39.4608
1.09077
39.7273
1.0724
39.9907
1.05305
40.2509
1.03272
40.5083
1.01144
40.7629
0.989211
41.0148
0.966044
41.2644
0.941954
41.5116
0.916951
41.7566
0.891052
41.9997
0.864269
42.2408
0.836615
42.4801
0.808108
42.7178
0.778761
42.954
0.748591
43.1888
0.717612
43.4223
0.685843
43.6546
0.6533
43.8859
0.62
44.1162
0.585961
44.3457
0.551202
44.5744
0.51574
44.8025
0.479596
45.03
0.442788
45.2571
0.405336
45.4838
0.367261
45.7102
0.328582
45.9364
0.289321
46.1625
0.249498
46.3885
0.209136
46.6146
0.168256
46.8408
0.12688
47.0672
0.0850296
47.2937
0.0427288
47.5206
0
47.7479
-0.0431336
47.9756
-0.0866488
48.2038
-0.130522
48.4325
-0.174728
48.6618
-0.219245
48.8917
-0.264047
49.1223
-0.309111
49.3536
-0.354411
49.5857
-0.399922
49.8186
-0.44562
50.0523
-0.49148
50.2869
-0.537477
50.5223
-0.583584
50.7587
-0.629778
50.9961
-0.676032
51.2344
-0.722321
51.4737
-0.768618
51.714
-0.8149
51.9554
-0.86114
52.1978
-0.907311
52.4412
-0.95339
52.6857
-0.99935
52.9313
-1.04517
53.1779
-1.09081
53.4255
-1.13626
53.6743
-1.18149
53.9241
-1.22647
54.1749
-1.27118
54.4268
-1.31559
54.6797
-1.35969
54.9337
-1.40343
55.1886
-1.4468
55.4445
-1.48978
55.7015
-1.53234
55.9588
-1.57446
56.2192
-1.61606
56.4738
-1.65736
56.75
-1.69755
-1.73905
56.9632
37.3269
1.2529
-37.0632
37.5874
1.23798
37.8444
1.222
38.098
1.20497
38.3484
1.18689
38.5958
1.16777
38.8402
1.14763
39.0819
1.12647
39.321
1.10431
39.5576
1.08115
39.7919
1.05701
40.024
1.03191
40.254
1.00584
40.4821
0.978829
40.7083
0.950888
40.9329
0.922031
41.156
0.892273
41.3775
0.861629
41.5978
0.830116
41.8168
0.797748
42.0347
0.764543
42.2516
0.730518
42.4676
0.695691
42.6828
0.660079
42.8972
0.623702
43.1111
0.586579
43.3244
0.548728
43.5373
0.510169
43.7498
0.470923
43.9621
0.43101
44.1742
0.390451
44.3862
0.349268
44.5981
0.307482
44.8101
0.265116
45.0223
0.222191
45.2346
0.178731
45.4471
0.134758
45.66
0.0902961
45.8732
0.0453688
46.0868
0
46.301
-0.0457861
46.5157
-0.091965
46.731
-0.138512
46.9469
-0.185402
47.1635
-0.23261
47.3808
-0.280111
47.5989
-0.327879
47.8178
-0.375888
48.0376
-0.424112
48.2583
-0.472526
48.4798
-0.521103
48.7023
-0.569816
48.9258
-0.61864
49.1503
-0.667547
49.3758
-0.716511
49.6023
-0.765506
49.8299
-0.814504
50.0585
-0.863479
50.2883
-0.912403
50.5191
-0.961252
50.751
-1.01
50.9841
-1.05861
51.2182
-1.10707
51.4535
-1.15534
51.6899
-1.2034
51.9274
-1.25122
52.166
-1.29878
52.4058
-1.34605
52.6466
-1.393
52.8885
-1.43961
53.1315
-1.48585
53.3755
-1.5317
53.6205
-1.57713
53.8668
-1.6221
54.1133
-1.66662
54.3629
-1.71059
54.6071
-1.75423
54.872
-1.79671
-1.84054
55.077
36.5741
1.33695
-36.3336
36.8119
1.32041
37.0467
1.30279
37.2787
1.28407
37.5078
1.26428
37.7344
1.24342
37.9585
1.2215
38.1803
1.19854
38.3999
1.17453
38.6174
1.14951
38.8329
1.12347
39.0466
1.09642
39.2586
1.06839
39.469
1.03939
39.6779
1.00942
39.8854
0.978516
40.0917
0.946676
40.2968
0.913922
40.5008
0.880271
40.7039
0.845738
40.9061
0.810341
41.1076
0.774098
41.3083
0.737027
41.5085
0.699148
41.7082
0.660478
41.9075
0.621038
42.1064
0.580847
42.3052
0.539928
42.5037
0.498299
42.7021
0.455983
42.9005
0.413002
43.099
0.369377
43.2976
0.325132
43.4964
0.280288
43.6954
0.23487
43.8948
0.188901
44.0945
0.142405
44.2947
0.0954063
44.4953
0.0479298
44.6965
0
44.8983
-0.0483578
45.1008
-0.0971181
45.3039
-0.146255
45.5077
-0.195743
45.7124
-0.245555
45.9178
-0.295666
46.1241
-0.346048
46.3313
-0.396675
46.5394
-0.447519
46.7484
-0.498555
46.9585
-0.549753
47.1695
-0.601087
47.3816
-0.65253
47.5947
-0.704053
47.8089
-0.755629
48.0242
-0.80723
48.2406
-0.858828
48.4582
-0.910396
48.6768
-0.961904
48.8967
-1.01333
49.1176
-1.06463
49.3397
-1.1158
49.563
-1.16679
49.7875
-1.21759
50.0131
-1.26816
50.2398
-1.31848
50.4678
-1.36851
50.6968
-1.41824
50.927
-1.46762
51.1583
-1.51665
51.3908
-1.56528
51.6243
-1.6135
51.8589
-1.66127
52.0947
-1.70857
52.331
-1.75539
52.5702
-1.80162
52.8043
-1.8475
53.0582
-1.89218
-1.93824
53.2553
35.8175
1.41966
-35.5983
36.0346
1.40149
36.249
1.3822
36.4611
1.3618
36.6707
1.34029
36.8782
1.31768
37.0836
1.29399
37.2871
1.26922
37.4887
1.24338
37.6886
1.21649
37.8868
1.18855
38.0836
1.15959
38.2789
1.12961
38.4729
1.09863
38.6658
1.06667
38.8575
1.03373
39.0482
0.999833
39.238
0.964998
39.427
0.92924
39.6153
0.892576
39.8029
0.855023
39.99
0.816601
40.1766
0.777327
40.3628
0.737222
40.5487
0.696306
40.7344
0.654597
40.9199
0.612119
41.1054
0.56889
41.2908
0.524934
41.4763
0.480273
41.662
0.434928
41.8478
0.388923
42.0338
0.342281
42.2202
0.295027
42.407
0.247183
42.5942
0.198775
42.7819
0.149827
42.9701
0.100365
43.1589
0.0504141
43.3484
0
43.5385
-0.0508511
43.7294
-0.102113
43.9211
-0.153758
44.1135
-0.205761
44.3068
-0.258093
44.501
-0.310728
44.6962
-0.363637
44.8922
-0.416794
45.0893
-0.47017
45.2874
-0.523736
45.4865
-0.577465
45.6866
-0.631327
45.8879
-0.685296
46.0903
-0.739341
46.2938
-0.793433
46.4984
-0.847546
46.7042
-0.901647
46.9111
-0.955711
47.1192
-1.00971
47.3285
-1.06361
47.539
-1.11738
47.7507
-1.171
47.9636
-1.22443
48.1777
-1.27765
48.393
-1.33063
48.6094
-1.38334
48.8271
-1.43575
49.0459
-1.48784
49.2659
-1.53956
49.4871
-1.5909
49.7094
-1.64184
49.9329
-1.69232
50.1574
-1.74235
50.3832
-1.79187
50.6095
-1.84089
50.8387
-1.88929
51.0631
-1.93732
51.3065
-1.9841
-2.0323
51.4959
35.0594
1.50097
-34.8596
35.2574
1.48117
35.4532
1.46022
35.6469
1.43812
35.8387
1.41489
36.0286
1.39054
36.2168
1.36507
36.4034
1.3385
36.5885
1.31084
36.7721
1.28209
36.9544
1.25228
37.1355
1.22141
37.3154
1.1895
37.4943
1.15657
37.6722
1.12262
37.8493
1.08768
38.0256
1.05176
38.2013
1.01487
38.3763
0.977037
38.5508
0.938276
38.7249
0.898605
38.8986
0.858042
39.072
0.816608
39.2452
0.774322
39.4183
0.731204
39.5913
0.687276
39.7643
0.642559
39.9373
0.597075
40.1105
0.550846
40.2839
0.503895
40.4576
0.456245
40.6315
0.407921
40.8059
0.358945
40.9806
0.309344
41.1559
0.25914
41.3317
0.208361
41.508
0.157031
41.6851
0.105177
41.8627
0.0528241
42.0411
0
42.2203
-0.0532686
42.4003
-0.106954
42.5811
-0.161029
42.7628
-0.215467
42.9454
-0.270237
43.129
-0.325314
43.3136
-0.380667
43.4991
-0.436268
43.6857
-0.492089
43.8734
-0.548099
44.0622
-0.60427
44.252
-0.660573
44.443
-0.716977
44.6351
-0.773453
44.8284
-0.829972
45.0229
-0.886503
45.2186
-0.943016
45.4154
-0.999483
45.6135
-1.05587
45.8128
-1.11215
46.0133
-1.1683
46.2151
-1.22427
46.418
-1.28005
46.6222
-1.33561
46.8276
-1.3909
47.0342
-1.44591
47.2421
-1.5006
47.4511
-1.55495
47.6613
-1.60892
47.8728
-1.66248
48.0854
-1.71562
48.2991
-1.76829
48.514
-1.82046
48.7301
-1.87212
48.9468
-1.92324
49.1664
-1.97373
49.3815
-2.02382
49.6146
-2.07261
-2.12284
49.7967
34.3015
1.58085
-34.1195
34.4821
1.55941
34.6607
1.53679
34.8377
1.51301
35.013
1.48806
35.1868
1.46197
35.3592
1.43473
35.5303
1.40637
35.7
1.37689
35.8687
1.34631
36.0362
1.31464
36.2028
1.28188
36.3685
1.24807
36.5334
1.2132
36.6976
1.1773
36.8611
1.14038
37.0241
1.10246
37.1865
1.06355
37.3486
1.02368
37.5103
0.982855
37.6718
0.941103
37.833
0.89844
37.9942
0.854887
38.1552
0.810464
38.3163
0.765192
38.4775
0.719092
38.6388
0.672187
38.8003
0.624499
38.962
0.576051
39.1241
0.526866
39.2865
0.476969
39.4494
0.426385
39.6127
0.375136
39.7766
0.32325
39.941
0.270752
40.1061
0.217667
40.2719
0.164023
40.4383
0.109845
40.6055
0.0551619
40.7735
0
40.9423
-0.0556125
41.112
-0.111647
41.2827
-0.168076
41.4542
-0.224871
41.6267
-0.282001
41.8003
-0.339439
41.9748
-0.397155
42.1505
-0.455119
42.3272
-0.513301
42.505
-0.571672
42.6839
-0.630201
42.864
-0.688857
43.0452
-0.747611
43.2276
-0.806432
43.4113
-0.865289
43.5961
-0.924151
43.7821
-0.982987
43.9694
-1.04177
44.1579
-1.10046
44.3476
-1.15903
44.5386
-1.21746
44.7309
-1.2757
44.9243
-1.33374
45.1191
-1.39153
45.315
-1.44905
45.5122
-1.50627
45.7107
-1.56315
45.9104
-1.61967
46.1112
-1.67579
46.3133
-1.73149
46.5166
-1.78673
46.7211
-1.84149
46.9266
-1.89574
47.1335
-1.94943
47.341
-2.00258
47.5512
-2.05505
47.7574
-2.10711
47.9807
-2.15784
-2.21001
48.1556
33.5457
1.65926
-33.38
33.7102
1.63619
33.8732
1.61191
34.0348
1.58644
34.195
1.55978
34.3539
1.53196
34.5117
1.50297
34.6684
1.47283
34.8242
1.44155
34.979
1.40915
35.1329
1.37563
35.2861
1.34101
35.4387
1.30531
35.5906
1.26854
35.742
1.23071
35.8929
1.19184
36.0435
1.15195
36.1938
1.11106
36.3438
1.06918
36.4936
1.02633
36.6433
0.982536
36.793
0.937814
36.9427
0.892184
37.0925
0.845668
37.2424
0.798287
37.3925
0.750064
37.5429
0.70102
37.6936
0.651179
37.8446
0.600565
37.9961
0.549203
38.1481
0.497115
38.3005
0.444328
38.4535
0.390867
38.6072
0.336758
38.7615
0.282027
38.9165
0.226702
39.0722
0.170809
39.2287
0.114375
39.3861
0.0574296
39.5443
0
39.7034
-0.057885
39.8634
-0.116197
40.0244
-0.174905
40.1864
-0.233982
40.3494
-0.293397
40.5134
-0.353119
40.6785
-0.41312
40.8447
-0.473367
41.0121
-0.533832
41.1805
-0.594482
41.3501
-0.655287
41.5209
-0.716215
41.6929
-0.777236
41.8661
-0.838317
42.0406
-0.899427
42.2162
-0.960536
42.3931
-1.02161
42.5712
-1.08262
42.7506
-1.14353
42.9313
-1.20431
43.1132
-1.26493
43.2964
-1.32535
43.4808
-1.38555
43.6665
-1.4455
43.8534
-1.50516
44.0416
-1.56449
44.2311
-1.62348
44.4218
-1.68208
44.6137
-1.74027
44.8068
-1.79801
45.0012
-1.85528
45.1967
-1.91204
45.3934
-1.96827
45.5914
-2.02393
45.79
-2.07901
45.9913
-2.13339
46.1888
-2.18733
46.4026
-2.23991
-2.29394
46.5707
32.7935
1.73618
-32.6427
32.9433
1.71147
33.0918
1.68554
33.2392
1.65839
33.3855
1.63004
33.5308
1.6005
33.6752
1.56977
33.8187
1.53787
33.9614
1.50481
34.1035
1.47061
34.2449
1.43527
34.3857
1.39881
34.5261
1.36124
34.666
1.32259
34.8056
1.28286
34.9449
1.24207
35.0839
1.20025
35.2229
1.1574
35.3617
1.11355
35.5005
1.06872
35.6393
1.02292
35.7782
0.976181
35.9172
0.928517
36.0565
0.879953
36.196
0.830509
36.3358
0.780209
36.476
0.729076
36.6166
0.677134
36.7576
0.624407
36.8992
0.570919
37.0413
0.516696
37.184
0.461764
37.3273
0.406149
37.4714
0.349877
37.6162
0.292976
37.7617
0.235472
37.9081
0.177394
38.0552
0.118771
38.2033
0.0596295
38.3523
0
38.5022
-0.0600885
38.6531
-0.120606
38.805
-0.181524
38.9579
-0.24281
39.1119
-0.304436
39.267
-0.366368
39.4232
-0.428578
39.5805
-0.491034
39.7389
-0.553703
39.8986
-0.616555
40.0594
-0.679557
40.2214
-0.742678
40.3846
-0.805885
40.549
-0.869147
40.7147
-0.93243
40.8817
-0.995702
41.0498
-1.05893
41.2193
-1.12209
41.39
-1.18513
41.562
-1.24803
41.7353
-1.31076
41.9098
-1.37329
42.0856
-1.43557
42.2627
-1.49759
42.441
-1.5593
42.6206
-1.62067
42.8014
-1.68167
42.9835
-1.74228
43.1669
-1.80245
43.3514
-1.86216
43.5372
-1.92137
43.7242
-1.98005
43.9123
-2.03818
44.1017
-2.09571
44.2918
-2.15264
44.4846
-2.20885
44.6738
-2.2646
44.8784
-2.31894
-2.37474
45.0399
32.0461
1.81159
-31.909
32.1824
1.78526
32.3177
1.75768
32.4521
1.72887
32.5856
1.69884
32.7183
1.66759
32.8503
1.63514
32.9817
1.6015
33.1124
1.56668
33.2427
1.53069
33.3725
1.49355
33.5019
1.45528
33.631
1.41588
33.7598
1.37537
33.8884
1.33377
34.0169
1.2911
34.1453
1.24737
34.2737
1.20261
34.4021
1.15682
34.5307
1.11004
34.6593
1.06228
34.7882
1.01356
34.9173
0.963905
35.0468
0.913336
35.1766
0.861876
35.3068
0.809547
35.4374
0.756373
35.5685
0.70238
35.7002
0.647591
35.8325
0.592032
35.9654
0.535729
36.099
0.478707
36.2333
0.420995
36.3683
0.362619
36.5042
0.303607
36.6408
0.243986
36.7784
0.183786
36.9168
0.123035
37.0561
0.0617636
37.1964
0
37.3377
-0.0622251
37.48
-0.124882
37.6233
-0.187938
37.7677
-0.251365
37.9132
-0.31513
38.0598
-0.379201
38.2075
-0.443548
38.3564
-0.508137
38.5065
-0.572937
38.6577
-0.637916
38.8102
-0.70304
38.9638
-0.768277
39.1187
-0.833594
39.2748
-0.898958
39.4322
-0.964336
39.5909
-1.02969
39.7508
-1.095
39.912
-1.16022
40.0744
-1.22532
40.2382
-1.29027
40.4032
-1.35503
40.5695
-1.41957
40.737
-1.48386
40.9059
-1.54786
41.076
-1.61154
41.2474
-1.67487
41.42
-1.73781
41.5939
-1.80034
41.769
-1.86241
41.9454
-1.924
42.1229
-1.98508
42.3017
-2.0456
42.4816
-2.10555
42.6628
-2.16487
42.8448
-2.22358
43.0292
-2.28154
43.2104
-2.33902
43.4064
-2.39505
-2.45255
43.5615
31.3048
1.88547
-31.1803
31.4287
1.85753
31.5519
1.82832
31.6743
1.79786
31.796
1.76616
31.9172
1.73323
32.0378
1.69908
32.1579
1.66371
32.2776
1.62715
32.397
1.58941
32.516
1.5505
32.6349
1.51043
32.7535
1.46922
32.8721
1.42689
32.9906
1.38346
33.109
1.33893
33.2275
1.29333
33.3462
1.24669
33.4649
1.199
33.5839
1.15031
33.7031
1.10063
33.8227
1.04997
33.9426
0.998367
34.0629
0.945838
34.1836
0.892406
34.3048
0.838095
34.4265
0.782929
34.5489
0.726934
34.6718
0.670134
34.7954
0.612556
34.9197
0.554225
35.0447
0.49517
35.1705
0.435416
35.2971
0.374993
35.4246
0.313928
35.5529
0.25225
35.6821
0.189989
35.8123