/*--------------------------------*- C++ -*----------------------------------*\
| =========                 |                                                 |
| \\      /  F ield         | OpenFOAM: The Open Source CFD Toolbox           |
|  \\    /   O peration     | Version:  2206                                  |
|   \\  /    A nd           | Website:  www.openfoam.com                      |
|    \\/     M anipulation  |                                                 |
\*---------------------------------------------------------------------------*/
FoamFile
{
    version     2.0;
    format      ascii;
    arch        "LSB;label=32;scalar=64";
    class       volScalarField;
    location    "0.85";
    object      wave;
}
// * * * * * * * * * * * * * * * * * * * * * * * * * * * * * * * * * * * * * //

dimensions      [0 0 0 0 0 0 0];

internalField   nonuniform List<scalar> 
100
(
0.801221
0.8857
0.947928
0.986342
0.999977
0.98849
0.95217
0.89193
0.809282
0.706304
0.585581
0.450147
0.303405
0.14904
-0.00906847
-0.166949
-0.320636
-0.466268
-0.600186
-0.719026
-0.819803
-0.899984
-0.957556
-0.991071
-0.999689
-0.983193
-0.941996
-0.877134
-0.790237
-0.683488
-0.559567
-0.421589
-0.27302
-0.117592
0.0407905
0.198148
0.350528
0.494101
0.625262
0.740714
0.837559
0.913362
0.966219
0.994803
0.998395
0.976905
0.930873
0.861456
0.770396
0.659983
0.53299
0.392606
0.24236
0.0860248
-0.0724714
-0.229147
-0.380066
-0.521437
-0.649708
-0.761657
-0.854472
-0.92582
-0.97391
-0.997532
-0.996095
-0.969634
-0.918813
-0.844909
-0.74978
-0.635814
-0.505876
-0.363228
-0.211456
-0.0543713
0.104079
0.259915
0.409222
0.548247
0.6735
0.781833
0.870524
0.937346
0.980619
0.999258
0.992792
0.961386
0.905827
0.827513
0.728409
0.611005
0.478252
0.333485
0.180339
0.0226629
-0.135583
-0.290422
-0.437965
-0.574506
-0.696614
-0.801221
)
;

boundaryField
{
    movingWall
    {
        type            calculated;
        value           uniform 0;
    }
    fixedWalls
    {
        type            calculated;
        value           uniform 0;
    }
    frontAndBack
    {
        type            empty;
    }
}


// ************************************************************************* //
