/*--------------------------------*- C++ -*----------------------------------*\
| =========                 |                                                 |
| \\      /  F ield         | OpenFOAM: The Open Source CFD Toolbox           |
|  \\    /   O peration     | Version:  2312                                  |
|   \\  /    A nd           | Website:  www.openfoam.com                      |
|    \\/     M anipulation  |                                                 |
\*---------------------------------------------------------------------------*/
FoamFile
{
    version     2.0;
    format      ascii;
    arch        "LSB;label=32;scalar=64";
    class       surfaceScalarField;
    location    "0.97";
    object      phi;
}
// * * * * * * * * * * * * * * * * * * * * * * * * * * * * * * * * * * * * * //

dimensions      [0 3 -1 0 0 0 0];

oriented        oriented;

internalField   nonuniform List<scalar> 
62015
(
74.6128
0.392526
-75.2538
73.9712
0.383176
73.3291
0.373675
72.6864
0.364028
72.0431
0.354244
71.399
0.34433
70.754
0.334292
70.1081
0.324141
69.4609
0.313883
68.8122
0.303526
68.1617
0.293079
67.509
0.28255
66.8538
0.271949
66.1956
0.261284
65.5338
0.250564
64.8678
0.239799
64.1969
0.228997
63.5202
0.21817
62.837
0.207326
62.146
0.196476
61.4461
0.185631
60.736
0.174802
60.0139
0.163999
59.2782
0.153235
58.5266
0.142523
57.7566
0.131873
56.9653
0.1213
56.1491
0.110819
55.3037
0.100443
54.424
0.0901897
53.5033
0.0800759
52.5332
0.0701204
51.5025
0.0603456
50.3961
0.0507741
49.195
0.0414356
47.8719
0.0323667
46.3617
0.0236127
44.5009
0.0152194
42.0203
0.00727153
38.7494
0
34.9465
-0.00620173
31.291
-0.0110899
28.4054
-0.0149116
26.4748
-0.018226
25.331
-0.0214846
24.7142
-0.024885
24.4196
-0.0284654
24.3183
-0.0322062
24.336
-0.0360807
24.4306
-0.0400667
24.5778
-0.0441492
24.7631
-0.0483179
24.9773
-0.0525658
25.2145
-0.0568874
25.4706
-0.0612783
25.7427
-0.0657349
26.0289
-0.0702541
26.3275
-0.0748325
26.6373
-0.0794671
26.9576
-0.0841546
27.2874
-0.0888926
27.6264
-0.0936776
27.974
-0.0985067
28.3299
-0.103377
28.6938
-0.108285
29.0653
-0.113228
29.4444
-0.118202
29.8308
-0.123205
30.2244
-0.128233
30.6251
-0.133283
31.0328
-0.138351
31.4474
-0.143434
31.8686
-0.148529
32.2971
-0.153631
32.7308
-0.158745
33.1756
-0.163839
33.6131
-0.168997
34.1001
-0.173942
-0.179529
34.4618
72.1514
0.77083
-72.775
71.5275
0.752432
70.9034
0.733739
70.2791
0.714767
69.6545
0.695529
69.0296
0.676039
68.4041
0.656312
67.778
0.636364
67.1509
0.61621
66.5228
0.595867
65.8932
0.57535
65.2619
0.554676
64.6285
0.533861
63.9924
0.512924
63.3532
0.491883
62.7103
0.470754
62.0631
0.449556
61.4106
0.428309
60.7522
0.407031
60.0867
0.385744
59.413
0.364467
58.7298
0.343222
58.0357
0.32203
57.3288
0.300915
56.6072
0.279899
55.8685
0.259009
55.1099
0.238268
54.3281
0.217706
53.5191
0.197351
52.6779
0.177234
51.7985
0.15739
50.8731
0.137854
49.8913
0.118669
48.839
0.0998798
47.6986
0.0815425
46.4455
0.0637278
45.024
0.0465224
43.2919
0.0300182
40.9995
0.0143714
37.955
0
34.3408
-0.0123454
30.7709
-0.0221283
27.8749
-0.0297351
25.8919
-0.0362426
24.694
-0.0425838
24.0349
-0.0491945
23.7088
-0.056167
23.5828
-0.0634655
23.5798
-0.0710334
23.6557
-0.0788239
23.7851
-0.0868047
23.9531
-0.0949542
24.1501
-0.103257
24.3702
-0.111702
24.609
-0.12028
24.8638
-0.128985
25.1324
-0.137809
25.4132
-0.146745
25.7051
-0.155789
26.0072
-0.164935
26.3188
-0.174175
26.6392
-0.183505
26.968
-0.192918
27.3048
-0.202409
27.6494
-0.211972
28.0015
-0.2216
28.3608
-0.231287
28.7273
-0.241027
29.1007
-0.250814
29.4809
-0.260641
29.8679
-0.270502
30.2615
-0.28039
30.6616
-0.2903
31.0685
-0.30022
31.4806
-0.310161
31.9032
-0.320062
32.3192
-0.330083
32.7812
-0.339701
-0.350522
33.1287
69.7565
1.1352
-70.3631
69.1499
1.10805
68.5435
1.08047
67.9372
1.05249
67.3309
1.02412
66.7245
0.995389
66.1179
0.966313
65.511
0.936917
64.9035
0.907222
64.2952
0.877254
63.6859
0.847034
63.0751
0.816588
62.4626
0.785939
61.8478
0.755113
61.2303
0.724136
60.6096
0.693034
59.9849
0.661835
59.3555
0.630564
58.7207
0.599253
58.0794
0.567928
57.4306
0.53662
56.773
0.505361
56.1052
0.474182
55.4256
0.443115
54.7323
0.412197
54.0229
0.381462
53.295
0.350948
52.5453
0.320696
51.7701
0.290747
50.9648
0.261147
50.1237
0.231945
49.2395
0.203195
48.3024
0.174956
47.2995
0.147296
46.2141
0.120295
45.0238
0.0940538
43.6798
0.0686989
42.0566
0.0443656
39.9241
0.0212744
37.081
0
33.652
-0.0183867
30.1883
-0.0330355
27.3121
-0.0443911
25.3011
-0.0539951
24.0649
-0.0632744
23.3727
-0.07293
23.0204
-0.0831268
22.8732
-0.0938164
22.8518
-0.104911
22.9107
-0.116338
23.0239
-0.128046
23.1758
-0.140001
23.3569
-0.152178
23.5609
-0.164561
23.7835
-0.177136
24.022
-0.189893
24.2741
-0.20282
24.5382
-0.215909
24.8132
-0.229152
25.0982
-0.242538
25.3924
-0.25606
25.6952
-0.26971
26.0063
-0.283478
26.3252
-0.297356
26.6515
-0.311335
26.9852
-0.325406
27.3259
-0.33956
27.6734
-0.353788
28.0277
-0.368082
28.3886
-0.38243
28.756
-0.396826
29.1298
-0.411257
29.5098
-0.425718
29.8964
-0.44019
30.2879
-0.454689
30.6895
-0.46913
31.0851
-0.483735
31.5236
-0.497769
-0.513497
31.8562
67.433
1.48602
-68.0229
66.8435
1.45041
66.2544
1.41426
65.6657
1.37757
65.0773
1.34039
64.4891
1.30274
63.901
1.26465
63.3127
1.22615
62.7242
1.18726
62.1352
1.14801
61.5454
1.10845
60.9545
1.06859
60.3621
1.02848
59.7679
0.988134
59.1713
0.947598
58.5718
0.906902
57.9688
0.866082
57.3615
0.825173
56.7493
0.784212
56.1311
0.743237
55.506
0.702286
54.8727
0.661401
54.23
0.620622
53.5762
0.579992
52.9096
0.539555
52.228
0.499359
51.5289
0.459452
50.8095
0.419886
50.066
0.380716
49.2943
0.342
48.4888
0.303801
47.6428
0.26619
46.7471
0.229244
45.7896
0.19305
44.7548
0.157709
43.6215
0.123352
42.3462
0.0901419
40.8168
0.058256
38.821
0.0279717
36.1556
0
32.9022
-0.0243018
29.5557
-0.0437656
26.7212
-0.0588319
24.7029
-0.0714516
23.4427
-0.0835439
22.726
-0.0960986
22.3529
-0.109367
22.1879
-0.123294
22.1505
-0.137761
22.1943
-0.152668
22.2927
-0.167943
22.43
-0.183538
22.5963
-0.199421
22.7854
-0.215569
22.993
-0.231962
23.2161
-0.248586
23.4527
-0.265428
23.7011
-0.282476
23.9602
-0.299718
24.2291
-0.317143
24.5069
-0.33474
24.7932
-0.352497
25.0875
-0.370404
25.3894
-0.388449
25.6986
-0.40662
26.0148
-0.424907
26.3379
-0.443297
26.6676
-0.461779
27.0038
-0.480342
27.3463
-0.498972
27.6951
-0.517658
28.0502
-0.536387
28.4111
-0.55515
28.7785
-0.573925
29.1506
-0.592728
29.5322
-0.611456
29.9085
-0.630385
30.3248
-0.64859
-0.668927
30.6429
65.1825
1.82372
-65.7557
64.6098
1.77994
64.0378
1.7355
63.4664
1.69042
62.8956
1.64474
62.3251
1.59849
61.755
1.55171
61.1851
1.50443
60.6151
1.45668
60.0448
1.40851
59.4741
1.35995
58.9024
1.31104
58.3296
1.26181
57.7553
1.21231
57.1789
1.16258
56.5999
1.11265
56.0178
1.06258
55.4318
1.0124
54.8413
0.962167
54.2454
0.911916
53.643
0.861697
53.0331
0.81156
52.4143
0.761555
51.7852
0.711734
51.1441
0.662151
50.489
0.612863
49.8174
0.563929
49.1267
0.515413
48.4134
0.467379
47.6734
0.4199
46.9017
0.373053
46.0917
0.326922
45.235
0.281601
44.3201
0.237195
43.3324
0.193827
42.2522
0.151655
41.04
0.110874
39.5951
0.071701
37.7213
0.0344673
35.2172
0
32.1306
-0.0300884
28.9048
-0.054313
26.1232
-0.073054
24.1091
-0.0886174
22.8329
-0.103407
22.0969
-0.118722
21.7062
-0.134917
21.5256
-0.151934
21.4738
-0.169626
21.5039
-0.187863
21.5887
-0.206552
21.7124
-0.225633
21.865
-0.245061
22.0402
-0.264807
22.2337
-0.284849
22.4425
-0.305167
22.6645
-0.325745
22.8982
-0.346568
23.1423
-0.367622
23.3959
-0.388894
23.6583
-0.410368
23.929
-0.432033
24.2074
-0.453874
24.4933
-0.475877
24.7862
-0.49803
25.0859
-0.520317
25.3922
-0.542725
25.705
-0.565239
26.024
-0.587846
26.3492
-0.61053
26.6805
-0.633277
27.0177
-0.656072
27.3606
-0.678902
27.7097
-0.701742
28.0634
-0.724611
28.426
-0.747385
28.784
-0.770393
29.1794
-0.792538
-0.817204
29.4831
63.0043
2.14872
-63.5611
62.4483
2.09706
61.8931
2.04462
61.3388
1.99145
60.7852
1.93758
60.2323
1.88304
59.6798
1.82789
59.1278
1.77215
58.5759
1.71588
58.0239
1.65911
57.4717
1.60189
56.9188
1.54426
56.3651
1.48627
55.81
1.42796
55.2532
1.36938
54.6941
1.31059
54.1322
1.25162
53.5669
1.19253
52.9974
1.13338
52.4229
1.07421
51.8424
1.01509
51.255
0.956061
50.6593
0.897191
50.054
0.838538
49.4374
0.780166
48.8076
0.722142
48.1624
0.664534
47.4991
0.607416
46.8146
0.550864
46.1049
0.494963
45.3653
0.439801
44.5897
0.385477
43.77
0.332101
42.8955
0.279794
41.9524
0.2287
40.9223
0.179
39.7692
0.130921
38.4022
0.0847175
36.6403
0.0407686
34.2861
0
31.359
-0.0357504
28.2543
-0.0646843
25.5313
-0.0870709
23.5273
-0.105513
22.2395
-0.122891
21.487
-0.140831
21.0804
-0.15981
20.8856
-0.179775
20.8205
-0.200549
20.8378
-0.221971
20.9101
-0.243929
21.0211
-0.266345
21.1608
-0.289165
21.3229
-0.312353
21.5031
-0.335882
21.6985
-0.359728
21.9068
-0.383872
22.1265
-0.408296
22.3565
-0.432983
22.5957
-0.457918
22.8436
-0.483084
23.0995
-0.508466
23.3629
-0.534047
23.6335
-0.559812
23.911
-0.585745
24.1951
-0.611829
24.4856
-0.638047
24.7823
-0.664384
25.0851
-0.690822
25.3939
-0.717345
25.7084
-0.743936
26.0287
-0.770575
26.3545
-0.797251
26.6862
-0.823932
27.0224
-0.850641
27.3672
-0.877236
27.7076
-0.90409
28.0832
-0.929954
-0.958686
28.3732
60.8971
2.46143
-61.4376
60.3575
2.40217
59.819
2.34203
59.2815
2.28105
58.7448
2.21929
58.209
2.15677
57.6739
2.09355
57.1393
2.02968
56.6051
1.9652
56.0711
1.90016
55.5369
1.8346
55.0024
1.76859
54.4671
1.70217
53.9308
1.63539
53.393
1.56832
52.8533
1.50099
52.311
1.43348
51.7656
1.36583
51.2164
1.29811
50.6626
1.23037
50.1034
1.16269
49.5376
1.09512
48.9641
1.02773
48.3817
0.960593
47.7887
0.893778
47.1833
0.827359
46.5634
0.761416
45.9265
0.696032
45.2696
0.631294
44.5889
0.567297
43.8801
0.504142
43.1372
0.441941
42.3529
0.380817
41.5169
0.320908
40.6162
0.262376
39.6337
0.205425
38.5365
0.15031
37.2424
0.0973214
35.5848
0.0468824
33.3714
0
30.5975
-0.0412917
27.6133
-0.0748877
24.9519
-0.100898
22.9616
-0.122162
21.6646
-0.142022
20.8969
-0.162457
20.4755
-0.184079
20.2672
-0.206853
20.1898
-0.23057
20.1951
-0.25504
20.2555
-0.280126
20.3545
-0.305733
20.4822
-0.331799
20.632
-0.358279
20.7997
-0.38514
20.9823
-0.412356
21.1777
-0.439904
21.3843
-0.467763
21.6008
-0.495915
21.8265
-0.52434
22.0606
-0.553021
22.3025
-0.581939
22.5517
-0.611077
22.8079
-0.640416
23.0708
-0.669939
23.3401
-0.699626
23.6156
-0.729459
23.8971
-0.759419
24.1845
-0.789488
24.4776
-0.819645
24.7763
-0.849873
25.0806
-0.88015
25.3902
-0.91046
25.7055
-0.940771
26.025
-0.971105
26.3527
-1.00131
26.6766
-1.03179
27.0334
-1.06116
-1.09371
27.3102
58.8591
2.76226
-59.3835
58.3357
2.69567
57.8135
2.62811
57.2925
2.55962
56.7725
2.49025
56.2535
2.42005
55.7353
2.34907
55.2179
2.27737
54.701
2.20499
54.1843
2.13199
53.6678
2.05843
53.1511
1.98436
52.6339
1.90983
52.1158
1.83492
51.5965
1.75967
51.0755
1.68415
50.5523
1.60841
50.0262
1.53254
49.4967
1.45659
48.963
1.38062
48.4242
1.30472
47.8793
1.22894
47.3273
1.15337
46.7669
1.07808
46.1966
1.00315
45.6147
0.928669
45.0192
0.854718
44.4076
0.781391
43.7772
0.708786
43.1244
0.637008
42.445
0.566168
41.7336
0.496392
40.983
0.427815
40.1838
0.360592
39.3237
0.2949
38.3864
0.230964
37.3422
0.169065
36.1168
0.109528
34.5569
0.0528147
32.4765
0
29.8502
-0.046715
26.9853
-0.0849293
24.3876
-0.114548
22.4134
-0.138585
21.1087
-0.16083
20.3267
-0.18363
19.8911
-0.207761
19.67
-0.233205
19.5807
-0.259731
19.5746
-0.287115
19.6238
-0.315193
19.7117
-0.343855
19.8279
-0.373026
19.9662
-0.402655
20.1221
-0.432702
20.2927
-0.463137
20.4758
-0.493935
20.67
-0.525072
20.8739
-0.556526
21.0868
-0.588277
21.3078
-0.620304
21.5364
-0.652588
21.7722
-0.685108
22.0148
-0.717844
22.2638
-0.750776
22.5191
-0.783884
22.7804
-0.817146
23.0475
-0.850541
23.3203
-0.88405
23.5986
-0.917649
23.8823
-0.951319
24.1713
-0.985036
24.4655
-1.01878
24.7651
-1.05252
25.0689
-1.08628
25.3805
-1.11989
25.6885
-1.15378
26.0276
-1.18648
-1.2226
26.2917
56.8882
3.05161
-57.3968
56.3807
2.97796
55.8747
2.90325
55.3698
2.82752
54.8662
2.75084
54.3637
2.67325
53.8621
2.59481
53.3614
2.51557
52.8613
2.4356
52.3617
2.35495
51.8624
2.27369
51.363
2.19187
50.8634
2.10955
50.3631
2.02681
49.8617
1.94371
49.3589
1.86031
48.8541
1.77669
48.3467
1.69291
47.8363
1.60905
47.3219
1.52518
46.8029
1.44138
46.2783
1.35772
45.747
1.27429
45.2078
1.19117
44.6594
1.10845
44.1001
1.02622
43.528
0.944574
42.9408
0.863616
42.3358
0.783451
41.7098
0.704194
41.0587
0.625967
40.3773
0.548907
39.6591
0.473162
38.895
0.398899
38.0736
0.326314
37.1796
0.255649
36.1857
0.18721
35.025
0.121351
33.5569
0.0585716
31.6024
0
29.1181
-0.0520226
26.3712
-0.0948124
23.839
-0.12803
21.883
-0.154801
20.5718
-0.17934
19.776
-0.204383
19.3267
-0.230887
19.0932
-0.258869
18.9926
-0.288072
18.9757
-0.318239
19.0143
-0.34918
19.0915
-0.380765
19.1971
-0.412907
19.3244
-0.445548
19.4692
-0.478641
19.6284
-0.512153
19.8
-0.546054
19.9824
-0.580318
20.1744
-0.614922
20.3751
-0.649842
20.5838
-0.685057
20.7999
-0.720544
21.023
-0.756281
21.2526
-0.792246
21.4886
-0.828417
21.7305
-0.864771
21.9783
-0.901286
22.2318
-0.937939
22.4907
-0.974707
22.7549
-1.01157
23.0244
-1.04849
23.299
-1.08546
23.5786
-1.12246
23.8633
-1.15944
24.1522
-1.19643
24.4484
-1.23325
24.7414
-1.27037
25.0636
-1.30619
-1.34567
25.3158
54.9825
3.32985
-55.4756
54.4908
3.24941
54.0005
3.16782
53.5115
3.08514
53.0239
3.00141
52.5375
2.91671
52.0521
2.83109
51.5677
2.74462
51.0841
2.65735
50.6011
2.56934
50.1185
2.48068
49.6361
2.39141
49.1535
2.30162
48.6704
2.21136
48.1864
2.12072
47.7012
2.02975
47.2143
1.93855
46.7251
1.84718
46.2331
1.75572
45.7375
1.66426
45.2376
1.57287
44.7325
1.48164
44.2212
1.39066
43.7025
1.30003
43.1752
1.20982
42.6376
1.12015
42.088
1.03111
41.5243
0.942823
40.9438
0.855394
40.3434
0.768949
39.7193
0.683621
39.0668
0.599556
38.3795
0.516916
37.6491
0.43588
36.8647
0.356659
36.0119
0.279511
35.0659
0.204764
33.9662
0.132803
32.5843
0.0641576
30.7488
0
28.4012
-0.0572153
25.7708
-0.104539
23.3056
-0.14135
21.3697
-0.170827
20.0533
-0.197576
19.2445
-0.224741
18.7817
-0.253489
18.5362
-0.283878
18.4246
-0.315631
18.3976
-0.348456
18.4261
-0.382134
18.4933
-0.416515
18.5886
-0.451502
18.7056
-0.487023
18.8399
-0.523029
18.9885
-0.559481
19.1492
-0.596345
19.3205
-0.633595
19.5011
-0.671203
19.6903
-0.709145
19.8873
-0.747396
20.0916
-0.785932
20.3026
-0.824729
20.52
-0.863763
20.7435
-0.903011
20.9729
-0.942448
21.2079
-0.98205
21.4484
-1.02179
21.6942
-1.06165
21.9451
-1.10159
22.201
-1.14161
22.462
-1.18165
22.7277
-1.22172
22.9984
-1.26176
23.273
-1.3018
23.5546
-1.34165
23.8335
-1.38181
24.1397
-1.42059
-1.46322
24.3804
53.1402
3.59736
-53.618
52.6638
3.51039
52.1889
3.42218
51.7155
3.33281
51.2435
3.24232
50.7728
3.15078
50.3033
3.05827
49.8349
2.96483
49.3674
2.87054
48.9005
2.77548
48.4342
2.6797
47.9682
2.58328
47.5021
2.4863
47.0357
2.38883
46.5687
2.29094
46.1006
2.19271
45.631
2.09423
45.1593
1.99557
44.6851
1.89682
44.2076
1.79806
43.7262
1.69939
43.2399
1.6009
42.7479
1.50267
42.249
1.40481
41.742
1.30741
41.2254
1.21059
40.6975
1.11446
40.1562
1.01912
39.5992
0.924715
39.0235
0.831362
38.4254
0.739208
37.8005
0.648409
37.1428
0.559136
36.4446
0.471582
35.6954
0.385971
34.882
0.302578
33.9815
0.221749
32.9394
0.143895
31.6385
0.0695778
29.9153
0
27.6991
-0.062294
25.1835
-0.114108
22.7868
-0.154515
20.8731
-0.186674
19.5527
-0.215559
18.7312
-0.244734
18.2554
-0.275596
17.9982
-0.308266
17.8762
-0.342445
17.8393
-0.377805
17.8583
-0.4141
17.916
-0.451158
18.0018
-0.488865
18.109
-0.527142
18.2334
-0.565934
18.3718
-0.605195
18.5222
-0.644892
18.683
-0.684992
18.853
-0.725466
19.0313
-0.766288
19.2173
-0.807431
19.4103
-0.84887
19.6099
-0.890579
19.8157
-0.932533
20.0275
-0.974704
20.2449
-1.01707
20.4678
-1.0596
20.696
-1.10227
20.9293
-1.14505
21.1676
-1.18792
21.4107
-1.23085
21.6587
-1.27381
21.9112
-1.31678
22.1685
-1.35972
22.4297
-1.40264
22.6975
-1.44535
22.9628
-1.48837
23.2538
-1.52994
-1.57552
23.4837
51.3592
3.85452
-51.822
50.8978
3.76126
50.4381
3.6667
49.9799
3.57089
49.5232
3.4739
49.0679
3.3758
48.6138
3.27665
48.1609
3.17653
47.709
3.07551
47.2579
2.97365
46.8074
2.87105
46.3573
2.76776
45.9073
2.66388
45.4572
2.55947
45.0065
2.45463
44.555
2.34943
44.1022
2.24395
43.6475
2.1383
43.1905
2.03254
42.7305
1.92679
42.2669
1.82112
41.7989
1.71565
41.3254
1.61046
40.8456
1.50566
40.3581
1.40137
39.8617
1.29768
39.3546
1.19473
38.835
1.09263
38.3005
0.991512
37.7484
0.891521
37.1752
0.792805
36.5768
0.695529
35.9475
0.599877
35.28
0.506051
34.5645
0.414287
33.7886
0.324877
32.9313
0.238182
31.9437
0.15464
30.7187
0.074837
29.1016
0
27.0113
-0.0672597
24.6088
-0.12352
22.2818
-0.167525
20.3923
-0.202355
19.0692
-0.23331
18.2358
-0.264386
17.7472
-0.29724
17.4787
-0.332065
17.3465
-0.368548
17.3003
-0.406327
17.3102
-0.445122
17.3589
-0.484739
17.4356
-0.525049
17.5336
-0.565964
17.6486
-0.60742
17.7775
-0.649368
17.9182
-0.69177
18.069
-0.734592
18.2289
-0.777801
18.397
-0.82137
18.5725
-0.86527
18.7548
-0.909473
18.9436
-0.953953
19.1385
-0.998683
19.3391
-1.04363
19.5452
-1.08878
19.7567
-1.13409
19.9732
-1.17954
20.1947
-1.2251
20.421
-1.27074
20.6519
-1.31643
20.8876
-1.36214
21.1276
-1.40786
21.3723
-1.45352
21.6206
-1.49917
21.8753
-1.54458
22.1278
-1.5903
22.4044
-1.6345
-1.68284
22.6239
49.6377
4.10168
-50.0858
49.1911
4.00238
48.7461
3.90171
48.3028
3.79972
47.861
3.69648
47.4207
3.59207
46.9817
3.48656
46.5439
3.38002
46.1071
3.27253
45.6713
3.16416
45.2362
3.05499
44.8016
2.94512
44.3673
2.83461
43.9328
2.72355
43.4981
2.61202
43.0626
2.50013
42.6259
2.38795
42.1877
2.27557
41.7474
2.1631
41.3043
2.05062
40.8579
1.93825
40.4074
1.82607
39.9518
1.7142
39.4903
1.60275
39.0217
1.49182
38.5447
1.38154
38.0576
1.27204
37.5588
1.16344
37.046
1.05588
36.5165
0.949507
35.9673
0.844484
35.3942
0.740981
34.792
0.639192
34.1538
0.53933
33.4706
0.441644
32.7305
0.346434
31.9143
0.254083
30.978
0.165048
29.8243
0.0799393
28.307
0
26.3373
-0.0721125
24.0458
-0.132774
21.7898
-0.180384
19.9266
-0.217881
18.6021
-0.250848
17.7574
-0.283724
17.2564
-0.318447
16.9768
-0.355305
16.8349
-0.393974
16.7796
-0.434058
16.781
-0.475241
16.8211
-0.517306
16.8893
-0.560107
16.9786
-0.603546
17.0848
-0.64755
17.2046
-0.692067
17.3361
-0.737055
17.4776
-0.782475
17.6279
-0.828295
17.7862
-0.874483
17.9518
-0.921011
18.1241
-0.967848
18.3027
-1.01497
18.4872
-1.06234
18.6772
-1.10993
18.8726
-1.15771
19.0732
-1.20566
19.2787
-1.25375
19.4889
-1.30194
19.7039
-1.3502
19.9233
-1.39851
20.1472
-1.44683
20.3754
-1.49514
20.608
-1.54339
20.8442
-1.5916
21.0865
-1.63956
21.3268
-1.68782
21.5897
-1.73451
-1.78544
21.7994
47.9738
4.33919
-48.4077
47.5416
4.2341
47.1112
4.12755
46.6823
4.01963
46.2551
3.91039
45.8293
3.79993
45.4049
3.6883
44.9819
3.5756
44.5599
3.46189
44.139
3.34727
43.7188
3.23182
43.2992
3.11561
42.88
2.99874
42.4608
2.88129
42.0414
2.76336
41.6215
2.64504
41.2005
2.52642
40.7782
2.4076
40.3539
2.28867
39.9272
2.16975
39.4974
2.05093
39.0638
1.93232
38.6255
1.81404
38.1817
1.69619
37.7312
1.5789
37.2728
1.4623
36.805
1.3465
36.3261
1.23166
35.8341
1.1179
35.3264
1.0054
34.8001
0.894315
34.2512
0.784826
33.675
0.677134
33.0649
0.571463
32.4124
0.468073
31.7065
0.367276
30.9293
0.26947
30.0415
0.175129
28.9546
0.0848893
27.5313
0
25.6769
-0.0768534
23.4941
-0.14187
21.3101
-0.193093
19.4753
-0.233261
18.1509
-0.268193
17.2955
-0.302771
16.7824
-0.339247
16.492
-0.378017
16.3406
-0.418757
16.2768
-0.461034
16.2699
-0.504496
16.302
-0.548902
16.362
-0.594086
16.4432
-0.639939
16.541
-0.686382
16.6523
-0.733356
16.7751
-0.780815
16.9077
-0.828718
17.049
-0.87703
17.1981
-0.925718
17.3544
-0.97475
17.5171
-1.0241
17.686
-1.07373
17.8606
-1.12361
18.0407
-1.17371
18.2259
-1.224
18.4162
-1.27446
18.6112
-1.32505
18.8108
-1.37573
19.015
-1.42648
19.2235
-1.47726
19.4363
-1.52805
19.6532
-1.57881
19.8744
-1.6295
20.0991
-1.68014
20.3295
-1.73051
20.5582
-1.78116
20.8082
-1.8302
-1.88355
21.0085
46.3659
4.5674
-46.7857
45.9478
4.45674
45.5314
4.34456
45.1166
4.23094
44.7036
4.11595
44.292
3.99967
43.8819
3.88217
43.4731
3.76355
43.0655
3.64389
42.659
3.52327
42.2533
3.40177
41.8483
3.27949
41.4438
3.15652
41.0394
3.03295
40.6349
2.90887
40.2299
2.78438
39.8241
2.65958
39.4171
2.53457
39.0084
2.40946
38.5975
2.28434
38.1837
2.15934
37.7664
2.03456
37.3447
1.91012
36.9179
1.78614
36.4849
1.66274
36.0444
1.54005
35.5951
1.41822
35.1354
1.29738
34.6634
1.17768
34.1765
1.05928
33.6721
0.942368
33.1465
0.827121
32.5952
0.713751
32.0119
0.602491
31.3888
0.493608
30.7153
0.387428
29.9754
0.284359
29.1332
0.184895
28.109
0.0896913
26.7741
0
25.0296
-0.0814831
22.9532
-0.150805
20.842
-0.205651
19.0377
-0.248503
17.7149
-0.285361
16.8495
-0.321552
16.3246
-0.359666
16.0236
-0.400232
15.8631
-0.442929
15.791
-0.487289
15.7763
-0.532927
15.8008
-0.579569
15.8531
-0.627033
15.9265
-0.675197
16.0164
-0.723973
16.1197
-0.773296
16.2343
-0.823117
16.3585
-0.873393
16.4913
-0.924084
16.6317
-0.975158
16.7791
-1.02658
16.9328
-1.07832
17.0925
-1.13034
17.2578
-1.18261
17.4284
-1.2351
17.604
-1.28778
17.7845
-1.34061
17.9696
-1.39357
18.1591
-1.44662
18.353
-1.49972
18.5512
-1.55285
18.7535
-1.60598
18.9597
-1.65906
19.1701
-1.71205
19.3838
-1.76497
19.603
-1.81761
19.8207
-1.87053
20.0584
-1.92178
-1.97739
20.2497
44.8121
4.78664
-45.2182
44.4077
4.67063
44.005
4.55305
43.604
4.43396
43.2047
4.31344
42.807
4.19158
42.4107
4.06846
42.0159
3.94417
41.6222
3.81879
41.2297
3.69241
40.8381
3.56512
40.4472
3.43701
40.0568
3.30819
39.6667
3.17874
39.2766
3.04876
38.8862
2.91836
38.4951
2.78763
38.1029
2.65668
37.7092
2.52563
37.3135
2.39458
36.9151
2.26364
36.5135
2.13294
36.1079
2.00259
35.6975
1.87271
35.2812
1.74345
34.858
1.61493
34.4266
1.48729
33.9853
1.36069
33.5323
1.23528
33.0655
1.11122
32.5821
0.988707
32.0788
0.867924
31.5512
0.749092
30.9936
0.632452
30.3985
0.51828
29.756
0.406913
29.0514
0.298767
28.2524
0.194356
27.2869
0.0943497
26.035
-1.82367e-07
24.3952
-0.0860023
22.4226
-0.159579
20.3849
-0.218059
18.6131
-0.263614
17.2934
-0.30237
16.4189
-0.340091
15.8825
-0.379732
15.5711
-0.421977
15.4017
-0.466519
15.3217
-0.512858
15.2996
-0.560568
15.3167
-0.609347
15.3619
-0.658992
15.4279
-0.709367
15.5104
-0.760374
15.606
-0.811946
15.7128
-0.864026
15.8292
-0.916568
15.9539
-0.969533
16.0861
-1.02288
16.225
-1.07658
16.3703
-1.1306
16.5213
-1.1849
16.6778
-1.23944
16.8394
-1.2942
17.0058
-1.34915
17.177
-1.40424
17.3527
-1.45945
17.5327
-1.51475
17.7169
-1.57008
17.9052
-1.62543
18.0975
-1.68076
18.2936
-1.73604
18.4937
-1.79121
18.697
-1.8463
18.9056
-1.90108
19.1129
-1.95612
19.3388
-2.00947
-2.0672
19.5217
43.3107
4.99722
-43.7035
42.9196
4.87609
42.5303
4.75332
42.1427
4.62899
41.7568
4.50317
41.3725
4.37597
40.9897
4.24745
40.6084
4.11772
40.2282
3.98685
39.8493
3.85495
39.4713
3.7221
39.0941
3.58841
38.7175
3.45397
38.3413
3.31888
37.9651
3.18325
37.5887
3.04717
37.2118
2.91076
36.8339
2.77412
36.4547
2.63737
36.0736
2.50062
35.6902
2.36399
35.3037
2.2276
34.9136
2.09158
34.5189
1.95605
34.1188
1.82116
33.7121
1.68703
33.2978
1.55383
32.8742
1.42169
32.4396
1.29079
31.992
1.1613
31.5287
1.03339
31.0467
0.907289
30.5418
0.783203
30.0087
0.661385
29.4403
0.542121
28.8275
0.425753
28.1564
0.312711
27.3982
0.203521
26.4878
0.0988683
25.3137
0
23.7735
-0.0904124
21.902
-0.168191
19.9382
-0.230315
18.2009
-0.278599
16.886
-0.319235
16.003
-0.35841
15.4554
-0.399471
15.134
-0.443281
14.9559
-0.48956
14.8682
-0.537773
14.839
-0.587456
14.8492
-0.638275
14.8875
-0.690005
14.9466
-0.742495
15.022
-0.795639
15.1105
-0.849361
15.21
-0.903601
15.3188
-0.95831
15.4359
-1.01345
15.5603
-1.06897
15.6914
-1.12484
15.8285
-1.18103
15.9713
-1.2375
16.1194
-1.29421
16.2725
-1.35113
16.4304
-1.40823
16.5927
-1.46547
16.7595
-1.52282
16.9304
-1.58024
17.1054
-1.63769
17.2844
-1.69515
17.4672
-1.75257
17.6537
-1.80992
17.844
-1.86714
18.0375
-1.92427
18.2359
-1.98108
18.4333
-2.03812
18.6482
-2.09345
-2.15316
18.8229
41.8601
5.19947
-42.2399
41.482
5.07343
41.1057
4.94568
40.7311
4.81632
40.3583
4.68543
39.987
4.5531
39.6173
4.41941
39.249
4.28445
38.882
4.14833
38.5162
4.01113
38.1514
3.87296
37.7875
3.73391
37.4242
3.59409
37.0613
3.45359
36.6986
3.31253
36.3358
3.17101
35.9726
3.02915
35.6085
2.88705
35.2433
2.74483
34.8764
2.60262
34.5073
2.46053
34.1354
2.31868
33.7601
2.17722
33.3806
2.03627
32.996
1.89597
32.6054
1.75647
32.2074
1.61791
31.8008
1.48047
31.3838
1.34429
30.9546
1.20957
30.5107
1.07649
30.0491
0.945269
29.5659
0.816128
29.0562
0.689327
28.5133
0.565158
27.9287
0.443972
27.2895
0.326206
26.5699
0.2124
25.7111
0.103252
24.6099
0
23.1643
-0.0947136
21.3909
-0.176639
19.5014
-0.242415
17.8004
-0.293463
16.492
-0.33597
15.6013
-0.376531
15.043
-0.41891
14.7116
-0.464172
14.5251
-0.512079
14.43
-0.562065
14.3939
-0.613625
14.3976
-0.66639
14.4294
-0.720113
14.482
-0.774627
14.5507
-0.829815
14.6325
-0.885594
14.725
-0.9419
14.8268
-0.998681
14.9366
-1.05589
15.0537
-1.11349
15.1772
-1.17144
15.3067
-1.22969
15.4417
-1.28823
15.5819
-1.347
15.7269
-1.40598
15.8766
-1.46513
16.0306
-1.52441
16.1889
-1.58379
16.3512
-1.64323
16.5175
-1.70269
16.6876
-1.76213
16.8614
-1.82153
17.0388
-1.88084
17.2199
-1.94002
17.404
-1.99907
17.5928
-2.05778
17.7808
-2.11672
17.9851
-2.1739
-2.23547
18.1522
40.4586
5.39369
-40.8257
40.0931
5.26294
39.7294
5.13043
39.3675
4.99625
39.0073
4.86049
38.6487
4.72324
38.2917
4.58459
37.9361
4.44463
37.5818
4.30347
37.2287
4.1612
36.8767
4.01792
36.5256
3.87374
36.1752
3.72875
35.8253
3.58308
35.4757
3.43681
35.126
3.29008
34.7759
3.14298
34.4252
2.99565
34.0735
2.84819
33.7202
2.70073
33.365
2.5534
33.0072
2.40633
32.6462
2.25964
32.2813
2.11349
31.9116
1.968
31.5363
1.82334
31.1541
1.67965
30.7638
1.5371
30.3637
1.39586
29.9522
1.25611
29.5267
1.11806
29.0846
0.981914
28.6223
0.847911
28.1349
0.716313
27.6164
0.58742
27.0587
0.46159
26.4499
0.339267
25.7666
0.221002
24.9562
0.107503
23.9234
0
22.5673
-0.0989076
20.8891
-0.184921
19.0738
-0.254359
17.4111
-0.308207
16.1108
-0.352588
15.2134
-0.394476
14.6446
-0.438073
14.3035
-0.484677
14.1087
-0.534105
14.0064
-0.585764
13.9639
-0.639106
13.9613
-0.693728
13.987
-0.749355
14.0333
-0.805804
14.0958
-0.862947
14.1711
-0.920695
14.2571
-0.978978
14.3522
-1.03774
14.4552
-1.09693
14.5653
-1.15651
14.6818
-1.21644
14.804
-1.27667
14.9317
-1.33718
15.0643
-1.39792
15.2017
-1.45885
15.3436
-1.51995
15.4898
-1.58117
15.64
-1.64247
15.7942
-1.70382
15.9522
-1.76519
16.1139
-1.82652
16.2792
-1.88779
16.4479
-1.94896
16.6202
-2.00997
16.7954
-2.07084
16.9751
-2.13136
17.1541
-2.19207
17.3485
-2.25102
-2.31431
17.5081
39.1046
5.58018
-39.4594
38.7514
5.44491
38.4
5.30784
38.0504
5.16904
37.7024
5.02862
37.3561
4.88666
37.0114
4.74326
36.6681
4.59851
36.3261
4.45252
35.9854
4.30538
35.6458
4.15721
35.3071
4.00811
34.9692
3.85817
34.6318
3.70753
34.2947
3.55628
33.9577
3.40454
33.6204
3.25244
33.2826
3.10008
32.9438
2.9476
32.6037
2.79511
32.2618
2.64276
31.9175
2.49066
31.5703
2.33897
31.2195
2.18782
30.8642
2.03735
30.5036
1.88773
30.1365
1.73911
29.7619
1.59166
29.3781
1.44555
28.9834
1.30098
28.5757
1.15815
28.1523
1.01727
27.7098
0.878592
27.2438
0.742377
26.7486
0.608935
26.2164
0.478628
25.6365
0.351909
24.9877
0.229335
24.2226
0.111627
23.2537
0
21.9824
-0.102995
20.3962
-0.193036
18.6551
-0.266142
17.0323
-0.322834
15.7419
-0.369101
14.8388
-0.412265
14.2599
-0.456985
13.9092
-0.504824
13.7063
-0.555667
13.5971
-0.6089
13.5483
-0.663933
13.5398
-0.720322
13.5595
-0.777768
13.6001
-0.836067
13.6566
-0.895082
13.7259
-0.954713
13.8057
-1.01489
13.8945
-1.07554
13.991
-1.13663
14.0945
-1.1981
14.2043
-1.25992
14.3197
-1.32204
14.4403
-1.38442
14.5659
-1.44703
14.696
-1.50983
14.8305
-1.57278
14.9692
-1.63584
15.1119
-1.69897
15.2583
-1.76214
15.4084
-1.82531
15.5622
-1.88843
15.7193
-1.95147
15.8799
-2.0144
16.0438
-2.07715
16.2105
-2.13974
16.3816
-2.20195
16.5521
-2.26434
16.737
-2.32495
-2.38987
16.8897
37.7965
5.75921
-38.1395
37.4553
5.61963
37.1158
5.47818
36.7781
5.33497
36.4421
5.19008
36.1077
5.0436
35.7749
4.89565
35.4435
4.74631
35.1135
4.5957
34.7847
4.4439
34.4571
4.29104
34.1304
4.13722
33.8045
3.98255
33.4792
3.82714
33.1543
3.67111
32.8295
3.51458
32.5046
3.35767
32.1792
3.2005
31.8529
3.0432
31.5255
2.88589
31.1964
2.72872
30.8652
2.57181
30.5313
2.41531
30.1939
2.25937
29.8524
2.10413
29.506
1.94975
29.1535
1.79639
28.7938
1.64424
28.4256
1.49346
28.0471
1.34425
27.6564
1.19682
27.2509
1.05139
26.8274
0.908211
26.3819
0.767553
25.9088
0.629728
25.4011
0.495106
24.8486
0.364145
24.2323
0.237409
23.5098
0.115628
22.6007
-1.83476e-07
21.4093
-0.106978
19.9119
-0.200983
18.2447
-0.27776
16.6635
-0.337343
15.3847
-0.385517
14.4769
-0.429917
13.8883
-0.475672
13.5281
-0.524639
13.3173
-0.576792
13.2014
-0.631502
13.1465
-0.688134
13.1324
-0.746206
13.1466
-0.805387
13.1816
-0.865456
13.2325
-0.92626
13.296
-0.987694
13.37
-1.04968
13.4528
-1.11214
13.5433
-1.17504
13.6406
-1.23832
13.7439
-1.30194
13.8529
-1.36586
13.9669
-1.43004
14.0857
-1.49443
14.209
-1.559
14.3366
-1.62371
14.4681
-1.68853
14.6036
-1.7534
14.7427
-1.81829
14.8854
-1.88317
15.0315
-1.94799
15.181
-2.01271
15.3337
-2.07729
15.4897
-2.14169
15.6484
-2.2059
15.8113
-2.26972
15.9737
-2.33368
16.1497
-2.39586
-2.46229
16.2956
36.5329
5.93108
-36.8643
36.2033
5.78736
35.8754
5.64173
35.5493
5.49428
35.2248
5.34511
34.902
5.19432
34.5807
5.04201
34.2608
4.88828
33.9424
4.73323
33.6252
4.57697
33.3091
4.41962
32.9941
4.26128
32.6798
4.10207
32.3662
3.9421
32.053
3.78149
31.74
3.62037
31.427
3.45885
31.1136
3.29707
30.7994
3.13515
30.4842
2.97322
30.1675
2.81142
29.8489
2.6499
29.5277
2.48879
29.2033
2.32825
28.8751
2.16842
28.5422
2.00948
28.2037
1.85158
27.8585
1.6949
27.5052
1.53963
27.1423
1.38597
26.7678
1.23412
26.3794
1.08432
25.9741
0.936807
25.5481
0.79187
25.0961
0.649825
24.6117
0.511044
24.0853
0.375989
23.4999
0.245232
22.8172
0.119508
21.964
0
20.8481
-0.110857
19.4361
-0.208761
17.8421
-0.289209
16.3042
-0.351732
15.0388
-0.401847
14.1272
-0.447451
13.5294
-0.494156
13.16
-0.544148
12.9413
-0.597507
12.8189
-0.653598
12.7582
-0.71174
12.7386
-0.77141
12.7476
-0.832247
12.7773
-0.894006
12.8229
-0.956523
12.881
-1.01968
12.9495
-1.08339
13.0267
-1.14759
13.1114
-1.21222