/*--------------------------------*- C++ -*----------------------------------*\
| =========                 |                                                 |
| \\      /  F ield         | OpenFOAM: The Open Source CFD Toolbox           |
|  \\    /   O peration     | Version:  2206                                  |
|   \\  /    A nd           | Website:  www.openfoam.com                      |
|    \\/     M anipulation  |                                                 |
\*---------------------------------------------------------------------------*/
FoamFile
{
    version     2.0;
    format      ascii;
    arch        "LSB;label=32;scalar=64";
    class       volScalarField;
    location    "2.85";
    object      wave;
}
// * * * * * * * * * * * * * * * * * * * * * * * * * * * * * * * * * * * * * //

dimensions      [0 0 0 0 0 0 0];

internalField   nonuniform List<scalar> 
100
(
0.210669
0.0535676
-0.10488
-0.260692
-0.409956
-0.54892
-0.674095
-0.782334
-0.87092
-0.937626
-0.980777
-0.999288
-0.992696
-0.961164
-0.905486
-0.82706
-0.727857
-0.610368
-0.477545
-0.332726
-0.179547
-0.0218583
0.13638
0.291192
0.438689
0.575164
0.697191
0.801702
0.886073
0.948184
0.986474
0.999982
0.988368
0.951924
0.891566
0.808809
0.705734
0.584929
0.449429
0.302638
0.148245
-0.00987304
-0.167743
-0.321398
-0.46698
-0.600829
-0.719585
-0.820263
-0.900334
-0.957787
-0.991178
-0.999669
-0.983045
-0.941726
-0.876748
-0.789744
-0.6829
-0.5589
-0.420859
-0.272246
-0.116793
0.0415944
0.198937
0.351281
0.494801
0.62589
0.741255
0.837998
0.913689
0.966426
0.994884
0.998349
0.976733
0.930579
0.861047
0.769883
0.659379
0.532309
0.391866
0.241579
0.0852232
-0.0732739
-0.22993
-0.38081
-0.522123
-0.650319
-0.762178
-0.854889
-0.926124
-0.974092
-0.997589
-0.996024
-0.969437
-0.918495
-0.844479
-0.749247
-0.635193
-0.505182
-0.362479
-0.210669
)
;

boundaryField
{
    movingWall
    {
        type            calculated;
        value           uniform 0;
    }
    fixedWalls
    {
        type            calculated;
        value           uniform 0;
    }
    frontAndBack
    {
        type            empty;
    }
}


// ************************************************************************* //
