/*--------------------------------*- C++ -*----------------------------------*\
| =========                 |                                                 |
| \\      /  F ield         | OpenFOAM: The Open Source CFD Toolbox           |
|  \\    /   O peration     | Version:  2312                                  |
|   \\  /    A nd           | Website:  www.openfoam.com                      |
|    \\/     M anipulation  |                                                 |
\*---------------------------------------------------------------------------*/
FoamFile
{
    version     2.0;
    format      ascii;
    arch        "LSB;label=32;scalar=64";
    class       volVectorField;
    location    "3";
    object      flux;
}
// * * * * * * * * * * * * * * * * * * * * * * * * * * * * * * * * * * * * * //

dimensions      [0 1 -1 1 0 0 0];

internalField   nonuniform List<vector> 
100
(
(-5.08486 0 0)
(-4.72121 0 0)
(-4.37086 0 0)
(-4.03376 0 0)
(-3.70982 0 0)
(-3.39892 0 0)
(-3.10091 0 0)
(-2.81564 0 0)
(-2.54293 0 0)
(-2.28257 0 0)
(-2.03435 0 0)
(-1.79804 0 0)
(-1.57339 0 0)
(-1.36016 0 0)
(-1.15806 0 0)
(-0.966839 0 0)
(-0.786201 0 0)
(-0.615863 0 0)
(-0.455528 0 0)
(-0.3049 0 0)
(-0.163676 0 0)
(-0.0315549 0 0)
(0.0917695 0 0)
(0.206602 0 0)
(0.313247 0 0)
(0.41201 0 0)
(0.503191 0 0)
(0.58709 0 0)
(0.664006 0 0)
(0.73423 0 0)
(0.798053 0 0)
(0.855759 0 0)
(0.907629 0 0)
(0.953938 0 0)
(0.994956 0 0)
(1.03095 0 0)
(1.06217 0 0)
(1.08887 0 0)
(1.1113 0 0)
(1.1297 0 0)
(1.14429 0 0)
(1.15531 0 0)
(1.16297 0 0)
(1.16747 0 0)
(1.16904 0 0)
(1.16785 0 0)
(1.16411 0 0)
(1.15798 0 0)
(1.14966 0 0)
(1.1393 0 0)
(1.12707 0 0)
(1.11312 0 0)
(1.0976 0 0)
(1.08064 0 0)
(1.06239 0 0)
(1.04296 0 0)
(1.02249 0 0)
(1.00107 0 0)
(0.978829 0 0)
(0.955857 0 0)
(0.932252 0 0)
(0.908103 0 0)
(0.883495 0 0)
(0.858507 0 0)
(0.83321 0 0)
(0.807672 0 0)
(0.781957 0 0)
(0.756121 0 0)
(0.730218 0 0)
(0.704295 0 0)
(0.678396 0 0)
(0.652561 0 0)
(0.626825 0 0)
(0.601219 0 0)
(0.575771 0 0)
(0.550504 0 0)
(0.525438 0 0)
(0.50059 0 0)
(0.475974 0 0)
(0.451601 0 0)
(0.427477 0 0)
(0.403608 0 0)
(0.379997 0 0)
(0.356642 0 0)
(0.333542 0 0)
(0.310691 0 0)
(0.288083 0 0)
(0.26571 0 0)
(0.24356 0 0)
(0.221622 0 0)
(0.199883 0 0)
(0.178328 0 0)
(0.156939 0 0)
(0.135701 0 0)
(0.114596 0 0)
(0.0936031 0 0)
(0.0727043 0 0)
(0.0518788 0 0)
(0.0311061 0 0)
(0.0103652 0 0)
)
;

boundaryField
{
    movingWall
    {
        type            calculated;
        value           uniform (-5.27001 0 0);
    }
    fixedWalls
    {
        type            calculated;
        value           nonuniform List<vector> 
201
(
(-5.08486 0 0)
(-4.72121 0 0)
(-4.37086 0 0)
(-4.03376 0 0)
(-3.70982 0 0)
(-3.39892 0 0)
(-3.10091 0 0)
(-2.81564 0 0)
(-2.54293 0 0)
(-2.28257 0 0)
(-2.03435 0 0)
(-1.79804 0 0)
(-1.57339 0 0)
(-1.36016 0 0)
(-1.15806 0 0)
(-0.966839 0 0)
(-0.786201 0 0)
(-0.615863 0 0)
(-0.455528 0 0)
(-0.3049 0 0)
(-0.163676 0 0)
(-0.0315549 0 0)
(0.0917695 0 0)
(0.206602 0 0)
(0.313247 0 0)
(0.41201 0 0)
(0.503191 0 0)
(0.58709 0 0)
(0.664006 0 0)
(0.73423 0 0)
(0.798053 0 0)
(0.855759 0 0)
(0.907629 0 0)
(0.953938 0 0)
(0.994956 0 0)
(1.03095 0 0)
(1.06217 0 0)
(1.08887 0 0)
(1.1113 0 0)
(1.1297 0 0)
(1.14429 0 0)
(1.15531 0 0)
(1.16297 0 0)
(1.16747 0 0)
(1.16904 0 0)
(1.16785 0 0)
(1.16411 0 0)
(1.15798 0 0)
(1.14966 0 0)
(1.1393 0 0)
(1.12707 0 0)
(1.11312 0 0)
(1.0976 0 0)
(1.08064 0 0)
(1.06239 0 0)
(1.04296 0 0)
(1.02249 0 0)
(1.00107 0 0)
(0.978829 0 0)
(0.955857 0 0)
(0.932252 0 0)
(0.908103 0 0)
(0.883495 0 0)
(0.858507 0 0)
(0.83321 0 0)
(0.807672 0 0)
(0.781957 0 0)
(0.756121 0 0)
(0.730218 0 0)
(0.704295 0 0)
(0.678396 0 0)
(0.652561 0 0)
(0.626825 0 0)
(0.601219 0 0)
(0.575771 0 0)
(0.550504 0 0)
(0.525438 0 0)
(0.50059 0 0)
(0.475974 0 0)
(0.451601 0 0)
(0.427477 0 0)
(0.403608 0 0)
(0.379997 0 0)
(0.356642 0 0)
(0.333542 0 0)
(0.310691 0 0)
(0.288083 0 0)
(0.26571 0 0)
(0.24356 0 0)
(0.221622 0 0)
(0.199883 0 0)
(0.178328 0 0)
(0.156939 0 0)
(0.135701 0 0)
(0.114596 0 0)
(0.0936031 0 0)
(0.0727043 0 0)
(0.0518788 0 0)
(0.0311061 0 0)
(0.0103652 0 0)
(0 0 0)
(-5.08486 0 0)
(-4.72121 0 0)
(-4.37086 0 0)
(-4.03376 0 0)
(-3.70982 0 0)
(-3.39892 0 0)
(-3.10091 0 0)
(-2.81564 0 0)
(-2.54293 0 0)
(-2.28257 0 0)
(-2.03435 0 0)
(-1.79804 0 0)
(-1.57339 0 0)
(-1.36016 0 0)
(-1.15806 0 0)
(-0.966839 0 0)
(-0.786201 0 0)
(-0.615863 0 0)
(-0.455528 0 0)
(-0.3049 0 0)
(-0.163676 0 0)
(-0.0315549 0 0)
(0.0917695 0 0)
(0.206602 0 0)
(0.313247 0 0)
(0.41201 0 0)
(0.503191 0 0)
(0.58709 0 0)
(0.664006 0 0)
(0.73423 0 0)
(0.798053 0 0)
(0.855759 0 0)
(0.907629 0 0)
(0.953938 0 0)
(0.994956 0 0)
(1.03095 0 0)
(1.06217 0 0)
(1.08887 0 0)
(1.1113 0 0)
(1.1297 0 0)
(1.14429 0 0)
(1.15531 0 0)
(1.16297 0 0)
(1.16747 0 0)
(1.16904 0 0)
(1.16785 0 0)
(1.16411 0 0)
(1.15798 0 0)
(1.14966 0 0)
(1.1393 0 0)
(1.12707 0 0)
(1.11312 0 0)
(1.0976 0 0)
(1.08064 0 0)
(1.06239 0 0)
(1.04296 0 0)
(1.02249 0 0)
(1.00107 0 0)
(0.978829 0 0)
(0.955857 0 0)
(0.932252 0 0)
(0.908103 0 0)
(0.883495 0 0)
(0.858507 0 0)
(0.83321 0 0)
(0.807672 0 0)
(0.781957 0 0)
(0.756121 0 0)
(0.730218 0 0)
(0.704295 0 0)
(0.678396 0 0)
(0.652561 0 0)
(0.626825 0 0)
(0.601219 0 0)
(0.575771 0 0)
(0.550504 0 0)
(0.525438 0 0)
(0.50059 0 0)
(0.475974 0 0)
(0.451601 0 0)
(0.427477 0 0)
(0.403608 0 0)
(0.379997 0 0)
(0.356642 0 0)
(0.333542 0 0)
(0.310691 0 0)
(0.288083 0 0)
(0.26571 0 0)
(0.24356 0 0)
(0.221622 0 0)
(0.199883 0 0)
(0.178328 0 0)
(0.156939 0 0)
(0.135701 0 0)
(0.114596 0 0)
(0.0936031 0 0)
(0.0727043 0 0)
(0.0518788 0 0)
(0.0311061 0 0)
(0.0103652 0 0)
)
;
    }
    frontAndBack
    {
        type            empty;
    }
}


// ************************************************************************* //
