/*--------------------------------*- C++ -*----------------------------------*\
| =========                 |                                                 |
| \\      /  F ield         | OpenFOAM: The Open Source CFD Toolbox           |
|  \\    /   O peration     | Version:  2312                                  |
|   \\  /    A nd           | Website:  www.openfoam.com                      |
|    \\/     M anipulation  |                                                 |
\*---------------------------------------------------------------------------*/
FoamFile
{
    version     2.0;
    format      ascii;
    arch        "LSB;label=32;scalar=64";
    class       volScalarField;
    location    "3";
    object      gradTx;
}
// * * * * * * * * * * * * * * * * * * * * * * * * * * * * * * * * * * * * * //

dimensions      [0 -1 0 1 0 0 0];

internalField   nonuniform List<scalar> 
100
(
-5.08486
-4.72121
-4.37086
-4.03376
-3.70982
-3.39892
-3.10091
-2.81564
-2.54293
-2.28257
-2.03435
-1.79804
-1.57339
-1.36016
-1.15806
-0.966839
-0.786201
-0.615863
-0.455528
-0.3049
-0.163676
-0.0315549
0.0917695
0.206602
0.313247
0.41201
0.503191
0.58709
0.664006
0.73423
0.798053
0.855759
0.907629
0.953938
0.994956
1.03095
1.06217
1.08887
1.1113
1.1297
1.14429
1.15531
1.16297
1.16747
1.16904
1.16785
1.16411
1.15798
1.14966
1.1393
1.12707
1.11312
1.0976
1.08064
1.06239
1.04296
1.02249
1.00107
0.978829
0.955857
0.932252
0.908103
0.883495
0.858507
0.83321
0.807672
0.781957
0.756121
0.730218
0.704295
0.678396
0.652561
0.626825
0.601219
0.575771
0.550504
0.525438
0.50059
0.475974
0.451601
0.427477
0.403608
0.379997
0.356642
0.333542
0.310691
0.288083
0.26571
0.24356
0.221622
0.199883
0.178328
0.156939
0.135701
0.114596
0.0936031
0.0727043
0.0518788
0.0311061
0.0103652
)
;

boundaryField
{
    movingWall
    {
        type            calculated;
        value           uniform -5.27001;
    }
    fixedWalls
    {
        type            calculated;
        value           nonuniform List<scalar> 
201
(
-5.08486
-4.72121
-4.37086
-4.03376
-3.70982
-3.39892
-3.10091
-2.81564
-2.54293
-2.28257
-2.03435
-1.79804
-1.57339
-1.36016
-1.15806
-0.966839
-0.786201
-0.615863
-0.455528
-0.3049
-0.163676
-0.0315549
0.0917695
0.206602
0.313247
0.41201
0.503191
0.58709
0.664006
0.73423
0.798053
0.855759
0.907629
0.953938
0.994956
1.03095
1.06217
1.08887
1.1113
1.1297
1.14429
1.15531
1.16297
1.16747
1.16904
1.16785
1.16411
1.15798
1.14966
1.1393
1.12707
1.11312
1.0976
1.08064
1.06239
1.04296
1.02249
1.00107
0.978829
0.955857
0.932252
0.908103
0.883495
0.858507
0.83321
0.807672
0.781957
0.756121
0.730218
0.704295
0.678396
0.652561
0.626825
0.601219
0.575771
0.550504
0.525438
0.50059
0.475974
0.451601
0.427477
0.403608
0.379997
0.356642
0.333542
0.310691
0.288083
0.26571
0.24356
0.221622
0.199883
0.178328
0.156939
0.135701
0.114596
0.0936031
0.0727043
0.0518788
0.0311061
0.0103652
0
-5.08486
-4.72121
-4.37086
-4.03376
-3.70982
-3.39892
-3.10091
-2.81564
-2.54293
-2.28257
-2.03435
-1.79804
-1.57339
-1.36016
-1.15806
-0.966839
-0.786201
-0.615863
-0.455528
-0.3049
-0.163676
-0.0315549
0.0917695
0.206602
0.313247
0.41201
0.503191
0.58709
0.664006
0.73423
0.798053
0.855759
0.907629
0.953938
0.994956
1.03095
1.06217
1.08887
1.1113
1.1297
1.14429
1.15531
1.16297
1.16747
1.16904
1.16785
1.16411
1.15798
1.14966
1.1393
1.12707
1.11312
1.0976
1.08064
1.06239
1.04296
1.02249
1.00107
0.978829
0.955857
0.932252
0.908103
0.883495
0.858507
0.83321
0.807672
0.781957
0.756121
0.730218
0.704295
0.678396
0.652561
0.626825
0.601219
0.575771
0.550504
0.525438
0.50059
0.475974
0.451601
0.427477
0.403608
0.379997
0.356642
0.333542
0.310691
0.288083
0.26571
0.24356
0.221622
0.199883
0.178328
0.156939
0.135701
0.114596
0.0936031
0.0727043
0.0518788
0.0311061
0.0103652
)
;
    }
    frontAndBack
    {
        type            empty;
    }
}


// ************************************************************************* //
