/*--------------------------------*- C++ -*----------------------------------*\
| =========                 |                                                 |
| \\      /  F ield         | OpenFOAM: The Open Source CFD Toolbox           |
|  \\    /   O peration     | Version:  2312                                  |
|   \\  /    A nd           | Website:  www.openfoam.com                      |
|    \\/     M anipulation  |                                                 |
\*---------------------------------------------------------------------------*/
FoamFile
{
    version     2.0;
    format      ascii;
    arch        "LSB;label=32;scalar=64";
    class       volScalarField;
    location    "1";
    object      T;
}
// * * * * * * * * * * * * * * * * * * * * * * * * * * * * * * * * * * * * * //

dimensions      [0 0 0 1 0 0 0];

internalField   nonuniform List<scalar> 
100
(
0.442422
0.428604
0.428571
0.428571
0.428571
0.428571
0.428571
0.428571
0.428571
0.428571
0.428571
0.428571
0.428571
0.428571
0.428571
0.428571
0.428571
0.428571
0.428571
0.428571
0.428571
0.428571
0.428571
0.428571
0.428571
0.428571
0.428571
0.428571
0.428571
0.428571
0.428571
0.428571
0.428571
0.428571
0.428571
0.428571
0.428571
0.428571
0.428571
0.428571
0.428571
0.428571
0.428571
0.428571
0.428571
0.428571
0.428571
0.428571
0.428571
0.428571
0.428571
0.428571
0.428571
0.428571
0.428571
0.428571
0.428571
0.428571
0.428571
0.428571
0.428571
0.428571
0.428571
0.428571
0.428571
0.428571
0.428571
0.428571
0.428571
0.428571
0.428571
0.428571
0.428571
0.428571
0.428571
0.428571
0.428571
0.428571
0.428571
0.428571
0.428571
0.428571
0.428571
0.428571
0.428571
0.428571
0.428571
0.428571
0.428571
0.428571
0.428571
0.428571
0.428571
0.428571
0.428571
0.428571
0.428571
0.428571
0.428571
0.428571
)
;

boundaryField
{
    movingWall
    {
        type            uniformFixedValue;
        uniformValue    sine;
        uniformValueCoeffs
        {
            frequency       constant 4;
            scale           constant 1.5;
            level           constant 3;
        }
        value           uniform 3;
    }
    fixedWalls
    {
        type            zeroGradient;
    }
    frontAndBack
    {
        type            empty;
    }
}


// ************************************************************************* //
