/*--------------------------------*- C++ -*----------------------------------*\
| =========                 |                                                 |
| \\      /  F ield         | OpenFOAM: The Open Source CFD Toolbox           |
|  \\    /   O peration     | Version:  2312                                  |
|   \\  /    A nd           | Website:  www.openfoam.com                      |
|    \\/     M anipulation  |                                                 |
\*---------------------------------------------------------------------------*/
FoamFile
{
    version     2.0;
    format      ascii;
    arch        "LSB;label=32;scalar=64";
    class       surfaceScalarField;
    location    "0.27";
    object      phi;
}
// * * * * * * * * * * * * * * * * * * * * * * * * * * * * * * * * * * * * * //

dimensions      [0 3 -1 0 0 0 0];

oriented        oriented;

internalField   nonuniform List<scalar> 
62015
(
49.817
0.262212
-50.8806
48.7417
0.252668
47.6537
0.243068
46.5513
0.233421
45.4327
0.223732
44.2959
0.21401
43.1387
0.204262
41.9587
0.194495
40.7535
0.18472
39.5207
0.174945
38.2579
0.165184
36.9638
0.155453
35.6389
0.145776
34.2872
0.136189
32.9191
0.126747
31.5542
0.117533
30.2232
0.108657
28.965
0.10025
27.82
0.0924344
26.8214
0.0852945
25.9884
0.0788546
25.3246
0.0730787
24.8204
0.0678853
24.4584
0.0631701
24.2177
0.0588257
24.0779
0.0547532
24.0207
0.0508687
24.0304
0.0471042
24.0944
0.0434061
24.2025
0.0397327
24.3468
0.0360519
24.521
0.0323393
24.72
0.0285766
24.94
0.0247494
25.1779
0.0208474
25.4313
0.0168624
25.6981
0.0127889
25.977
0.0086223
26.2665
0.00435996
26.5657
0
26.8739
-0.00445873
27.1903
-0.00901613
27.5144
-0.0136727
27.846
-0.0184268
28.1845
-0.0232781
28.5297
-0.0282246
28.8816
-0.0332648
29.2398
-0.0383963
29.6043
-0.0436175
29.975
-0.0489253
30.3518
-0.0543174
30.7347
-0.0597908
31.1237
-0.0653429
31.5188
-0.0709704
31.9199
-0.0766701
32.3272
-0.0824386
32.7406
-0.088273
33.1601
-0.0941695
33.5858
-0.100125
34.0177
-0.106134
34.4558
-0.112196
34.9003
-0.118305
35.3511
-0.124457
35.8084
-0.130649
36.272
-0.136878
36.7421
-0.143138
37.2187
-0.149426
37.7019
-0.155738
38.1916
-0.162069
38.6879
-0.168417
39.1909
-0.174776
39.7006
-0.181141
40.2167
-0.187511
40.7401
-0.193877
41.2685
-0.200246
41.8089
-0.20658
42.3397
-0.212978
42.9276
-0.219114
-0.225991
43.3679
47.6117
0.508765
-48.6399
46.5715
0.490111
45.5187
0.471349
44.4516
0.452494
43.3685
0.43356
42.2675
0.414561
41.1465
0.395512
40.0032
0.376429
38.8354
0.357332
37.641
0.338243
36.4183
0.319191
35.1671
0.300215
33.8892
0.281373
32.5912
0.262751
31.2866
0.24448
29.9984
0.226745
28.7586
0.209778
27.6044
0.193825
26.5707
0.17909
25.683
0.165684
24.9528
0.153603
24.3782
0.14274
23.947
0.13292
23.6417
0.123941
23.443
0.115603
23.3327
0.107731
23.2947
0.100175
23.3157
0.0928169
23.3847
0.0855614
23.4929
0.0783359
23.6335
0.0710837
23.8009
0.0637617
23.991
0.0563369
24.2002
0.0487843
24.4258
0.0410847
24.6657
0.033224
24.9182
0.0251915
25.1819
0.0169798
25.4557
0.00858382
25.7386
0
26.03
-0.00877328
26.3293
-0.0177364
26.636
-0.0268889
26.9497
-0.0362294
27.2702
-0.045755
27.5971
-0.0554637
27.9304
-0.0653514
28.2699
-0.0754142
28.6154
-0.0856481
28.9669
-0.096048
29.3244
-0.106609
29.6877
-0.117325
30.0569
-0.128192
30.432
-0.139202
30.813
-0.15035
31.1999
-0.16163
31.5927
-0.173034
31.9914
-0.184557
32.3961
-0.196192
32.8068
-0.20793
33.2235
-0.219766
33.6463
-0.231691
34.0753
-0.2437
34.5104
-0.255782
34.9517
-0.267933
35.3992
-0.280143
35.853
-0.292405
36.3131
-0.304711
36.7795
-0.317053
37.2522
-0.329424
37.7313
-0.341814
38.2169
-0.354216
38.7087
-0.366623
39.2075
-0.379021
39.711
-0.391421
40.226
-0.403754
40.7322
-0.416204
41.2915
-0.428158
-0.441502
41.7156
45.4572
0.739813
-46.452
44.4505
0.712466
43.4312
0.684964
42.3978
0.657325
41.3486
0.629571
40.2816
0.601724
39.195
0.573806
38.0868
0.545845
36.9549
0.517869
35.7977
0.489919
34.6145
0.462045
33.4061
0.434318
32.1766
0.406843
30.9353
0.37978
29.6991
0.353355
28.4936
0.327872
27.3508
0.303676
26.3045
0.281092
25.3831
0.260354
24.6039
0.241541
23.9719
0.224577
23.4807
0.209263
23.1168
0.19533
22.8632
0.18249
22.7025
0.170474
22.6187
0.159046
22.598
0.148013
22.6289
0.137216
22.702
0.126534
22.81
0.115869
22.9468
0.105148
23.1078
0.0943145
23.2893
0.0833234
23.4882
0.0721418
23.7022
0.060744
23.9294
0.049111
24.1683
0.0372288
24.4177
0.0250869
24.6766
0.012679
24.9441
0
25.2197
-0.0129519
25.5027
-0.026177
25.7929
-0.0396744
26.0898
-0.0534419
26.3932
-0.0674762
26.7028
-0.0817725
27.0186
-0.0963264
27.3403
-0.111132
27.6678
-0.126182
28.0012
-0.141471
28.3402
-0.15699
28.685
-0.172732
29.0355
-0.188689
29.3917
-0.204852
29.7535
-0.221212
30.1211
-0.23776
30.4944
-0.254487
30.8734
-0.271382
31.2582
-0.288436
31.6487
-0.305638
32.0452
-0.322978
32.4475
-0.340445
32.8556
-0.358029
33.2698
-0.375719
33.6899
-0.393504
34.1159
-0.411372
34.5481
-0.429313
34.9862
-0.447314
35.4305
-0.465364
35.8809
-0.483452
36.3374
-0.501566
36.8
-0.519693
37.2687
-0.537825
37.7441
-0.55594
38.2241
-0.574055
38.7149
-0.59207
39.1978
-0.610247
39.7301
-0.627716
-0.647149
40.1372
43.3724
0.955824
-44.3353
42.3975
0.920183
41.4102
0.884342
40.4088
0.848324
39.3918
0.812157
38.3573
0.775873
37.3036
0.739501
36.2289
0.703082
35.1317
0.66666
34.0109
0.630295
32.8667
0.594068
31.7018
0.558097
30.5226
0.522555
29.3414
0.487692
28.1782
0.453853
27.06
0.421454
26.0174
0.390928
25.0791
0.362634
24.2665
0.336769
23.5897
0.313339
23.0481
0.292165
22.6325
0.272952
22.3288
0.255346
22.1211
0.238993
21.9939
0.223569
21.9334
0.2088
21.9277
0.194459
21.9672
0.180365
22.0437
0.166375
22.1511
0.152377
22.2843
0.138285
22.4391
0.124033
22.6124
0.109567
22.8017
0.0948494
23.0048
0.0798492
23.2201
0.0645437
23.4463
0.0489162
23.6822
0.0329547
23.9271
0.016651
24.1801
0
24.4408
-0.0170006
24.7086
-0.0343511
24.9832
-0.0520499
25.2642
-0.0700936
25.5515
-0.0884781
25.8448
-0.107198
26.1439
-0.126245
26.4488
-0.145614
26.7594
-0.165296
27.0756
-0.185281
27.3973
-0.20556
27.7246
-0.226122
28.0573
-0.246958
28.3955
-0.268057
28.7393
-0.289405
29.0885
-0.310992
29.4433
-0.332806
29.8036
-0.354833
30.1696
-0.377061
30.5411
-0.399476
30.9182
-0.422066
31.301
-0.444816
31.6895
-0.467712
32.0837
-0.490741
32.4837
-0.513888
32.8894
-0.537139
33.301
-0.560479
33.7183
-0.583892
34.1416
-0.607365
34.5707
-0.630882
35.0057
-0.654429
35.4466
-0.677988
35.8933
-0.701548
36.3464
-0.725084
36.804
-0.748613
37.2718
-0.772011
37.7325
-0.795608
38.2394
-0.818304
-0.843479
38.6296
41.3648
1.15736
-42.2972
40.4205
1.11381
39.4638
1.07001
38.4931
1.026
37.507
0.981818
36.5037
0.937491
35.4818
0.893069
34.4397
0.848604
33.3764
0.804162
32.2918
0.759831
31.1873
0.715737
30.0675
0.672058
28.9415
0.629057
27.8246
0.587097
26.7389
0.546641
25.7113
0.508201
24.7694
0.472252
23.9362
0.439124
23.2259
0.408934
22.6428
0.381575
22.1821
0.356764
21.8331
0.334111
21.5818
0.313196
21.4137
0.293615
21.3153
0.275011
21.2746
0.257081
21.2816
0.239582
21.328
0.222315
21.4071
0.205126
21.5134
0.187893
21.6427
0.170523
21.7916
0.15294
21.9571
0.135089
22.1372
0.116926
22.33
0.0984165
22.5341
0.0795355
22.7482
0.0602647
22.9715
0.0405905
23.2032
0.020504
23.4426
0
23.6892
-0.020924
23.9427
-0.0422681
24.2026
-0.0640298
24.4687
-0.0862051
24.7407
-0.108789
25.0186
-0.131773
25.3021
-0.15515
25.5912
-0.178912
25.8857
-0.203047
26.1856
-0.227545
26.4909
-0.252394
26.8016
-0.277582
27.1175
-0.303095
27.4388
-0.328921
27.7654
-0.355046
28.0973
-0.381454
28.4345
-0.408132
28.7771
-0.435063
29.1251
-0.462232
29.4785
-0.489623
29.8374
-0.51722
30.2017
-0.545006
30.5715
-0.572964
30.9468
-0.601077
31.3276
-0.629329
31.714
-0.6577
32.106
-0.686174
32.5036
-0.714732
32.9069
-0.743357
33.3158
-0.772029
33.7303
-0.800732
34.1505
-0.829445
34.5763
-0.858154
35.0083
-0.886827
35.4446
-0.915488
35.8905
-0.943984
36.33
-0.972711
36.8128
-1.00036
-1.03095
37.1863
39.4361
1.345
-40.3391
38.5212
1.2939
37.5939
1.24252
36.6528
1.19089
35.6965
1.13906
34.7236
1.08708
33.7326
1.035
32.7226
0.9829
31.6932
0.930868
30.6452
0.879035
29.5818
0.827584
28.5096
0.776777
27.4406
0.726986
26.3923
0.678693
25.3878
0.632466
24.4524
0.588875
23.6095
0.548376
22.8759
0.511221
22.2598
0.477407
21.7606
0.446704
21.3711
0.418725
21.0796
0.393007
20.8732
0.369078
20.7388
0.346503
20.6646
0.324906
20.6405
0.303969
20.6578
0.283439
20.7096
0.263111
20.7902
0.242822
20.895
0.222447
21.0203
0.201885
21.1632
0.181059
21.3213
0.159909
21.4926
0.138387
21.6756
0.11646
21.8691
0.0940981
22.0719
0.0712832
22.2833
0.0480009
22.5025
0.0242416
22.7291
0
22.9625
-0.0247262
23.2023
-0.0499363
23.4484
-0.0756273
23.7004
-0.101795
23.9581
-0.128431
24.2214
-0.155529
24.4901
-0.183078
24.7642
-0.211068
25.0436
-0.239487
25.3281
-0.268322
25.6179
-0.297559
25.9128
-0.327185
26.2129
-0.357184
26.5181
-0.387541
26.8284
-0.418238
27.1439
-0.44926
27.4645
-0.480589
27.7903
-0.512206
28.1213
-0.544095
28.4576
-0.576235
28.799
-0.608609
29.1458
-0.641197
29.4978
-0.673979
29.8551
-0.706935
30.2178
-0.740045
30.5858
-0.773288
30.9592
-0.806644
31.338
-0.840093
31.7223
-0.873612
32.1119
-0.90718
32.507
-0.940778
32.9076
-0.97438
33.3135
-1.00797
33.7253
-1.04152
34.1413
-1.07504
34.5665
-1.10836
34.9856
-1.14194
35.4457
-1.17428
-1.20998
35.8031
37.5851
1.51927
-38.4598
36.6985
1.46098
35.7996
1.40237
34.8872
1.34349
33.9599
1.28439
33.0165
1.22513
32.0561
1.16578
31.078
1.10646
30.0828
1.04728
29.0726
0.988433
28.0523
0.930177
27.0311
0.872879
26.023
0.817029
25.0472
0.763222
24.1264
0.712098
23.2829
0.664226
22.5351
0.619993
21.8942
0.579524
21.3632
0.54268
20.9383
0.509113
20.6104
0.478347
20.3684
0.449863
20.2
0.423158
20.0939
0.397781
20.0399
0.373345
20.0293
0.349533
20.0549
0.326085
20.1107
0.302794
20.192
0.279497
20.2948
0.256065
20.416
0.232395
20.553
0.208408
20.7038
0.184042
20.8668
0.159249
21.0405
0.133992
21.2238
0.108243
21.4159
0.0819809
21.616
0.055192
21.8235
0.027867
22.038
0
22.2589
-0.0284106
22.486
-0.0573633
22.719
-0.0868549
22.9576
-0.116879
23.2018
-0.147428
23.4513
-0.178493
23.7061
-0.210062
23.966
-0.242123
24.2311
-0.274663
24.5011
-0.307667
24.7762
-0.34112
25.0562
-0.375006
25.3412
-0.409306
25.6312
-0.444004
25.9261
-0.479081
26.226
-0.514518
26.5309
-0.550296
26.8407
-0.586393
27.1556
-0.622789
27.4755
-0.659464
27.8005
-0.696396
28.1306
-0.733562
28.4657
-0.770941
28.806
-0.808509
29.1514
-0.846245
29.502
-0.884124
29.8578
-0.922124
30.2187
-0.960221
30.5848
-0.99839
30.9562
-1.03661
31.3328
-1.07485
31.7147
-1.11309
32.1016
-1.15131
32.4942
-1.18947
32.8909
-1.2276
33.2963
-1.2655
33.6962
-1.30367
34.1346
-1.34046
-1.38097
34.4766
35.8093
1.68069
-36.6567
34.9501
1.61555
34.0788
1.55006
33.1942
1.48428
32.2953
1.41826
31.381
1.3521
30.4508
1.28589
29.5049
1.21977
28.5448
1.15391
27.5741
1.08858
26.5998
1.02412
25.633
0.961031
24.6898
0.899912
23.7896
0.841447
22.9533
0.786294
22.1995
0.734966
21.5415
0.687727
20.9853
0.644555
20.5302
0.605173
20.1701
0.569128
19.8954
0.535877
19.6953
0.504865
19.559
0.475575
19.4765
0.447551
19.4392
0.420409
19.4397
0.393833
19.4718
0.367566
19.5304
0.341404
19.6116
0.315183
19.712
0.288774
19.8289
0.262076
19.9602
0.235008
20.104
0.207508
20.2589
0.179527
20.4237
0.151027
20.5975
0.12198
20.7794
0.0923663
20.9689
0.0621704
21.1653
0.0313833
21.3683
0
21.5774
-0.0319807
21.7925
-0.064557
22.0131
-0.0977243
22.2392
-0.131476
22.4706
-0.165803
22.7071
-0.200694
22.9487
-0.236137
23.1953
-0.272118
23.4467
-0.308624
23.703
-0.345636
23.9642
-0.383138
24.2301
-0.421112
24.5008
-0.459539
24.7764
-0.498398
25.0567
-0.53767
25.3418
-0.577334
25.6318
-0.617366
25.9265
-0.657746
26.2261
-0.69845
26.5306
-0.739454
26.8399
-0.780734
27.1541
-0.822267
27.4733
-0.864028
27.7974
-0.905991
28.1264
-0.94813
28.4604
-0.990421
28.7993
-1.03284
29.1433
-1.07535
29.4922
-1.11794
29.8462
-1.16057
30.2052
-1.20323
30.5693
-1.24587
30.9382
-1.28848
31.3126
-1.33102
31.6909
-1.3735
32.0775
-1.41574
32.459
-1.45826
32.8768
-1.49925
-1.5443
33.204
34.106
1.82974
-34.927
33.2734
1.75809
32.4289
1.68605
31.5715
1.61372
30.7004
1.54115
29.815
1.46847
28.9152
1.3958
28.0022
1.32332
27.0785
1.25129
26.1497
1.18005
25.2245
1.11006
24.3159
1.04195
23.4407
0.976395
22.6178
0.914136
21.8653
0.855787
21.1973
0.801749
20.6225
0.752133
20.1427
0.706762
19.7545
0.665236
19.4505
0.627017
19.2212
0.591518
19.0566
0.558167
18.9473
0.526446
18.8846
0.495904
18.861
0.466166
18.8703
0.436923
18.9073
0.407926
18.9678
0.378975
19.0484
0.349908
19.146
0.320601
19.2586
0.290951
19.3842
0.26088
19.5212
0.230324
19.6684
0.199236
19.8247
0.167578
19.9894
0.135323
20.1618
0.102449
20.3412
0.068942
20.5271
0.034794
20.7193
0
20.9173
-0.0354405
21.121
-0.0715249
21.33
-0.108248
21.5442
-0.145601
21.7635
-0.183575
21.9877
-0.222158
22.2168
-0.261335
22.4507
-0.301093
22.6893
-0.341413
22.9326
-0.382279
23.1806
-0.423672
23.4332
-0.465571
23.6905
-0.507957
23.9523
-0.550806
24.2188
-0.594097
24.49
-0.637807
24.7657
-0.681911
25.0462
-0.726385
25.3313
-0.771205
25.621
-0.816343
25.9155
-0.861775
26.2147
-0.907473
26.5186
-0.95341
26.8273
-0.99956
27.1408
-1.04589
27.459
-1.09238
27.782
-1.139
28.1098
-1.18572
28.4424
-1.2325
28.7799
-1.27933
29.1221
-1.32617
29.4693
-1.37299
29.8211
-1.41976
30.1781
-1.46644
30.5389
-1.51307
30.9076
-1.5594
31.2716
-1.60603
31.6698
-1.65101
-1.70033
31.9829
32.4725
1.96689
-33.2679
31.6657
1.88904
30.8474
1.8108
30.0167
1.73226
29.1731
1.65351
28.3166
1.5747
27.4477
1.496
26.5686
1.41765
25.6834
1.34
24.7991
1.26349
23.9264
1.18871
23.0793
1.11638
22.2746
1.04725
21.5293
0.982037
20.858
0.921257
20.2707
0.865159
19.7717
0.813687
19.3599
0.766521
19.0301
0.723157
18.7744
0.682999
18.5837
0.645436
18.4491
0.609895
18.3623
0.575866
18.3159
0.542913
18.3035
0.510674
18.3199
0.478851
18.3607
0.447204
18.4222
0.415539
18.5016
0.383702
18.5963
0.351569
18.7045
0.319041
18.8244
0.286041
18.9549
0.252507
19.0947
0.218392
19.2431
0.183659
19.3992
0.14828
19.5624
0.112236
19.7323
0.0755129
19.9083
0.0381021
20.0903
0
20.2778
-0.0387933
20.4707
-0.0782744
20.6687
-0.118437
20.8717
-0.159272
21.0796
-0.200768
21.2922
-0.242912
21.5095
-0.285689
21.7314
-0.329084
21.9579
-0.373077
22.1889
-0.417649
22.4244
-0.462781
22.6644
-0.508449
22.9089
-0.554633
23.1578
-0.601308
23.4112
-0.648451
23.669
-0.696035
23.9314
-0.744036
24.1982
-0.792426
24.4695
-0.841178
24.7454
-0.890266
25.0258
-0.93966
25.3107
-0.989332
25.6002
-1.03925
25.8943
-1.08939
26.1929
-1.13972
26.4961
-1.19021
26.804
-1.24082
27.1165
-1.29153
27.4336
-1.34231
27.7553
-1.39312
28.0816
-1.44393
28.4126
-1.49471
28.7482
-1.54543
29.0887
-1.59605
29.4329
-1.64658
29.7845
-1.6968
30.1319
-1.74732
30.5115
-1.79608
-1.84942
30.8111
30.9062
2.0926
-31.6767
30.1246
2.00888
29.3319
1.92476
28.5276
1.84036
27.7116
1.7558
26.8842
1.67127
26.0472
1.58701
25.2036
1.50332
24.3592
1.42066
23.5225
1.33958
22.7054
1.26081
21.9225
1.18511
21.1894
1.11325
20.5203
1.04586
19.9263
0.983321
19.4134
0.925706
18.9826
0.872794
18.6308
0.824144
18.3515
0.779174
18.1371
0.737254
17.9792
0.697769
17.8698
0.660154
17.8018
0.623918
17.7689
0.588643
17.7656
0.553985
17.7876
0.519658
17.831
0.485434
17.8928
0.451128
17.9706
0.41659
18.0622
0.381702
18.166
0.346368
18.2805
0.310512
18.4047
0.274074
18.5375
0.23701
18.6782
0.199282
18.8261
0.160865
18.9807
0.121738
19.1416
0.0818892
19.3083
0.0413108
19.4806
0
19.6582
-0.0420425
19.8409
-0.0848124
20.0286
-0.128302
20.221
-0.172502
20.418
-0.2174
20.6197
-0.262981
20.8259
-0.30923
21.0365
-0.356128
21.2515
-0.403656
21.4708
-0.451794
21.6945
-0.500519
21.9226
-0.549808
22.1549
-0.599638
22.3916
-0.649982
22.6325
-0.700816
22.8778
-0.752111
23.1274
-0.803841
23.3814
-0.855977
23.6396
-0.90849
23.9023
-0.96135
24.1693
-1.01453
24.4407
-1.06799
24.7164
-1.12171
24.9966
-1.17565
25.2812
-1.22978
25.5702
-1.28407
25.8637
-1.33849
26.1615
-1.393
26.4639
-1.44757
26.7707
-1.50216
27.0819
-1.55675
27.3976
-1.61129
27.7176
-1.66575
28.0424
-1.72009
28.3708
-1.77434
28.7062
-1.82824
29.0378
-1.88244
29.3996
-1.93477
-1.9919
29.6865
29.4048
2.20731
-30.151
28.6478
2.11804
27.8804
2.02838
27.1024
1.93848
26.3141
1.84852
25.5167
1.75871
24.7127
1.66938
23.9067
1.58095
23.1057
1.49395
22.3196
1.40909
21.561
1.32714
20.8439
1.24891
20.1819
1.17512
19.5864
1.10626
19.0646
1.04252
18.6193
0.983822
18.2492
0.929789
17.9495
0.879884
17.7138
0.833478
17.5346
0.789929
17.4043
0.748628
17.3161
0.709031
17.2638
0.670671
17.2419
0.633151
17.246
0.596144
17.2722
0.559384
17.3175
0.522651
17.3791
0.48577
17.455
0.448599
17.5434
0.411023
17.6428
0.372951
17.7521
0.33431
17.8701
0.295042
17.9962
0.255104
18.1297
0.21446
18.2698
0.173086
18.4163
0.130962
18.5686
0.0880765
18.7265
0.0444233
18.8897
0
19.0579
-0.0451916
19.231
-0.0911462
19.4088
-0.137855
19.5912
-0.185309
19.7781
-0.233492
19.9694
-0.28239
20.165
-0.331986
20.3649
-0.38226
20.5691
-0.433192
20.7774
-0.48476
20.99
-0.53694
21.2067
-0.589707
21.4275
-0.643037
21.6526
-0.696901
21.8818
-0.751273
22.1151
-0.806124
22.3526
-0.861424
22.5944
-0.917144
22.8403
-0.973252
23.0903
-1.02972
23.3446
-1.08651
23.6032
-1.14359
23.8659
-1.20093
24.1329
-1.2585
24.4041
-1.31625
24.6796
-1.37417
24.9594
-1.4322
25.2434
-1.49032
25.5317
-1.5485
25.8243
-1.60668
26.1211
-1.66485
26.4223
-1.72296
26.7276
-1.78098
27.0374
-1.83885
27.3507
-1.89661
27.6708
-1.95399
27.9872
-2.01167
28.3322
-2.06739
-2.12809
28.6068
27.966
2.31148
-28.6885
27.2333
2.21697
26.491
2.12212
25.7394
2.02711
24.9794
1.93216
24.213
1.83757
23.4438
1.74374
22.6777
1.65121
21.923
1.56063
21.1903
1.47279
20.4921
1.38851
19.8411
1.30857
19.2485
1.23355
18.7224
1.1638
18.2669
1.09933
17.8823
1.03987
17.5655
0.984944
17.3111
0.933948
17.1127
0.886227
16.9633
0.841142
16.8564
0.798106
16.7859
0.756601
16.7465
0.716183
16.7337
0.676484
16.7436
0.637194
16.7731
0.598062
16.8194
0.558884
16.8804
0.519491
16.9542
0.47975
17.0393
0.439552
17.1344
0.39881
17.2385
0.357453
17.3508
0.315427
17.4705
0.272689
17.597
0.229206
17.7298
0.184954
17.8685
0.139916
18.0128
0.0940806
18.1624
0.0474423
18.3169
0
18.4763
-0.0482436
18.6403
-0.0972823
18.8089
-0.147107
18.9818
-0.197705
19.1591
-0.249062
19.3406
-0.301162
19.5262
-0.353986
19.716
-0.407514
19.9098
-0.461724
20.1078
-0.516593
20.3097
-0.572094
20.5157
-0.628204
20.7257
-0.684894
20.9397
-0.742136
21.1578
-0.799901
21.3798
-0.858158
21.6059
-0.916877
21.836
-0.976026
22.0701
-1.03557
22.3083
-1.09548
22.5506
-1.15572
22.7969
-1.21626
23.0473
-1.27706
23.3017
-1.33808
23.5603
-1.39929
23.8229
-1.46065
24.0897
-1.52213
24.3605
-1.58369
24.6355
-1.64529
24.9145
-1.70689
25.1977
-1.76846
25.485
-1.82995
25.7763
-1.89134
26.0719
-1.95256
26.3709
-2.01365
26.6763
-2.07433
26.9784
-2.1353
27.3073
-2.19423
-2.25828
27.5703
26.5878
2.40554
-27.2869
25.8792
2.30613
25.1622
2.20646
24.4374
2.10675
23.7066
2.00728
22.9726
1.90845
22.2403
1.81076
21.5167
1.71485
20.8108
1.62148
20.1336
1.5315
19.4967
1.4457
18.9109
1.36478
18.3846
1.28916
17.923
1.21899
17.5276
1.15412
17.1968
1.09414
16.9264
1.03848
16.711
0.986499
16.5443
0.937545
16.4201
0.890992
16.3328
0.846281
16.277
0.802924
16.2484
0.760507
16.243
0.718685
16.2575
0.677169
16.2894
0.635725
16.3362
0.59416
16.3962
0.552317
16.4677
0.510068
16.5494
0.467312
16.6403
0.423964
16.7395
0.379958
16.8462
0.335243
16.9598
0.289778
17.0797
0.243531
17.2056
0.196479
17.337
0.148608
17.4737
0.0999066
17.6153
0.0503707
17.7617
0
17.9128
-0.0512017
18.0682
-0.103227
18.228
-0.156066
18.392
-0.209705
18.5602
-0.264129
18.7324
-0.31932
18.9086
-0.375258
19.0888
-0.431923
19.2729
-0.48929
19.461
-0.547335
19.6529
-0.606031
19.8487
-0.665353
20.0485
-0.72527
20.252
-0.785753
20.4595
-0.846772
20.6708
-0.908294
20.886
-0.970288
21.1051
-1.03272
21.3281
-1.09555
21.555
-1.15876
21.7858
-1.22229
22.0205
-1.28613
22.2592
-1.35022
22.5017
-1.41454
22.7482
-1.47904
22.9987
-1.54369
23.2531
-1.60845
23.5114
-1.67328
23.7737
-1.73813
24.0399
-1.80298
24.31
-1.86778
24.5841
-1.93248
24.8621
-1.99707
25.1442
-2.06146
25.4295
-2.1257
25.721
-2.18951
26.0094
-2.25359
26.3231
-2.31556
-2.38277
26.5749
25.2685
2.48996
-25.9444
24.584
2.38601
23.8925
2.28192
23.1953
2.17795
22.4949
2.07449
21.7953
1.97202
21.1022
1.87117
20.4234
1.77266
19.7686
1.67733
19.1482
1.58601
18.5722
1.49945
18.0493
1.41819
17.5852
1.34247
17.1826
1.27224
16.8409
1.20721
16.5572
1.14686
16.3271
1.09056
16.145
1.03767
16.0052
0.987532
15.9024
0.939557
15.8314
0.893216
15.788
0.848054
15.7682
0.803687
15.7687
0.759793
15.7869
0.716105
15.8204
0.672403
15.8673
0.628507
15.9259
0.584271
15.995
0.539575
16.0734
0.494321
16.1602
0.448431
16.2546
0.401843
16.356
0.354507
16.4637
0.306384
16.5774
0.257446
16.6967
0.207672
16.8212
0.157046
16.9507
0.10556
17.0849
0.0532113
17.2236
0
17.3667
-0.0540688
17.5141
-0.108987
17.6656
-0.164743
17.8211
-0.221322
17.9807
-0.278709
18.1441
-0.336885
18.3114
-0.395828
18.4826
-0.455516
18.6575
-0.515924
18.8362
-0.577027
19.0187
-0.638797
19.2049
-0.701206
19.3948
-0.764223
19.5885
-0.827818
19.786
-0.891958
19.9871
-0.95661
20.192
-1.02174
20.4007
-1.08731
20.6131
-1.1533
20.8293
-1.21965
21.0492
-1.28633
21.2729
-1.35332
21.5004
-1.42056
21.7316
-1.48802
21.9667
-1.55566
22.2055
-1.62344
22.4482
-1.69131
22.6946
-1.75925
22.9448
-1.82721
23.1988
-1.89514
23.4566
-1.963
23.7181
-2.03076
23.9834
-2.09837
24.2527
-2.16578
24.525
-2.233
24.8032
-2.29977
25.0786
-2.36679
25.3778
-2.43165
-2.50182
25.619
24.0064
2.56521
-24.6592
23.3463
2.45711
22.681
2.34902
22.0125
2.24132
21.3441
2.13445
20.6808
2.02903
20.0292
1.92576
19.3976
1.82546
18.7953
1.72898
18.2318
1.63711
17.7153
1.55045
17.2519
1.46936
16.8452
1.39391
16.4957
1.32388
16.2014
1.25884
15.9588
1.19821
15.7633
1.14133
15.6096
1.08756
15.4926
1.03627
15.4077
0.986903
15.3505
0.938966
15.3173
0.892038
15.3047
0.845763
15.31
0.799843
15.3309
0.75403
15.3655
0.708122
15.412
0.66195
15.4691
0.615377
15.5357
0.56829
15.6109
0.520599
15.6936
0.472229
15.7835
0.423122
15.8797
0.373232
15.9819
0.322522
16.0897
0.270964
16.2027
0.21854
16.3207
0.165237
16.4433
0.111046
16.5705
0.0559667
16.7019
-1.13318e-07
16.8376
-0.0568478
16.9773
-0.114568
17.121
-0.173147
17.2686
-0.23257
17.4199
-0.29282
17.5751
-0.353878
17.734
-0.41572
17.8965
-0.478323
18.0628
-0.541661
18.2326
-0.605709
18.4061
-0.670436
18.5832
-0.735813
18.7639
-0.801808
18.9482
-0.86839
19.1362
-0.935525
19.3277
-1.00318
19.5228
-1.07131
19.7216
-1.1399
19.9239
-1.20889
20.1299
-1.27825
20.3395
-1.34795
20.5528
-1.41794
20.7697
-1.48819
20.9902
-1.55864
21.2144
-1.62927
21.4422
-1.70003
21.6736
-1.77088
21.9087
-1.84178
22.1475
-1.91268
22.3899
-1.98354
22.6359
-2.05432
22.8855
-2.12497
23.1388
-2.19546
23.3958
-2.26572
23.6558
-2.33578
23.9213
-2.40535
24.1843
-2.47515
24.4698
-2.54274
-2.6157
24.7008
22.8003
2.6318
-23.4298
22.1652
2.51997
21.527
2.40839
20.8886
2.29751
20.254
2.1879
19.6292
2.08025
19.0211
1.97537
18.4382
1.8741
17.889
1.77725
17.3814
1.68549
16.9217
1.59928
16.5139
1.51877
16.1593
1.44385
15.857
1.37418
15.6042
1.30921
15.3972
1.24833
15.2312
1.19089
15.1016
1.13625
15.004
1.08382
14.9342
1.03308
14.8884
0.983577
14.8636
0.934915
14.8569
0.886769
14.866
0.838865
14.889
0.790975
14.9241
0.742909
14.97
0.694512
15.0254
0.645655
15.0895
0.596235
15.1613
0.546164
15.2402
0.495376
15.3256
0.443813
15.417
0.391433
15.514
0.338202
15.6161
0.284095
15.7232
0.229094
15.835
0.173187
15.9512
0.11637
16.0716
0.0586394
16.1962
0
16.3248
-0.0595417
16.4573
-0.119975
16.5936
-0.181287
16.7336
-0.243461
16.8773
-0.306478
17.0247
-0.370318
17.1756
-0.434958
17.33
-0.500373
17.488
-0.566535
17.6495
-0.633418
17.8145
-0.70099
17.9829
-0.769221
18.1549
-0.838079
18.3303
-0.90753
18.5092
-0.977539
18.6916
-1.04807
18.8775
-1.11909
19.0668
-1.19055
19.2596
-1.26243
19.456
-1.33467
19.6558
-1.40724
19.8591
-1.48011
20.0659
-1.55322
20.2762
-1.62654
20.49
-1.70002
20.7074
-1.77362
20.9282
-1.8473
21.1526
-1.92101
21.3804
-1.99472
21.6117
-2.06836
21.8466
-2.14191
22.0849
-2.21531
22.3266
-2.28853
22.572
-2.36149
22.8203
-2.43423
23.0737
-2.50646
23.325
-2.57889
23.5973
-2.64906
-2.72465
23.8187
21.6491
2.69028
-22.2548
21.0397
2.57519
20.4299
2.46067
19.8232
2.34725
19.2245
2.23561
18.6401
2.12653
18.0772
2.02085
17.5438
1.91938
17.0472
1.82285
16.5935
1.73178
16.1871
1.64643
15.8301
1.56678
15.5222
1.49257
15.2615
1.42332
15.0449
1.35845
14.8683
1.29734
14.7276
1.23932
14.6185
1.18381
14.5371
1.13024
14.4799
1.07814
14.4437
1.02709
14.4258
0.97672
14.4239
0.926738
14.436
0.87689
14.4604
0.826964
14.4957
0.776788
14.5406
0.726215
14.5943
0.675128
14.6558
0.623428
14.7245
0.571036
14.7996
0.517887
14.8808
0.46393
14.9675
0.409124
15.0594
0.353438
15.1563
0.296849
15.2578
0.239342
15.3636
0.180905
15.4738
0.121535
15.5879
0.061232
15.706
0
15.828
-0.0621527
15.9536
-0.125215
16.0829
-0.189171
16.2158
-0.254006
16.3522
-0.319698
16.4921
-0.386226
16.6355
-0.453566
16.7823
-0.521692
16.9324
-0.590577
17.086
-0.66019
17.2429
-0.730501
17.4032
-0.801478
17.5668
-0.873086
17.7339
-0.945293
17.9042
-1.01806
18.0779
-1.09135
18.255
-1.16513
18.4354
-1.23936
18.6192
-1.31399
18.8063
-1.38899
18.9968
-1.46431
19.1907
-1.53992
19.388
-1.61577
19.5886
-1.69182
19.7926
-1.76802
20
-1.84433
20.2107
-1.92071
20.4248
-1.9971
20.6423
-2.07347
20.8631
-2.14976
21.0873
-2.22594
21.3148
-2.30195
21.5457
-2.37775
21.78
-2.45328
22.017
-2.52856
22.2591
-2.6033
22.4991
-2.67823
22.759
-2.75085
-2.8289
22.9711
20.5521
2.74124
-21.1333
19.9695
2.62343
19.3895
2.50659
18.8163
2.39134
18.2553
2.27845
17.7129
2.16873
17.1963
2.06301
16.7122
1.96206
16.2666
1.86644
15.864
1.7765
15.5068
1.69232
15.1956
1.6137
14.9291
1.54025
14.7048
1.47145
14.5193
1.40668
14.3688
1.34529
14.2496
1.28668
14.1578
1.23028
14.0901
1.17558
14.0435
1.12212
14.0152
1.06953
14.003
1.01748
14.005
0.965698
14.0193
0.913942
14.0446
0.862024
14.0798
0.809782
14.1236
0.757082
14.1754
0.703815
14.2344
0.649889
14.2999
0.595231
14.3714
0.53978
14.4485
0.483488
14.5308
0.426318
14.618
0.368242
14.7098
0.309238
14.8059
0.249293
14.9063
0.188397
15.0106
0.126548
15.1189
0.0637469
15.2308
0
15.3465
-0.0646838
15.4657
-0.130292
15.5883
-0.196809
15.7145
-0.264217
15.844
-0.332495
15.9769
-0.40162
16.1131
-0.471567
16.2526
-0.542308
16.3954
-0.613816
16.5414
-0.68606
16.6907
-0.759007
16.8433
-0.832625
16.9991
-0.906878
17.1581
-0.981732
17.3203
-1.05715
17.4858
-1.13309
17.6545
-1.20951
17.8265
-1.28639
18.0017
-1.36366
18.1801
-1.4413
18.3618
-1.51925
18.5467
-1.59749
18.7349
-1.67595
18.9263
-1.7546
19.1209
-1.8334
19.3188
-1.91229
19.52
-1.99123
19.7243
-2.07018
19.932
-2.14908
20.1428
-2.2279
20.3568
-2.30657
20.5741
-2.38506
20.7945
-2.46332
21.0183
-2.54128
21.2447
-2.61897
21.4759
-2.69609
21.7052
-2.77337
21.9532
-2.84831
-2.92868
22.1565
19.5086
2.78534
-20.0643
18.9542
2.66543
18.4056
2.54694
17.8676
2.43062
17.3459
2.31725
16.8467
2.20768
16.3763
2.10266
15.9404
2.00282
15.5435
1.90858
15.1883
1.82008
14.8758
1.73724
14.6055
1.65973
14.3753
1.58707
14.1826
1.51868
14.0239
1.45395
13.8957
1.39226
13.7946
1.33302
13.7175
1.27571
13.6613
1.21986
13.6235
1.16505
13.6018
1.11095
13.5943
1.05724
13.5993
1.00368
13.6153
0.950049
13.6412
0.896177
13.6759
0.841913
13.7185
0.787134
13.7684
0.731736
13.8248
0.675637
13.8873
0.618766
13.9553
0.561069
14.0285
0.502502
14.1066
0.443029
14.1892
0.382625
14.2762
0.321271
14.3674
0.258955
14.4625
0.195668
14.5614
0.131412
14.664
0.0661864
14.7701
0
14.8798
-0.0671375
14.9929
-0.135212
15.1093
-0.204208
15.2291
-0.274106
15.3521
-0.344883
15.4784
-0.416517
15.6078
-0.48898
15.7404
-0.562245
15.8762
-0.636282
16.0152
-0.71106
16.1572
-0.786546
16.3024
-0.862705
16.4507
-0.939502
16.6022
-1.0169
16.7567
-1.09486
16.9144
-1.17334
17.0752
-1.25231
17.2391
-1.33171
17.4061
-1.41152
17.5763
-1.49168
17.7496
-1.57215
17.926
-1.65289
18.1055
-1.73386
18.2882
-1.815
18.474
-1.89627
18.6629
-1.97762
18.8549
-2.05901
19.05
-2.14038
19.2482
-2.2217
19.4496
-2.30291
19.654
-2.38396
19.8615
-2.4648
20.072
-2.54539
20.2857
-2.62565
20.502
-2.70562
20.7228
-2.785
20.942
-2.86451
21.1787
-2.94165
-3.02419
21.3736
18.5183
2.82331
-19.0473
17.9935
2.70196
17.478
2.58258
16.9768
2.46596
16.4954
2.3529
16.0396
2.24419
15.6148
2.14048
15.2251
2.04224
14.8737
1.94971
14.5619
1.86285
14.2896
1.78143
14.0553
1.70503
13.8569
1.63312
13.6913
1.56509
13.5555
1.50033
13.4463
1.43828
13.3606
1.37837
13.2958
1.32012
13.2493
1.26311
13.2188
1.20696
13.2026
1.15135
13.1988
1.096
13.2062
1.0407
13.2234
0.985232
13.2496
0.929446
13.2836
0.873204
13.3249
0.81639
13.3728
0.75891
13.4268
0.700688
13.4862
0.641659
13.5509
0.581772
13.6204
0.520986
13.6945
0.45927
13.7728
0.3966
13.8553
0.332958
13.9417
0.268336
14.0318
0.202727
14.1255
0.136131
14.2228
0.068553
14.3235
-1.13218e-07
14.4275
-0.0695161
14.5349
-0.139981
14.6454
-0.211376
14.7591
-0.283682
14.876
-0.356877
14.996
-0.430934
15.119
-0.505827
15.2451
-0.581527
15.3743
-0.658003
15.5065
-0.735224
15.6417
-0.813154
15.7799
-0.891759
15.9211
-0.971001
16.0654
-1.05084
16.2127
-1.13124
16.3629
-1.21217
16.5162
-1.29357
16.6725
-1.3754
16.8318
-1.45763
16.9941
-1.54021
17.1594
-1.62309
17.3277
-1.70623
17.499
-1.78958
17.6734
-1.8731
17.8507
-1.95673
18.031
-2.04043
18.2144
-2.12415
18.4007
-2.20784
18.59
-2.29145
18.7823
-2.37494
18.9775
-2.45824
19.1758
-2.54132
19.3769
-2.62412
19.5811
-2.70657
19.7877
-2.7887
19.9987
-2.87022
20.2082
-2.95184
20.4341
-3.03106
-3.11564
20.6209
17.581
2.85595
-18.082
17.0874
2.73389
16.6064
2.61439
16.143
2.49823
15.7024
2.3862
15.2895
2.27898
14.9085
2.17708
14.5625
2.08079
14.253
1.99017
13.9803
1.90504
13.7435
1.82505
13.5409
1.74971
13.3698
1.67846
13.2276
1.6107
13.1114
1.54586
13.0183
1.48338
12.9457
1.42276
12.8912
1.36355
12.8528
1.30537
12.8285
1.24787
12.8167
1.19077
12.816
1.13381
12.8252
1.07678
12.8433
1.01952
12.8693
0.961853
12.9026
0.903673
12.9425
0.84487
12.9884
0.785356
13.0399
0.725061
13.0965
0.663925
13.158
0.601902
13.2239
0.538954
13.2942
0.475053
13.3685
0.410176
13.4466
0.344309
13.5285
0.277445
13.6139
0.209578
13.7028
0.140711
13.795
0.0708485
13.8905
0
13.9892
-0.071822
14.0911
-0.144602
14.196
-0.218321
14.3041
-0.292957
14.4151
-0.368488
14.5291
-0.444888
14.6461
-0.522127
14.766
-0.600177