/*--------------------------------*- C++ -*----------------------------------*\
| =========                 |                                                 |
| \\      /  F ield         | OpenFOAM: The Open Source CFD Toolbox           |
|  \\    /   O peration     | Version:  2312                                  |
|   \\  /    A nd           | Website:  www.openfoam.com                      |
|    \\/     M anipulation  |                                                 |
\*---------------------------------------------------------------------------*/
FoamFile
{
    version     2.0;
    format      ascii;
    arch        "LSB;label=32;scalar=64";
    class       volVectorField;
    location    "0.933";
    object      U;
}
// * * * * * * * * * * * * * * * * * * * * * * * * * * * * * * * * * * * * * //

dimensions      [0 1 -1 0 0 0 0];

internalField   nonuniform List<vector> 
31205
(
(137.462 0 0)
(134.018 0 0)
(130.543 0 0)
(127.056 0 0)
(123.588 0 0)
(120.179 0 0)
(116.882 0 0)
(113.762 0 0)
(110.89 0 0)
(108.334 0 0)
(106.153 0 0)
(104.383 0 0)
(103.037 0 0)
(102.105 0 0)
(101.559 0 0)
(101.363 0 0)
(101.472 0 0)
(101.845 0 0)
(102.44 0 0)
(103.22 0 0)
(104.155 0 0)
(105.218 0 0)
(106.387 0 0)
(107.642 0 0)
(108.967 0 0)
(110.351 0 0)
(111.783 0 0)
(113.253 0 0)
(114.754 0 0)
(116.281 0 0)
(117.828 0 0)
(119.391 0 0)
(120.967 0 0)
(122.552 0 0)
(124.143 0 0)
(125.74 0 0)
(127.339 0 0)
(128.939 0 0)
(130.54 0 0)
(132.139 0 0)
(133.737 0 0)
(135.331 0 0)
(136.921 0 0)
(138.508 0 0)
(140.089 0 0)
(141.665 0 0)
(143.236 0 0)
(144.8 0 0)
(146.358 0 0)
(147.91 0 0)
(149.455 0 0)
(150.992 0 0)
(152.523 0 0)
(154.047 0 0)
(155.563 0 0)
(157.072 0 0)
(158.573 0 0)
(160.066 0 0)
(161.552 0 0)
(163.031 0 0)
(164.501 0 0)
(165.964 0 0)
(167.42 0 0)
(168.867 0 0)
(170.307 0 0)
(171.739 0 0)
(173.163 0 0)
(174.58 0 0)
(175.989 0 0)
(177.39 0 0)
(178.784 0 0)
(180.169 0 0)
(181.548 0 0)
(182.917 0 0)
(184.286 0 0)
(185.625 0 0)
(187.022 0 0)
(188.215 0 0)
(190 0 0)
(133.808 0 0)
(130.436 0 0)
(127.054 0 0)
(123.688 0 0)
(120.375 0 0)
(117.164 0 0)
(114.113 0 0)
(111.286 0 0)
(108.748 0 0)
(106.554 0 0)
(104.741 0 0)
(103.328 0 0)
(102.311 0 0)
(101.668 0 0)
(101.367 0 0)
(101.369 0 0)
(101.635 0 0)
(102.126 0 0)
(102.807 0 0)
(103.647 0 0)
(104.619 0 0)
(105.702 0 0)
(106.875 0 0)
(108.123 0 0)
(109.433 0 0)
(110.793 0 0)
(112.196 0 0)
(113.633 0 0)
(115.098 0 0)
(116.585 0 0)
(118.09 0 0)
(119.61 0 0)
(121.141 0 0)
(122.68 0 0)
(124.226 0 0)
(125.776 0 0)
(127.328 0 0)
(128.882 0 0)
(130.435 0 0)
(131.988 0 0)
(133.539 0 0)
(135.086 0 0)
(136.631 0 0)
(138.171 0 0)
(139.707 0 0)
(141.238 0 0)
(142.764 0 0)
(144.284 0 0)
(145.798 0 0)
(147.307 0 0)
(148.808 0 0)
(150.304 0 0)
(151.792 0 0)
(153.274 0 0)
(154.749 0 0)
(156.217 0 0)
(157.678 0 0)
(159.131 0 0)
(160.578 0 0)
(162.017 0 0)
(163.449 0 0)
(164.874 0 0)
(166.291 0 0)
(167.701 0 0)
(169.104 0 0)
(170.499 0 0)
(171.887 0 0)
(173.268 0 0)
(174.642 0 0)
(176.008 0 0)
(177.367 0 0)
(178.718 0 0)
(180.063 0 0)
(181.398 0 0)
(182.733 0 0)
(184.041 0 0)
(185.403 0 0)
(186.57 0 0)
(188.305 0 0)
(130.056 0 0)
(126.779 0 0)
(123.52 0 0)
(120.312 0 0)
(117.2 0 0)
(114.237 0 0)
(111.482 0 0)
(108.993 0 0)
(106.822 0 0)
(105.006 0 0)
(103.565 0 0)
(102.497 0 0)
(101.789 0 0)
(101.41 0 0)
(101.329 0 0)
(101.507 0 0)
(101.909 0 0)
(102.502 0 0)
(103.256 0 0)
(104.145 0 0)
(105.147 0 0)
(106.243 0 0)
(107.416 0 0)
(108.655 0 0)
(109.947 0 0)
(111.284 0 0)
(112.657 0 0)
(114.061 0 0)
(115.489 0 0)
(116.937 0 0)
(118.401 0 0)
(119.878 0 0)
(121.365 0 0)
(122.86 0 0)
(124.36 0 0)
(125.865 0 0)
(127.371 0 0)
(128.879 0 0)
(130.387 0 0)
(131.893 0 0)
(133.398 0 0)
(134.901 0 0)
(136.4 0 0)
(137.895 0 0)
(139.387 0 0)
(140.874 0 0)
(142.355 0 0)
(143.832 0 0)
(145.303 0 0)
(146.769 0 0)
(148.228 0 0)
(149.682 0 0)
(151.129 0 0)
(152.569 0 0)
(154.004 0 0)
(155.431 0 0)
(156.853 0 0)
(158.267 0 0)
(159.674 0 0)
(161.075 0 0)
(162.469 0 0)
(163.856 0 0)
(165.236 0 0)
(166.609 0 0)
(167.975 0 0)
(169.335 0 0)
(170.687 0 0)
(172.032 0 0)
(173.371 0 0)
(174.702 0 0)
(176.027 0 0)
(177.344 0 0)
(178.655 0 0)
(179.958 0 0)
(181.26 0 0)
(182.535 0 0)
(183.863 0 0)
(185.004 0 0)
(186.69 0 0)
(126.341 0 0)
(123.187 0 0)
(120.085 0 0)
(117.076 0 0)
(114.209 0 0)
(111.536 0 0)
(109.112 0 0)
(106.985 0 0)
(105.189 0 0)
(103.743 0 0)
(102.651 0 0)
(101.899 0 0)
(101.465 0 0)
(101.317 0 0)
(101.423 0 0)
(101.75 0 0)
(102.267 0 0)
(102.944 0 0)
(103.757 0 0)
(104.685 0 0)
(105.708 0 0)
(106.812 0 0)
(107.983 0 0)
(109.209 0 0)
(110.483 0 0)
(111.794 0 0)
(113.138 0 0)
(114.509 0 0)
(115.901 0 0)
(117.31 0 0)
(118.735 0 0)
(120.17 0 0)
(121.615 0 0)
(123.066 0 0)
(124.523 0 0)
(125.983 0 0)
(127.445 0 0)
(128.908 0 0)
(130.371 0 0)
(131.833 0 0)
(133.294 0 0)
(134.752 0 0)
(136.207 0 0)
(137.659 0 0)
(139.107 0 0)
(140.551 0 0)
(141.99 0 0)
(143.424 0 0)
(144.853 0 0)
(146.277 0 0)
(147.695 0 0)
(149.107 0 0)
(150.514 0 0)
(151.915 0 0)
(153.309 0 0)
(154.698 0 0)
(156.08 0 0)
(157.455 0 0)
(158.825 0 0)
(160.188 0 0)
(161.544 0 0)
(162.894 0 0)
(164.238 0 0)
(165.574 0 0)
(166.905 0 0)
(168.228 0 0)
(169.545 0 0)
(170.856 0 0)
(172.16 0 0)
(173.457 0 0)
(174.748 0 0)
(176.032 0 0)
(177.31 0 0)
(178.58 0 0)
(179.849 0 0)
(181.093 0 0)
(182.387 0 0)
(183.502 0 0)
(185.142 0 0)
(122.742 0 0)
(119.746 0 0)
(116.841 0 0)
(114.073 0 0)
(111.489 0 0)
(109.14 0 0)
(107.068 0 0)
(105.306 0 0)
(103.873 0 0)
(102.772 0 0)
(101.994 0 0)
(101.519 0 0)
(101.32 0 0)
(101.367 0 0)
(101.63 0 0)
(102.079 0 0)
(102.687 0 0)
(103.431 0 0)
(104.291 0 0)
(105.247 0 0)
(106.284 0 0)
(107.391 0 0)
(108.555 0 0)
(109.767 0 0)
(111.019 0 0)
(112.305 0 0)
(113.619 0 0)
(114.957 0 0)
(116.313 0 0)
(117.686 0 0)
(119.071 0 0)
(120.466 0 0)
(121.869 0 0)
(123.279 0 0)
(124.693 0 0)
(126.11 0 0)
(127.529 0 0)
(128.949 0 0)
(130.369 0 0)
(131.788 0 0)
(133.205 0 0)
(134.62 0 0)
(136.033 0 0)
(137.442 0 0)
(138.848 0 0)
(140.249 0 0)
(141.647 0 0)
(143.04 0 0)
(144.428 0 0)
(145.811 0 0)
(147.189 0 0)
(148.562 0 0)
(149.929 0 0)
(151.29 0 0)
(152.646 0 0)
(153.996 0 0)
(155.34 0 0)
(156.678 0 0)
(158.01 0 0)
(159.336 0 0)
(160.656 0 0)
(161.97 0 0)
(163.277 0 0)
(164.578 0 0)
(165.873 0 0)
(167.162 0 0)
(168.445 0 0)
(169.721 0 0)
(170.991 0 0)
(172.255 0 0)
(173.513 0 0)
(174.764 0 0)
(176.009 0 0)
(177.247 0 0)
(178.484 0 0)
(179.697 0 0)
(180.958 0 0)
(182.045 0 0)
(183.643 0 0)
(119.32 0 0)
(116.52 0 0)
(113.852 0 0)
(111.362 0 0)
(109.093 0 0)
(107.085 0 0)
(105.368 0 0)
(103.96 0 0)
(102.864 0 0)
(102.073 0 0)
(101.57 0 0)
(101.332 0 0)
(101.33 0 0)
(101.538 0 0)
(101.927 0 0)
(102.474 0 0)
(103.156 0 0)
(103.952 0 0)
(104.845 0 0)
(105.821 0 0)
(106.866 0 0)
(107.97 0 0)
(109.123 0 0)
(110.319 0 0)
(111.549 0 0)
(112.808 0 0)
(114.093 0 0)
(115.397 0 0)
(116.719 0 0)
(118.054 0 0)
(119.401 0 0)
(120.757 0 0)
(122.12 0 0)
(123.489 0 0)
(124.862 0 0)
(126.237 0 0)
(127.614 0 0)
(128.992 0 0)
(130.37 0 0)
(131.747 0 0)
(133.123 0 0)
(134.496 0 0)
(135.867 0 0)
(137.235 0 0)
(138.6 0 0)
(139.961 0 0)
(141.318 0 0)
(142.671 0 0)
(144.019 0 0)
(145.363 0 0)
(146.702 0 0)
(148.035 0 0)
(149.364 0 0)
(150.687 0 0)
(152.005 0 0)
(153.318 0 0)
(154.625 0 0)
(155.926 0 0)
(157.221 0 0)
(158.511 0 0)
(159.795 0 0)
(161.074 0 0)
(162.346 0 0)
(163.612 0 0)
(164.873 0 0)
(166.128 0 0)
(167.376 0 0)
(168.619 0 0)
(169.856 0 0)
(171.087 0 0)
(172.312 0 0)
(173.531 0 0)
(174.744 0 0)
(175.95 0 0)
(177.155 0 0)
(178.338 0 0)
(179.567 0 0)
(180.628 0 0)
(182.183 0 0)
(116.124 0 0)
(113.559 0 0)
(111.165 0 0)
(108.982 0 0)
(107.045 0 0)
(105.381 0 0)
(104.007 0 0)
(102.927 0 0)
(102.135 0 0)
(101.615 0 0)
(101.347 0 0)
(101.307 0 0)
(101.468 0 0)
(101.807 0 0)
(102.299 0 0)
(102.924 0 0)
(103.662 0 0)
(104.497 0 0)
(105.414 0 0)
(106.401 0 0)
(107.448 0 0)
(108.546 0 0)
(109.686 0 0)
(110.862 0 0)
(112.069 0 0)
(113.301 0 0)
(114.555 0 0)
(115.827 0 0)
(117.114 0 0)
(118.414 0 0)
(119.723 0 0)
(121.041 0 0)
(122.365 0 0)
(123.694 0 0)
(125.027 0 0)
(126.362 0 0)
(127.698 0 0)
(129.036 0 0)
(130.373 0 0)
(131.709 0 0)
(133.044 0 0)
(134.377 0 0)
(135.708 0 0)
(137.036 0 0)
(138.361 0 0)
(139.682 0 0)
(141 0 0)
(142.314 0 0)
(143.623 0 0)
(144.929 0 0)
(146.229 0 0)
(147.525 0 0)
(148.816 0 0)
(150.102 0 0)
(151.383 0 0)
(152.659 0 0)
(153.93 0 0)
(155.195 0 0)
(156.455 0 0)
(157.71 0 0)
(158.959 0 0)
(160.203 0 0)
(161.441 0 0)
(162.673 0 0)
(163.9 0 0)
(165.121 0 0)
(166.337 0 0)
(167.547 0 0)
(168.751 0 0)
(169.95 0 0)
(171.143 0 0)
(172.33 0 0)
(173.512 0 0)
(174.687 0 0)
(175.861 0 0)
(177.013 0 0)
(178.211 0 0)
(179.245 0 0)
(180.76 0 0)
(113.201 0 0)
(110.906 0 0)
(108.812 0 0)
(106.951 0 0)
(105.348 0 0)
(104.017 0 0)
(102.962 0 0)
(102.178 0 0)
(101.652 0 0)
(101.364 0 0)
(101.294 0 0)
(101.418 0 0)
(101.712 0 0)
(102.156 0 0)
(102.73 0 0)
(103.415 0 0)
(104.196 0 0)
(105.059 0 0)
(105.992 0 0)
(106.984 0 0)
(108.028 0 0)
(109.116 0 0)
(110.24 0 0)
(111.396 0 0)
(112.578 0 0)
(113.783 0 0)
(115.007 0 0)
(116.247 0 0)
(117.5 0 0)
(118.764 0 0)
(120.036 0 0)
(121.317 0 0)
(122.603 0 0)
(123.893 0 0)
(125.187 0 0)
(126.483 0 0)
(127.78 0 0)
(129.078 0 0)
(130.375 0 0)
(131.672 0 0)
(132.968 0 0)
(134.262 0 0)
(135.553 0 0)
(136.843 0 0)
(138.129 0 0)
(139.412 0 0)
(140.691 0 0)
(141.967 0 0)
(143.239 0 0)
(144.507 0 0)
(145.77 0 0)
(147.03 0 0)
(148.284 0 0)
(149.534 0 0)
(150.779 0 0)
(152.02 0 0)
(153.255 0 0)
(154.485 0 0)
(155.71 0 0)
(156.931 0 0)
(158.146 0 0)
(159.355 0 0)
(160.56 0 0)
(161.759 0 0)
(162.953 0 0)
(164.141 0 0)
(165.325 0 0)
(166.502 0 0)
(167.675 0 0)
(168.842 0 0)
(170.004 0 0)
(171.16 0 0)
(172.311 0 0)
(173.455 0 0)
(174.599 0 0)
(175.722 0 0)
(176.889 0 0)
(177.897 0 0)
(179.372 0 0)
(110.59 0 0)
(108.589 0 0)
(106.809 0 0)
(105.272 0 0)
(103.991 0 0)
(102.97 0 0)
(102.203 0 0)
(101.678 0 0)
(101.38 0 0)
(101.288 0 0)
(101.382 0 0)
(101.64 0 0)
(102.042 0 0)
(102.57 0 0)
(103.207 0 0)
(103.938 0 0)
(104.75 0 0)
(105.632 0 0)
(106.574 0 0)
(107.567 0 0)
(108.604 0 0)
(109.679 0 0)
(110.785 0 0)
(111.919 0 0)
(113.076 0 0)
(114.253 0 0)
(115.447 0 0)
(116.655 0 0)
(117.874 0 0)
(119.104 0 0)
(120.341 0 0)
(121.585 0 0)
(122.834 0 0)
(124.086 0 0)
(125.342 0 0)
(126.6 0 0)
(127.859 0 0)
(129.119 0 0)
(130.378 0 0)
(131.637 0 0)
(132.894 0 0)
(134.15 0 0)
(135.404 0 0)
(136.655 0 0)
(137.904 0 0)
(139.149 0 0)
(140.392 0 0)
(141.631 0 0)
(142.866 0 0)
(144.097 0 0)
(145.325 0 0)
(146.548 0 0)
(147.767 0 0)
(148.982 0 0)
(150.192 0 0)
(151.398 0 0)
(152.598 0 0)
(153.795 0 0)
(154.986 0 0)
(156.173 0 0)
(157.354 0 0)
(158.531 0 0)
(159.703 0 0)
(160.869 0 0)
(162.031 0 0)
(163.188 0 0)
(164.339 0 0)
(165.485 0 0)
(166.627 0 0)
(167.763 0 0)
(168.894 0 0)
(170.02 0 0)
(171.141 0 0)
(172.255 0 0)
(173.369 0 0)
(174.463 0 0)
(175.599 0 0)
(176.582 0 0)
(178.018 0 0)
(108.318 0 0)
(106.623 0 0)
(105.158 0 0)
(103.933 0 0)
(102.951 0 0)
(102.208 0 0)
(101.694 0 0)
(101.392 0 0)
(101.287 0 0)
(101.357 0 0)
(101.585 0 0)
(101.951 0 0)
(102.439 0 0)
(103.033 0 0)
(103.719 0 0)
(104.485 0 0)
(105.32 0 0)
(106.214 0 0)
(107.159 0 0)
(108.148 0 0)
(109.174 0 0)
(110.234 0 0)
(111.321 0 0)
(112.432 0 0)
(113.564 0 0)
(114.713 0 0)
(115.876 0 0)
(117.052 0 0)
(118.239 0 0)
(119.434 0 0)
(120.637 0 0)
(121.845 0 0)
(123.058 0 0)
(124.274 0 0)
(125.493 0 0)
(126.714 0 0)
(127.936 0 0)
(129.158 0 0)
(130.381 0 0)
(131.602 0 0)
(132.822 0 0)
(134.041 0 0)
(135.258 0 0)
(136.473 0 0)
(137.685 0 0)
(138.895 0 0)
(140.101 0 0)
(141.304 0 0)
(142.504 0 0)
(143.7 0 0)
(144.892 0 0)
(146.081 0 0)
(147.265 0 0)
(148.445 0 0)
(149.621 0 0)
(150.793 0 0)
(151.961 0 0)
(153.123 0 0)
(154.282 0 0)
(155.436 0 0)
(156.585 0 0)
(157.729 0 0)
(158.869 0 0)
(160.004 0 0)
(161.134 0 0)
(162.259 0 0)
(163.38 0 0)
(164.495 0 0)
(165.606 0 0)
(166.712 0 0)
(167.813 0 0)
(168.909 0 0)
(170.001 0 0)
(171.086 0 0)
(172.171 0 0)
(173.236 0 0)
(174.342 0 0)
(175.3 0 0)
(176.698 0 0)
(106.398 0 0)
(105.008 0 0)
(103.844 0 0)
(102.908 0 0)
(102.196 0 0)
(101.698 0 0)
(101.4 0 0)
(101.287 0 0)
(101.341 0 0)
(101.545 0 0)
(101.881 0 0)
(102.335 0 0)
(102.891 0 0)
(103.536 0 0)
(104.259 0 0)
(105.049 0 0)
(105.899 0 0)
(106.798 0 0)
(107.742 0 0)
(108.723 0 0)
(109.738 0 0)
(110.78 0 0)
(111.847 0 0)
(112.934 0 0)
(114.04 0 0)
(115.161 0 0)
(116.295 0 0)
(117.44 0 0)
(118.594 0 0)
(119.756 0 0)
(120.924 0 0)
(122.098 0 0)
(123.276 0 0)
(124.457 0 0)
(125.64 0 0)
(126.825 0 0)
(128.011 0 0)
(129.197 0 0)
(130.383 0 0)
(131.569 0 0)
(132.753 0 0)
(133.936 0 0)
(135.117 0 0)
(136.297 0 0)
(137.473 0 0)
(138.647 0 0)
(139.819 0 0)
(140.987 0 0)
(142.152 0 0)
(143.314 0 0)
(144.472 0 0)
(145.627 0 0)
(146.777 0 0)
(147.924 0 0)
(149.067 0 0)
(150.206 0 0)
(151.341 0 0)
(152.471 0 0)
(153.597 0 0)
(154.719 0 0)
(155.836 0 0)
(156.949 0 0)
(158.058 0 0)
(159.162 0 0)
(160.261 0 0)
(161.356 0 0)
(162.446 0 0)
(163.532 0 0)
(164.613 0 0)
(165.689 0 0)
(166.76 0 0)
(167.827 0 0)
(168.89 0 0)
(169.946 0 0)
(171.003 0 0)
(172.04 0 0)
(173.117 0 0)
(174.05 0 0)
(175.41 0 0)
(104.828 0 0)
(103.728 0 0)
(102.842 0 0)
(102.166 0 0)
(101.691 0 0)
(101.403 0 0)
(101.289 0 0)
(101.332 0 0)
(101.517 0 0)
(101.829 0 0)
(102.253 0 0)
(102.775 0 0)
(103.384 0 0)
(104.068 0 0)
(104.818 0 0)
(105.625 0 0)
(106.483 0 0)
(107.383 0 0)
(108.322 0 0)
(109.293 0 0)
(110.292 0 0)
(111.317 0 0)
(112.362 0 0)
(113.425 0 0)
(114.505 0 0)
(115.598 0 0)
(116.702 0 0)
(117.816 0 0)
(118.939 0 0)
(120.069 0 0)
(121.204 0 0)
(122.344 0 0)
(123.487 0 0)
(124.634 0 0)
(125.783 0 0)
(126.933 0 0)
(128.084 0 0)
(129.235 0 0)
(130.386 0 0)
(131.537 0 0)
(132.686 0 0)
(133.834 0 0)
(134.981 0 0)
(136.126 0 0)
(137.268 0 0)
(138.408 0 0)
(139.545 0 0)
(140.68 0 0)
(141.811 0 0)
(142.939 0 0)
(144.064 0 0)
(145.186 0 0)
(146.304 0 0)
(147.418 0 0)
(148.529 0 0)
(149.635 0 0)
(150.738 0 0)
(151.837 0 0)
(152.932 0 0)
(154.022 0 0)
(155.109 0 0)
(156.191 0 0)
(157.269 0 0)
(158.343 0 0)
(159.412 0 0)
(160.477 0 0)
(161.538 0 0)
(162.594 0 0)
(163.645 0 0)
(164.693 0 0)
(165.736 0 0)
(166.774 0 0)
(167.808 0 0)
(168.836 0 0)
(169.865 0 0)
(170.874 0 0)
(171.923 0 0)
(172.832 0 0)
(174.155 0 0)
(103.589 0 0)
(102.757 0 0)
(102.122 0 0)
(101.673 0 0)
(101.4 0 0)
(101.29 0 0)
(101.328 0 0)
(101.501 0 0)
(101.793 0 0)
(102.191 0 0)
(102.684 0 0)
(103.26 0 0)
(103.909 0 0)
(104.622 0 0)
(105.391 0 0)
(106.208 0 0)
(107.069 0 0)
(107.966 0 0)
(108.897 0 0)
(109.855 0 0)
(110.838 0 0)
(111.843 0 0)
(112.866 0 0)
(113.905 0 0)
(114.958 0 0)
(116.024 0 0)
(117.099 0 0)
(118.183 0 0)
(119.275 0 0)
(120.373 0 0)
(121.476 0 0)
(122.583 0 0)
(123.693 0 0)
(124.806 0 0)
(125.921 0 0)
(127.037 0 0)
(128.155 0 0)
(129.272 0 0)
(130.389 0 0)
(131.506 0 0)
(132.621 0 0)
(133.736 0 0)
(134.849 0 0)
(135.96 0 0)
(137.069 0 0)
(138.175 0 0)
(139.28 0 0)
(140.381 0 0)
(141.48 0 0)
(142.576 0 0)
(143.668 0 0)
(144.758 0 0)
(145.844 0 0)
(146.927 0 0)
(148.006 0 0)
(149.081 0 0)
(150.153 0 0)
(151.221 0 0)
(152.285 0 0)
(153.345 0 0)
(154.401 0 0)
(155.454 0 0)
(156.502 0 0)
(157.546 0 0)
(158.586 0 0)
(159.622 0 0)
(160.654 0 0)
(161.681 0 0)
(162.704 0 0)
(163.723 0 0)
(164.738 0 0)
(165.748 0 0)
(166.755 0 0)
(167.755 0 0)
(168.756 0 0)
(169.739 0 0)
(170.76 0 0)
(171.646 0 0)
(172.932 0 0)
(102.656 0 0)
(102.064 0 0)
(101.647 0 0)
(101.393 0 0)
(101.292 0 0)
(101.329 0 0)
(101.493 0 0)
(101.77 0 0)
(102.147 0 0)
(102.615 0 0)
(103.162 0 0)
(103.779 0 0)
(104.458 0 0)
(105.191 0 0)
(105.972 0 0)
(106.794 0 0)
(107.654 0 0)
(108.545 0 0)
(109.465 0 0)
(110.409 0 0)
(111.374 0 0)
(112.358 0 0)
(113.359 0 0)
(114.374 0 0)
(115.401 0 0)
(116.439 0 0)
(117.485 0 0)
(118.54 0 0)
(119.601 0 0)
(120.668 0 0)
(121.74 0 0)
(122.815 0 0)
(123.893 0 0)
(124.974 0 0)
(126.056 0 0)
(127.139 0 0)
(128.223 0 0)
(129.308 0 0)
(130.392 0 0)
(131.476 0 0)
(132.559 0 0)
(133.64 0 0)
(134.72 0 0)
(135.799 0 0)
(136.876 0 0)
(137.95 0 0)
(139.022 0 0)
(140.092 0 0)
(141.159 0 0)
(142.223 0 0)
(143.284 0 0)
(144.342 0 0)
(145.397 0 0)
(146.449 0 0)
(147.498 0 0)
(148.543 0 0)
(149.584 0 0)
(150.622 0 0)
(151.656 0 0)
(152.687 0 0)
(153.714 0 0)
(154.737 0 0)
(155.756 0 0)
(156.771 0 0)
(157.783 0 0)
(158.79 0 0)
(159.793 0 0)
(160.793 0 0)
(161.788 0 0)
(162.779 0 0)
(163.767 0 0)
(164.75 0 0)
(165.729 0 0)
(166.703 0 0)
(167.677 0 0)
(168.633 0 0)
(169.627 0 0)
(170.489 0 0)
(171.74 0 0)
(101.996 0 0)
(101.613 0 0)
(101.382 0 0)
(101.293 0 0)
(101.334 0 0)
(101.493 0 0)
(101.759 0 0)
(102.119 0 0)
(102.565 0 0)
(103.087 0 0)
(103.676 0 0)
(104.324 0 0)
(105.024 0 0)
(105.771 0 0)
(106.558 0 0)
(107.381 0 0)
(108.235 0 0)
(109.118 0 0)
(110.025 0 0)
(110.953 0 0)
(111.9 0 0)
(112.863 0 0)
(113.841 0 0)
(114.831 0 0)
(115.832 0 0)
(116.843 0 0)
(117.861 0 0)
(118.887 0 0)
(119.919 0 0)
(120.955 0 0)
(121.996 0 0)
(123.04 0 0)
(124.087 0 0)
(125.136 0 0)
(126.187 0 0)
(127.238 0 0)
(128.29 0 0)
(129.343 0 0)
(130.395 0 0)
(131.447 0 0)
(132.498 0 0)
(133.548 0 0)
(134.596 0 0)
(135.643 0 0)
(136.688 0 0)
(137.731 0 0)
(138.772 0 0)
(139.811 0 0)
(140.847 0 0)
(141.88 0 0)
(142.911 0 0)
(143.939 0 0)
(144.964 0 0)
(145.986 0 0)
(147.004 0 0)
(148.02 0 0)
(149.032 0 0)
(150.04 0 0)
(151.046 0 0)
(152.047 0 0)
(153.046 0 0)
(154.04 0 0)
(155.031 0 0)
(156.018 0 0)
(157.001 0 0)
(157.981 0 0)
(158.957 0 0)
(159.929 0 0)
(160.897 0 0)
(161.861 0 0)
(162.822 0 0)
(163.778 0 0)
(164.731 0 0)
(165.678 0 0)
(166.626 0 0)
(167.557 0 0)
(168.523 0 0)
(169.363 0 0)
(170.579 0 0)
(101.574 0 0)
(101.369 0 0)
(101.296 0 0)
(101.343 0 0)
(101.501 0 0)
(101.759 0 0)
(102.106 0 0)
(102.534 0 0)
(103.033 0 0)
(103.596 0 0)
(104.216 0 0)
(104.887 0 0)
(105.602 0 0)
(106.356 0 0)
(107.145 0 0)
(107.965 0 0)
(108.812 0 0)
(109.683 0 0)
(110.576 0 0)
(111.487 0 0)
(112.414 0 0)
(113.356 0 0)
(114.311 0 0)
(115.277 0 0)
(116.252 0 0)
(117.236 0 0)
(118.227 0 0)
(119.225 0 0)
(120.227 0 0)
(121.234 0 0)
(122.245 0 0)
(123.259 0 0)
(124.276 0 0)
(125.294 0 0)
(126.314 0 0)
(127.334 0 0)
(128.356 0 0)
(129.377 0 0)
(130.398 0 0)
(131.419 0 0)
(132.439 0 0)
(133.458 0 0)
(134.476 0 0)
(135.492 0 0)
(136.507 0 0)
(137.519 0 0)
(138.53 0 0)
(139.538 0 0)
(140.545 0 0)
(141.548 0 0)
(142.549 0 0)
(143.548 0 0)
(144.543 0 0)
(145.536 0 0)
(146.525 0 0)
(147.512 0 0)
(148.495 0 0)
(149.475 0 0)
(150.452 0 0)
(151.426 0 0)
(152.396 0 0)
(153.363 0 0)
(154.326 0 0)
(155.286 0 0)
(156.242 0 0)
(157.194 0 0)
(158.143 0 0)
(159.088 0 0)
(160.03 0 0)
(160.968 0 0)
(161.902 0 0)
(162.832 0 0)
(163.759 0 0)
(164.68 0 0)
(165.602 0 0)
(166.508 0 0)
(167.448 0 0)
(168.266 0 0)
(169.448 0 0)
(101.355 0 0)
(101.299 0 0)
(101.357 0 0)
(101.516 0 0)
(101.769 0 0)
(102.106 0 0)
(102.518 0 0)
(102.999 0 0)
(103.539 0 0)
(104.134 0 0)
(104.777 0 0)
(105.463 0 0)
(106.186 0 0)
(106.943 0 0)
(107.731 0 0)
(108.545 0 0)
(109.382 0 0)
(110.241 0 0)
(111.117 0 0)
(112.011 0 0)
(112.918 0 0)
(113.839 0 0)
(114.77 0 0)
(115.712 0 0)
(116.662 0 0)
(117.619 0 0)
(118.583 0 0)
(119.553 0 0)
(120.527 0 0)
(121.506 0 0)
(122.487 0 0)
(123.472 0 0)
(124.459 0 0)
(125.447 0 0)
(126.437 0 0)
(127.428 0 0)
(128.419 0 0)
(129.41 0 0)
(130.402 0 0)
(131.392 0 0)
(132.382 0 0)
(133.371 0 0)
(134.359 0 0)
(135.346 0 0)
(136.331 0 0)
(137.314 0 0)
(138.295 0 0)
(139.274 0 0)
(140.251 0 0)
(141.226 0 0)
(142.198 0 0)
(143.167 0 0)
(144.134 0 0)
(145.099 0 0)
(146.06 0 0)
(147.018 0 0)
(147.974 0 0)
(148.926 0 0)
(149.876 0 0)
(150.822 0 0)
(151.765 0 0)
(152.704 0 0)
(153.641 0 0)
(154.574 0 0)
(155.503 0 0)
(156.429 0 0)
(157.352 0 0)
(158.271 0 0)
(159.186 0 0)
(160.098 0 0)
(161.007 0 0)
(161.911 0 0)
(162.813 0 0)
(163.709 0 0)
(164.606 0 0)
(165.487 0 0)
(166.401 0 0)
(167.197 0 0)
(168.346 0 0)
(101.306 0 0)
(101.375 0 0)
(101.539 0 0)
(101.789 0 0)
(102.119 0 0)
(102.519 0 0)
(102.982 0 0)
(103.503 0 0)
(104.075 0 0)
(104.693 0 0)
(105.351 0 0)
(106.046 0 0)
(106.774 0 0)
(107.53 0 0)
(108.313 0 0)
(109.118 0 0)
(109.944 0 0)
(110.788 0 0)
(111.649 0 0)
(112.523 0 0)
(113.411 0 0)
(114.309 0 0)
(115.218 0 0)
(116.135 0 0)
(117.06 0 0)
(117.992 0 0)
(118.929 0 0)
(119.872 0 0)
(120.819 0 0)
(121.769 0 0)
(122.723 0 0)
(123.679 0 0)
(124.637 0 0)
(125.596 0 0)
(126.557 0 0)
(127.519 0 0)
(128.481 0 0)
(129.443 0 0)
(130.405 0 0)
(131.366 0 0)
(132.327 0 0)
(133.287 0 0)
(134.246 0 0)
(135.204 0 0)
(136.16 0 0)
(137.114 0 0)
(138.067 0 0)
(139.018 0 0)
(139.966 0 0)
(140.913 0 0)
(141.857 0 0)
(142.799 0 0)
(143.738 0 0)
(144.674 0 0)
(145.608 0 0)
(146.539 0 0)
(147.468 0 0)
(148.393 0 0)
(149.316 0 0)
(150.235 0 0)
(151.151 0 0)
(152.065 0 0)
(152.975 0 0)
(153.881 0 0)
(154.785 0 0)
(155.685 0 0)
(156.582 0 0)
(157.476 0 0)
(158.366 0 0)
(159.253 0 0)
(160.136 0 0)
(161.016 0 0)
(161.892 0 0)
(162.764 0 0)
(163.636 0 0)
(164.493 0 0)
(165.382 0 0)
(166.157 0 0)
(167.273 0 0)
(101.399 0 0)
(101.569 0 0)
(101.82 0 0)
(102.143 0 0)
(102.533 0 0)
(102.982 0 0)
(103.486 0 0)
(104.037 0 0)
(104.632 0 0)
(105.266 0 0)
(105.934 0 0)
(106.634 0 0)
(107.362 0 0)
(108.114 0 0)
(108.89 0 0)
(109.685 0 0)
(110.497 0 0)
(111.326 0 0)
(112.169 0 0)
(113.025 0 0)
(113.892 0 0)
(114.769 0 0)
(115.654 0 0)
(116.548 0 0)
(117.448 0 0)
(118.354 0 0)
(119.266 0 0)
(120.182 0 0)
(121.102 0 0)
(122.025 0 0)
(122.951 0 0)
(123.879 0 0)
(124.809 0 0)
(125.741 0 0)
(126.674 0 0)
(127.607 0 0)
(128.541 0 0)
(129.474 0 0)
(130.408 0 0)
(131.341 0 0)
(132.274 0 0)
(133.206 0 0)
(134.137 0 0)
(135.066 0 0)
(135.994 0 0)
(136.921 0 0)
(137.846 0 0)
(138.769 0 0)
(139.69 0 0)
(140.609 0 0)
(141.526 0 0)
(142.441 0 0)
(143.353 0 0)
(144.262 0 0)
(145.17 0 0)
(146.074 0 0)
(146.976 0 0)
(147.875 0 0)
(148.771 0 0)
(149.665 0 0)
(150.555 0 0)
(151.443 0 0)
(152.327 0 0)
(153.209 0 0)
(154.087 0 0)
(154.962 0 0)
(155.834 0 0)
(156.702 0 0)
(157.568 0 0)
(158.43 0 0)
(159.289 0 0)
(160.144 0 0)
(160.996 0 0)
(161.844 0 0)
(162.692 0 0)
(163.526 0 0)
(164.39 0 0)
(165.144 0 0)
(166.228 0 0)
(101.607 0 0)
(101.86 0 0)
(102.18 0 0)
(102.561 0 0)
(102.998 0 0)
(103.486 0 0)
(104.019 0 0)
(104.593 0 0)
(105.204 0 0)
(105.848 0 0)
(106.522 0 0)
(107.222 0 0)
(107.947 0 0)
(108.693 0 0)
(109.459 0 0)
(110.242 0 0)
(111.041 0 0)
(111.854 0 0)
(112.679 0 0)
(113.515 0 0)
(114.361 0 0)
(115.216 0 0)
(116.079 0 0)
(116.949 0 0)
(117.825 0 0)
(118.707 0 0)
(119.593 0 0)
(120.483 0 0)
(121.377 0 0)
(122.274 0 0)
(123.173 0 0)
(124.074 0 0)
(124.977 0 0)
(125.881 0 0)
(126.787 0 0)
(127.693 0 0)
(128.599 0 0)
(129.505 0 0)
(130.412 0 0)
(131.317 0 0)
(132.223 0 0)
(133.127 0 0)
(134.031 0 0)
(134.933 0 0)
(135.834 0 0)
(136.733 0 0)
(137.631 0 0)
(138.528 0 0)
(139.422 0 0)
(140.314 0 0)
(141.205 0 0)
(142.093 0 0)
(142.979 0 0)
(143.863 0 0)
(144.744 0 0)
(145.622 0 0)
(146.499 0 0)
(147.372 0 0)
(148.243 0 0)
(149.111 0 0)
(149.976 0 0)
(150.839 0 0)
(151.698 0 0)
(152.555 0 0)
(153.408 0 0)
(154.259 0 0)
(155.106 0 0)
(155.951 0 0)
(156.792 0 0)
(157.63 0 0)
(158.465 0 0)
(159.296 0 0)
(160.125 0 0)
(160.949 0 0)
(161.774 0 0)
(162.584 0 0)
(163.424 0 0)
(164.158 0 0)
(165.21 0 0)
(101.91 0 0)
(102.228 0 0)
(102.603 0 0)
(103.03 0 0)
(103.503 0 0)
(104.02 0 0)
(104.575 0 0)
(105.165 0 0)
(105.786 0 0)
(106.436 0 0)
(107.111 0 0)
(107.809 0 0)
(108.528 0 0)
(109.266 0 0)
(110.021 0 0)
(110.791 0 0)
(111.574 0 0)
(112.37 0 0)
(113.177 0 0)
(113.994 0 0)
(114.819 0 0)
(115.653 0 0)
(116.493 0 0)
(117.34 0 0)
(118.192 0 0)
(119.049 0 0)
(119.911 0 0)
(120.776 0 0)
(121.644 0 0)
(122.515 0 0)
(123.388 0 0)
(124.263 0 0)
(125.14 0 0)
(126.018 0 0)
(126.897 0 0)
(127.776 0 0)
(128.656 0 0)
(129.535 0 0)
(130.415 0 0)
(131.294 0 0)
(132.173 0 0)
(133.051 0 0)
(133.928 0 0)
(134.804 0 0)
(135.678 0 0)
(136.552 0 0)
(137.423 0 0)
(138.294 0 0)
(139.162 0 0)
(140.029 0 0)
(140.893 0 0)
(141.756 0 0)
(142.616 0 0)
(143.474 0 0)
(144.33 0 0)
(145.184 0 0)
(146.035 0 0)
(146.883 0 0)
(147.73 0 0)
(148.573 0 0)
(149.414 0 0)
(150.252 0 0)
(151.087 0 0)
(151.919 0 0)
(152.749 0 0)
(153.575 0 0)
(154.399 0 0)
(155.219 0 0)
(156.037 0 0)
(156.852 0 0)
(157.663 0 0)
(158.471 0 0)
(159.277 0 0)
(160.078 0 0)
(160.88 0 0)
(161.668 0 0)
(162.484 0 0)
(163.198 0 0)
(164.22 0 0)
(102.287 0 0)
(102.657 0 0)
(103.075 0 0)
(103.537 0 0)
(104.038 0 0)
(104.576 0 0)
(105.146 0 0)
(105.747 0 0)
(106.374 0 0)
(107.025 0 0)
(107.698 0 0)
(108.392 0 0)
(109.103 0 0)
(109.831 0 0)
(110.573 0 0)
(111.329 0 0)
(112.097 0 0)
(112.876 0 0)
(113.664 0 0)
(114.461 0 0)
(115.266 0 0)
(116.078 0 0)
(116.897 0 0)
(117.721 0 0)
(118.549 0 0)
(119.383 0 0)
(120.22 0 0)
(121.06 0 0)
(121.904 0 0)
(122.749 0 0)
(123.597 0 0)
(124.447 0 0)
(125.298 0 0)
(126.15 0 0)
(127.003 0 0)
(127.857 0 0)
(128.711 0 0)
(129.564 0 0)
(130.418 0 0)
(131.272 0 0)
(132.124 0 0)
(132.977 0 0)
(133.828 0 0)
(134.678 0 0)
(135.527 0 0)
(136.375 0 0)
(137.222 0 0)
(138.066 0 0)
(138.91 0 0)
(139.751 0 0)
(140.591 0 0)
(141.428 0 0)
(142.264 0 0)
(143.098 0 0)
(143.929 0 0)
(144.758 0 0)
(145.585 0 0)
(146.409 0 0)
(147.231 0 0)
(148.05 0 0)
(148.867 0 0)
(149.681 0 0)
(150.493 0 0)
(151.302 0 0)
(152.108 0 0)
(152.911 0 0)
(153.711 0 0)
(154.509 0 0)
(155.303 0 0)
(156.095 0 0)
(156.884 0 0)
(157.669 0 0)
(158.452 0 0)
(159.231 0 0)
(160.01 0 0)
(160.776 0 0)
(161.57 0 0)
(162.264 0 0)
(163.256 0 0)
(102.724 0 0)
(103.135 0 0)
(103.586 0 0)
(104.074 0 0)
(104.596 0 0)
(105.148 0 0)
(105.729 0 0)
(106.334 0 0)
(106.963 0 0)
(107.613 0 0)
(108.282 0 0)
(108.969 0 0)
(109.671 0 0)
(110.387 0 0)
(111.116 0 0)
(111.857 0 0)
(112.609 0 0)
(113.37 0 0)
(114.139 0 0)
(114.917 0 0)
(115.702 0 0)
(116.492 0 0)
(117.289 0 0)
(118.091 0 0)
(118.897 0 0)
(119.707 0 0)
(120.52 0 0)
(121.337 0 0)
(122.156 0 0)
(122.977 0 0)
(123.801 0 0)
(124.626 0 0)
(125.452 0 0)
(126.279 0 0)
(127.107 0 0)
(127.935 0 0)
(128.764 0 0)
(129.593 0 0)
(130.422 0 0)
(131.25 0 0)
(132.078 0 0)
(132.905 0 0)
(133.731 0 0)
(134.557 0 0)
(135.381 0 0)
(136.204 0 0)
(137.026 0 0)
(137.846 0 0)
(138.665 0 0)
(139.482 0 0)
(140.297 0 0)
(141.111 0 0)
(141.922 0 0)
(142.732 0 0)
(143.539 0 0)
(144.344 0 0)
(145.147 0 0)
(145.948 0 0)
(146.747 0 0)
(147.543 0 0)
(148.336 0 0)
(149.127 0 0)
(149.916 0 0)
(150.701 0 0)
(151.485 0 0)
(152.265 0 0)
(153.043 0 0)
(153.818 0 0)
(154.59 0 0)
(155.359 0 0)
(156.126 0 0)
(156.889 0 0)
(157.65 0 0)
(158.407 0 0)
(159.164 0 0)
(159.909 0 0)
(160.68 0 0)
(161.355 0 0)
(162.318 0 0)
(103.208 0 0)
(103.65 0 0)
(104.126 0 0)
(104.633 0 0)
(105.169 0 0)
(105.731 0 0)
(106.317 0 0)
(106.924 0 0)
(107.552 0 0)
(108.198 0 0)
(108.861 0 0)
(109.538 0 0)
(110.229 0 0)
(110.933 0 0)
(111.648 0 0)
(112.374 0 0)
(113.109 0 0)
(113.852 0 0)
(114.603 0 0)
(115.361 0 0)
(116.126 0 0)
(116.896 0 0)
(117.671 0 0)
(118.45 0 0)
(119.234 0 0)
(120.021 0 0)
(120.812 0 0)
(121.605 0 0)
(122.401 0 0)
(123.198 0 0)
(123.998 0 0)
(124.799 0 0)
(125.601 0 0)
(126.404 0 0)
(127.208 0 0)
(128.012 0 0)
(128.816 0 0)
(129.621 0 0)
(130.425 0 0)
(131.229 0 0)
(132.033 0 0)
(132.836 0 0)
(133.638 0 0)
(134.439 0 0)
(135.239 0 0)
(136.038 0 0)
(136.836 0 0)
(137.632 0 0)
(138.427 0 0)
(139.221 0 0)
(140.012 0 0)
(140.802 0 0)
(141.59 0 0)
(142.377 0 0)
(143.161 0 0)
(143.943 0 0)
(144.723 0 0)
(145.501 0 0)
(146.276 0 0)
(147.05 0 0)
(147.82 0 0)
(148.589 0 0)
(149.355 0 0)
(150.118 0 0)
(150.879 0 0)
(151.638 0 0)
(152.393 0 0)
(153.146 0 0)
(153.897 0 0)
(154.644 0 0)
(155.389 0 0)
(156.131 0 0)
(156.87 0 0)
(157.606 0 0)
(158.341 0 0)
(159.065 0 0)
(159.814 0 0)
(160.471 0 0)
(161.405 0 0)
(103.728 0 0)
(104.193 0 0)
(104.686 0 0)
(105.207 0 0)
(105.752 0 0)
(106.319 0 0)
(106.907 0 0)
(107.514 0 0)
(108.138 0 0)
(108.778 0 0)
(109.432 0 0)
(110.099 0 0)
(110.779 0 0)
(111.469 0 0)
(112.17 0 0)
(112.88 0 0)
(113.598 0 0)
(114.323 0 0)
(115.056 0 0)
(115.794 0 0)
(116.539 0 0)
(117.288 0 0)
(118.042 0 0)
(118.8 0 0)
(119.562 0 0)
(120.327 0 0)
(121.095 0 0)
(121.866 0 0)
(122.638 0 0)
(123.413 0 0)
(124.189 0 0)
(124.967 0 0)
(125.746 0 0)
(126.525 0 0)
(127.305 0 0)
(128.086 0 0)
(128.867 0 0)
(129.648 0 0)
(130.428 0 0)
(131.209 0 0)
(131.989 0 0)
(132.768 0 0)
(133.547 0 0)
(134.325 0 0)
(135.102 0 0)
(135.877 0 0)
(136.652 0 0)
(137.425 0 0)
(138.197 0 0)
(138.967 0 0)
(139.736 0 0)
(140.503 0 0)
(141.269 0 0)
(142.032 0 0)
(142.794 0 0)
(143.553 0 0)
(144.311 0 0)
(145.066 0 0)
(145.82 0 0)
(146.571 0 0)
(147.319 0 0)
(148.066 0 0)
(148.81 0 0)
(149.552 0 0)
(150.291 0 0)
(151.028 0 0)
(151.762 0 0)
(152.494 0 0)
(153.222 0 0)
(153.949 0 0)
(154.672 0 0)
(155.393 0 0)
(156.112 0 0)
(156.826 0 0)
(157.541 0 0)
(158.244 0 0)
(158.972 0 0)
(159.611 0 0)
(160.516 0 0)
(104.275 0 0)
(104.756 0 0)
(105.262 0 0)
(105.791 0 0)
(106.341 0 0)
(106.91 0 0)
(107.497 0 0)
(108.1 0 0)
(108.719 0 0)
(109.351 0 0)
(109.995 0 0)
(110.652 0 0)
(111.318 0 0)
(111.995 0 0)
(112.68 0 0)
(113.374 0 0)
(114.075 0 0)
(114.783 0 0)
(115.496 0 0)
(116.216 0 0)
(116.941 0 0)
(117.67 0 0)
(118.403 0 0)
(119.14 0 0)
(119.881 0 0)
(120.624 0 0)
(121.37 0 0)
(122.119 0 0)
(122.869 0 0)
(123.622 0 0)
(124.375 0 0)
(125.13 0 0)
(125.886 0 0)
(126.643 0 0)
(127.4 0 0)
(128.158 0 0)
(128.916 0 0)
(129.674 0 0)
(130.432 0 0)
(131.189 0 0)
(131.946 0 0)
(132.703 0 0)
(133.459 0 0)
(134.214 0 0)
(134.968 0 0)
(135.721 0 0)
(136.473 0 0)
(137.224 0 0)
(137.974 0 0)
(138.722 0 0)
(139.468 0 0)
(140.213 0 0)
(140.956 0 0)
(141.698 0 0)
(142.437 0 0)
(143.175 0 0)
(143.911 0 0)
(144.644 0 0)
(145.376 0 0)
(146.106 0 0)
(146.833 0 0)
(147.558 0 0)
(148.281 0 0)
(149.001 0 0)
(149.72 0 0)
(150.435 0 0)
(151.148 0 0)
(151.859 0 0)
(152.567 0 0)
(153.273 0 0)
(153.976 0 0)
(154.676 0 0)
(155.374 0 0)
(156.068 0 0)
(156.763 0 0)
(157.446 0 0)
(158.152 0 0)
(158.774 0 0)
(159.652 0 0)
(104.841 0 0)
(105.334 0 0)
(105.848 0 0)
(106.381 0 0)
(106.932 0 0)
(107.501 0 0)
(108.084 0 0)
(108.682 0 0)
(109.293 0 0)
(109.916 0 0)
(110.55 0 0)
(111.194 0 0)
(111.847 0 0)
(112.509 0 0)
(113.179 0 0)
(113.857 0 0)
(114.541 0 0)
(115.231 0 0)
(115.926 0 0)
(116.627 0 0)
(117.332 0 0)
(118.041 0 0)
(118.754 0 0)
(119.471 0 0)
(120.191 0 0)
(120.913 0 0)
(121.638 0 0)
(122.365 0 0)
(123.094 0 0)
(123.824 0 0)
(124.556 0 0)
(125.289 0 0)
(126.023 0 0)
(126.757 0 0)
(127.492 0 0)
(128.228 0 0)
(128.964 0 0)
(129.699 0 0)