/*--------------------------------*- C++ -*----------------------------------*\
| =========                 |                                                 |
| \\      /  F ield         | OpenFOAM: The Open Source CFD Toolbox           |
|  \\    /   O peration     | Version:  2206                                  |
|   \\  /    A nd           | Website:  www.openfoam.com                      |
|    \\/     M anipulation  |                                                 |
\*---------------------------------------------------------------------------*/
FoamFile
{
    version     2.0;
    format      ascii;
    arch        "LSB;label=32;scalar=64";
    class       volScalarField;
    location    "0.65";
    object      wave;
}
// * * * * * * * * * * * * * * * * * * * * * * * * * * * * * * * * * * * * * //

dimensions      [0 0 0 0 0 0 0];

internalField   nonuniform List<scalar> 
100
(
0.666373
0.775811
0.865759
0.933958
0.978693
0.998842
0.993897
0.963984
0.909853
0.832864
0.734952
0.618577
0.486661
0.34252
0.189773
0.0322595
-0.126065
-0.281222
-0.429315
-0.566622
-0.689694
-0.79544
-0.881202
-0.944827
-0.984715
-0.999866
-0.989897
-0.95506
-0.89623
-0.814884
-0.713067
-0.593336
-0.458699
-0.312539
-0.158527
-0.000531908
0.157476
0.311528
0.457754
0.59248
0.712321
0.814267
0.895757
0.954744
0.989746
0.999882
0.9849
0.945175
0.881704
0.796084
0.690464
0.567498
0.430275
0.282243
0.12712
-0.0311962
-0.188729
-0.34152
-0.485732
-0.617741
-0.734231
-0.832275
-0.909411
-0.9637
-0.993779
-0.998893
-0.978911
-0.934338
-0.866291
-0.776482
-0.667165
-0.541088
-0.401418
-0.251663
-0.0955856
0.062893
0.219792
0.371168
0.513221
0.64238
0.755401
0.849445
0.922149
0.971686
0.996812
0.996897
0.971937
0.92256
0.850006
0.756098
0.643195
0.514134
0.372156
0.220829
0.0639549
-0.0945264
-0.250633
-0.400443
-0.540193
-0.666372
)
;

boundaryField
{
    movingWall
    {
        type            calculated;
        value           uniform 0;
    }
    fixedWalls
    {
        type            calculated;
        value           uniform 0;
    }
    frontAndBack
    {
        type            empty;
    }
}


// ************************************************************************* //
