/*--------------------------------*- C++ -*----------------------------------*\
| =========                 |                                                 |
| \\      /  F ield         | OpenFOAM: The Open Source CFD Toolbox           |
|  \\    /   O peration     | Version:  2312                                  |
|   \\  /    A nd           | Website:  www.openfoam.com                      |
|    \\/     M anipulation  |                                                 |
\*---------------------------------------------------------------------------*/
FoamFile
{
    version     2.0;
    format      ascii;
    arch        "LSB;label=32;scalar=64";
    class       volVectorField;
    location    "0.301";
    object      U;
}
// * * * * * * * * * * * * * * * * * * * * * * * * * * * * * * * * * * * * * //

dimensions      [0 1 -1 0 0 0 0];

internalField   nonuniform List<vector> 
31205
(
(298.482 0 0)
(298.116 0 0)
(297.711 0 0)
(297.267 0 0)
(296.784 0 0)
(296.261 0 0)
(295.698 0 0)
(295.093 0 0)
(294.447 0 0)
(293.759 0 0)
(293.027 0 0)
(292.251 0 0)
(291.43 0 0)
(290.563 0 0)
(289.649 0 0)
(288.687 0 0)
(287.674 0 0)
(286.611 0 0)
(285.494 0 0)
(284.323 0 0)
(283.095 0 0)
(281.808 0 0)
(280.46 0 0)
(279.049 0 0)
(277.571 0 0)
(276.022 0 0)
(274.401 0 0)
(272.702 0 0)
(270.921 0 0)
(269.053 0 0)
(267.092 0 0)
(265.032 0 0)
(262.865 0 0)
(260.581 0 0)
(258.172 0 0)
(255.624 0 0)
(252.924 0 0)
(250.052 0 0)
(246.987 0 0)
(243.702 0 0)
(240.163 0 0)
(236.311 0 0)
(232.065 0 0)
(227.389 0 0)
(222.329 0 0)
(216.491 0 0)
(207.683 0 0)
(191.922 0 0)
(168.282 0 0)
(143.205 0 0)
(124.412 0 0)
(113.588 0 0)
(108.279 0 0)
(105.93 0 0)
(105.044 0 0)
(104.888 0 0)
(105.119 0 0)
(105.574 0 0)
(106.168 0 0)
(106.857 0 0)
(107.613 0 0)
(108.42 0 0)
(109.266 0 0)
(110.143 0 0)
(111.045 0 0)
(111.968 0 0)
(112.907 0 0)
(113.861 0 0)
(114.827 0 0)
(115.803 0 0)
(116.787 0 0)
(117.779 0 0)
(118.777 0 0)
(119.778 0 0)
(120.789 0 0)
(121.787 0 0)
(122.838 0 0)
(123.74 0 0)
(125.109 0 0)
(298.152 0 0)
(297.763 0 0)
(297.336 0 0)
(296.873 0 0)
(296.371 0 0)
(295.831 0 0)
(295.253 0 0)
(294.635 0 0)
(293.976 0 0)
(293.278 0 0)
(292.537 0 0)
(291.754 0 0)
(290.928 0 0)
(290.057 0 0)
(289.141 0 0)
(288.178 0 0)
(287.167 0 0)
(286.106 0 0)
(284.995 0 0)
(283.83 0 0)
(282.611 0 0)
(281.336 0 0)
(280.001 0 0)
(278.605 0 0)
(277.144 0 0)
(275.616 0 0)
(274.018 0 0)
(272.345 0 0)
(270.592 0 0)
(268.757 0 0)
(266.832 0 0)
(264.811 0 0)
(262.689 0 0)
(260.455 0 0)
(258.101 0 0)
(255.615 0 0)
(252.983 0 0)
(250.189 0 0)
(247.213 0 0)
(244.03 0 0)
(240.61 0 0)
(236.903 0 0)
(232.834 0 0)
(228.343 0 0)
(223.466 0 0)
(218.071 0 0)
(210.697 0 0)
(197.684 0 0)
(176.357 0 0)
(150.853 0 0)
(129.561 0 0)
(116.332 0 0)
(109.54 0 0)
(106.422 0 0)
(105.144 0 0)
(104.775 0 0)
(104.877 0 0)
(105.242 0 0)
(105.769 0 0)
(106.401 0 0)
(107.108 0 0)
(107.87 0 0)
(108.674 0 0)
(109.512 0 0)
(110.377 0 0)
(111.263 0 0)
(112.167 0 0)
(113.087 0 0)
(114.019 0 0)
(114.962 0 0)
(115.914 0 0)
(116.874 0 0)
(117.84 0 0)
(118.811 0 0)
(119.791 0 0)
(120.759 0 0)
(121.778 0 0)
(122.654 0 0)
(123.978 0 0)
(297.782 0 0)
(297.37 0 0)
(296.922 0 0)
(296.439 0 0)
(295.919 0 0)
(295.363 0 0)
(294.769 0 0)
(294.138 0 0)
(293.468 0 0)
(292.759 0 0)
(292.009 0 0)
(291.219 0 0)
(290.387 0 0)
(289.512 0 0)
(288.594 0 0)
(287.63 0 0)
(286.62 0 0)
(285.562 0 0)
(284.455 0 0)
(283.296 0 0)
(282.085 0 0)
(280.819 0 0)
(279.497 0 0)
(278.114 0 0)
(276.67 0 0)
(275.161 0 0)
(273.583 0 0)
(271.934 0 0)
(270.208 0 0)
(268.402 0 0)
(266.51 0 0)
(264.526 0 0)
(262.444 0 0)
(260.256 0 0)
(257.953 0 0)
(255.523 0 0)
(252.955 0 0)
(250.232 0 0)
(247.337 0 0)
(244.246 0 0)
(240.932 0 0)
(237.353 0 0)
(233.443 0 0)
(229.128 0 0)
(224.416 0 0)
(219.305 0 0)
(212.907 0 0)
(202.177 0 0)
(183.482 0 0)
(158.515 0 0)
(135.266 0 0)
(119.575 0 0)
(111.101 0 0)
(107.076 0 0)
(105.338 0 0)
(104.725 0 0)
(104.684 0 0)
(104.955 0 0)
(105.41 0 0)
(105.985 0 0)
(106.643 0 0)
(107.36 0 0)
(108.123 0 0)
(108.922 0 0)
(109.749 0 0)
(110.6 0 0)
(111.47 0 0)
(112.356 0 0)
(113.255 0 0)
(114.166 0 0)
(115.086 0 0)
(116.014 0 0)
(116.95 0 0)
(117.89 0 0)
(118.84 0 0)
(119.779 0 0)
(120.767 0 0)
(121.619 0 0)
(122.897 0 0)
(297.381 0 0)
(296.947 0 0)
(296.48 0 0)
(295.978 0 0)
(295.442 0 0)
(294.87 0 0)
(294.262 0 0)
(293.618 0 0)
(292.937 0 0)
(292.218 0 0)
(291.461 0 0)
(290.664 0 0)
(289.827 0 0)
(288.948 0 0)
(288.027 0 0)
(287.062 0 0)
(286.053 0 0)
(284.997 0 0)
(283.894 0 0)
(282.741 0 0)
(281.538 0 0)
(280.281 0 0)
(278.97 0 0)
(277.6 0 0)
(276.171 0 0)
(274.679 0 0)
(273.122 0 0)
(271.494 0 0)
(269.794 0 0)
(268.015 0 0)
(266.154 0 0)
(264.205 0 0)
(262.161 0 0)
(260.015 0 0)
(257.759 0 0)
(255.381 0 0)
(252.872 0 0)
(250.215 0 0)
(247.395 0 0)
(244.388 0 0)
(241.171 0 0)
(237.707 0 0)
(233.938 0 0)
(229.789 0 0)
(225.237 0 0)
(220.327 0 0)
(214.577 0 0)
(205.638 0 0)
(189.578 0 0)
(165.931 0 0)
(141.402 0 0)
(123.326 0 0)
(112.993 0 0)
(107.913 0 0)
(105.637 0 0)
(104.744 0 0)
(104.545 0 0)
(104.713 0 0)
(105.096 0 0)
(105.612 0 0)
(106.22 0 0)
(106.893 0 0)
(107.615 0 0)
(108.375 0 0)
(109.166 0 0)
(109.981 0 0)
(110.817 0 0)
(111.67 0 0)
(112.537 0 0)
(113.417 0 0)
(114.306 0 0)
(115.204 0 0)
(116.109 0 0)
(117.019 0 0)
(117.94 0 0)
(118.85 0 0)
(119.807 0 0)
(120.636 0 0)
(121.872 0 0)
(296.957 0 0)
(296.503 0 0)
(296.018 0 0)
(295.499 0 0)
(294.947 0 0)
(294.361 0 0)
(293.741 0 0)
(293.086 0 0)
(292.394 0 0)
(291.667 0 0)
(290.902 0 0)
(290.099 0 0)
(289.257 0 0)
(288.375 0 0)
(287.452 0 0)
(286.487 0 0)
(285.479 0 0)
(284.426 0 0)
(283.327 0 0)
(282.18 0 0)
(280.984 0 0)
(279.737 0 0)
(278.436 0 0)
(277.08 0 0)
(275.666 0 0)
(274.191 0 0)
(272.652 0 0)
(271.046 0 0)
(269.369 0 0)
(267.618 0 0)
(265.787 0 0)
(263.87 0 0)
(261.863 0 0)
(259.757 0 0)
(257.546 0 0)
(255.218 0 0)
(252.764 0 0)
(250.17 0 0)
(247.42 0 0)
(244.493 0 0)
(241.367 0 0)
(238.009 0 0)
(234.371 0 0)
(230.378 0 0)
(225.985 0 0)
(221.239 0 0)
(215.928 0 0)
(208.369 0 0)
(194.803 0 0)
(173.074 0 0)
(147.99 0 0)
(127.684 0 0)
(115.301 0 0)
(108.98 0 0)
(106.059 0 0)
(104.837 0 0)
(104.456 0 0)
(104.513 0 0)
(104.818 0 0)
(105.274 0 0)
(105.831 0 0)
(106.459 0 0)
(107.14 0 0)
(107.862 0 0)
(108.617 0 0)
(109.398 0 0)
(110.201 0 0)
(111.021 0 0)
(111.856 0 0)
(112.704 0 0)
(113.563 0 0)
(114.431 0 0)
(115.307 0 0)
(116.188 0 0)
(117.079 0 0)
(117.962 0 0)
(118.889 0 0)
(119.694 0 0)
(120.89 0 0)
(296.513 0 0)
(296.042 0 0)
(295.54 0 0)
(295.006 0 0)
(294.44 0 0)
(293.842 0 0)
(293.21 0 0)
(292.544 0 0)
(291.844 0 0)
(291.109 0 0)
(290.338 0 0)
(289.53 0 0)
(288.684 0 0)
(287.8 0 0)
(286.876 0 0)
(285.911 0 0)
(284.905 0 0)
(283.855 0 0)
(282.761 0 0)
(281.62 0 0)
(280.432 0 0)
(279.194 0 0)
(277.904 0 0)
(276.561 0 0)
(275.162 0 0)
(273.703 0 0)
(272.184 0 0)
(270.599 0 0)
(268.946 0 0)
(267.221 0 0)
(265.418 0 0)
(263.534 0 0)
(261.562 0 0)
(259.496 0 0)
(257.328 0 0)
(255.048 0 0)
(252.648 0 0)
(250.114 0 0)
(247.431 0 0)
(244.581 0 0)
(241.541 0 0)
(238.284 0 0)
(234.767 0 0)
(230.922 0 0)
(226.689 0 0)
(222.094 0 0)
(217.086 0 0)
(210.56 0 0)
(199.243 0 0)
(179.858 0 0)
(154.992 0 0)
(132.738 0 0)
(118.131 0 0)
(110.339 0 0)
(106.635 0 0)
(105.015 0 0)
(104.422 0 0)
(104.353 0 0)
(104.573 0 0)
(104.966 0 0)
(105.47 0 0)
(106.053 0 0)
(106.694 0 0)
(107.378 0 0)
(108.097 0 0)
(108.843 0 0)
(109.613 0 0)
(110.401 0 0)
(111.205 0 0)
(112.023 0 0)
(112.852 0 0)
(113.69 0 0)
(114.537 0 0)
(115.389 0 0)
(116.252 0 0)
(117.107 0 0)
(118.005 0 0)
(118.786 0 0)
(119.944 0 0)
(296.054 0 0)
(295.566 0 0)
(295.049 0 0)
(294.502 0 0)
(293.923 0 0)
(293.314 0 0)
(292.672 0 0)
(291.997 0 0)
(291.289 0 0)
(290.548 0 0)
(289.771 0 0)
(288.959 0 0)
(288.111 0 0)
(287.225 0 0)
(286.301 0 0)
(285.338 0 0)
(284.333 0 0)
(283.288 0 0)
(282.198 0 0)
(281.065 0 0)
(279.884 0 0)
(278.656 0 0)
(277.378 0 0)
(276.048 0 0)
(274.663 0 0)
(273.222 0 0)
(271.721 0 0)
(270.158 0 0)
(268.528 0 0)
(266.828 0 0)
(265.055 0 0)
(263.202 0 0)
(261.265 0 0)
(259.237 0 0)
(257.111 0 0)
(254.879 0 0)
(252.531 0 0)
(250.055 0 0)
(247.437 0 0)
(244.66 0 0)
(241.704 0 0)
(238.542 0 0)
(235.139 0 0)
(231.435 0 0)
(227.36 0 0)
(222.914 0 0)
(218.125 0 0)
(212.347 0 0)
(202.958 0 0)
(186.146 0 0)
(162.282 0 0)
(138.535 0 0)
(121.591 0 0)
(112.071 0 0)
(107.406 0 0)
(105.297 0 0)
(104.45 0 0)
(104.236 0 0)
(104.362 0 0)
(104.687 0 0)
(105.137 0 0)
(105.674 0 0)
(106.273 0 0)
(106.919 0 0)
(107.602 0 0)
(108.315 0 0)
(109.051 0 0)
(109.808 0 0)
(110.581 0 0)
(111.369 0 0)
(112.168 0 0)
(112.977 0 0)
(113.796 0 0)
(114.62 0 0)
(115.455 0 0)
(116.282 0 0)
(117.152 0 0)
(117.91 0 0)
(119.03 0 0)
(295.58 0 0)
(295.078 0 0)
(294.548 0 0)
(293.988 0 0)
(293.399 0 0)
(292.779 0 0)
(292.128 0 0)
(291.446 0 0)
(290.732 0 0)
(289.985 0 0)
(289.204 0 0)
(288.389 0 0)
(287.539 0 0)
(286.653 0 0)
(285.729 0 0)
(284.767 0 0)
(283.766 0 0)
(282.725 0 0)
(281.641 0 0)
(280.515 0 0)
(279.343 0 0)
(278.125 0 0)
(276.859 0 0)
(275.542 0 0)
(274.173 0 0)
(272.748 0 0)
(271.266 0 0)
(269.724 0 0)
(268.118 0 0)
(266.444 0 0)
(264.698 0 0)
(262.877 0 0)
(260.974 0 0)
(258.983 0 0)
(256.899 0 0)
(254.713 0 0)
(252.415 0 0)
(249.996 0 0)
(247.441 0 0)
(244.735 0 0)
(241.859 0 0)
(238.789 0 0)
(235.494 0 0)
(231.922 0 0)
(228.003 0 0)
(223.709 0 0)
(219.091 0 0)
(213.835 0 0)
(206.01 0 0)
(191.796 0 0)
(169.652 0 0)
(145.053 0 0)
(125.784 0 0)
(114.265 0 0)
(108.422 0 0)
(105.707 0 0)
(104.55 0 0)
(104.166 0 0)
(104.186 0 0)
(104.438 0 0)
(104.831 0 0)
(105.32 0 0)
(105.877 0 0)
(106.485 0 0)
(107.132 0 0)
(107.811 0 0)
(108.515 0 0)
(109.24 0 0)
(109.983 0 0)
(110.741 0 0)
(111.511 0 0)
(112.292 0 0)
(113.082 0 0)
(113.878 0 0)
(114.686 0 0)
(115.487 0 0)
(116.329 0 0)
(117.063 0 0)
(118.146 0 0)
(295.094 0 0)
(294.579 0 0)
(294.037 0 0)
(293.467 0 0)
(292.868 0 0)
(292.239 0 0)
(291.581 0 0)
(290.892 0 0)
(290.173 0 0)
(289.421 0 0)
(288.637 0 0)
(287.82 0 0)
(286.969 0 0)
(286.083 0 0)
(285.161 0 0)
(284.201 0 0)
(283.204 0 0)
(282.168 0 0)
(281.091 0 0)
(279.972 0 0)
(278.809 0 0)
(277.602 0 0)
(276.347 0 0)
(275.044 0 0)
(273.69 0 0)
(272.283 0 0)
(270.82 0 0)
(269.298 0 0)
(267.715 0 0)
(266.067 0 0)
(264.349 0 0)
(262.558 0 0)
(260.689 0 0)
(258.736 0 0)
(256.692 0 0)
(254.55 0 0)
(252.302 0 0)
(249.938 0 0)
(247.444 0 0)
(244.807 0 0)
(242.008 0 0)
(239.027 0 0)
(235.834 0 0)
(232.387 0 0)
(228.618 0 0)
(224.479 0 0)
(220.011 0 0)
(215.111 0 0)
(208.485 0 0)
(196.707 0 0)
(176.851 0 0)
(152.192 0 0)
(130.79 0 0)
(117.028 0 0)
(109.749 0 0)
(106.278 0 0)
(104.738 0 0)
(104.149 0 0)
(104.049 0 0)
(104.22 0 0)
(104.552 0 0)
(104.992 0 0)
(105.506 0 0)
(106.075 0 0)
(106.686 0 0)
(107.331 0 0)
(108.002 0 0)
(108.697 0 0)
(109.409 0 0)
(110.138 0 0)
(110.879 0 0)
(111.632 0 0)
(112.394 0 0)
(113.164 0 0)
(113.944 0 0)
(114.719 0 0)
(115.534 0 0)
(116.245 0 0)
(117.293 0 0)
(294.597 0 0)
(294.071 0 0)
(293.518 0 0)
(292.939 0 0)
(292.331 0 0)
(291.695 0 0)
(291.031 0 0)
(290.337 0 0)
(289.613 0 0)
(288.858 0 0)
(288.072 0 0)
(287.253 0 0)
(286.402 0 0)
(285.516 0 0)
(284.596 0 0)
(283.64 0 0)
(282.647 0 0)
(281.616 0 0)
(280.546 0 0)
(279.435 0 0)
(278.282 0 0)
(277.086 0 0)
(275.844 0 0)
(274.554 0 0)
(273.216 0 0)
(271.826 0 0)
(270.382 0 0)
(268.881 0 0)
(267.321 0 0)
(265.698 0 0)
(264.008 0 0)
(262.247 0 0)
(260.411 0 0)
(258.494 0 0)
(256.49 0 0)
(254.392 0 0)
(252.193 0 0)
(249.881 0 0)
(247.447 0 0)
(244.877 0 0)
(242.153 0 0)
(239.256 0 0)
(236.16 0 0)
(232.83 0 0)
(229.205 0 0)
(225.223 0 0)
(220.899 0 0)
(216.244 0 0)
(210.488 0 0)
(200.838 0 0)
(183.62 0 0)
(159.764 0 0)
(136.647 0 0)
(120.472 0 0)
(111.467 0 0)
(107.051 0 0)
(105.033 0 0)
(104.196 0 0)
(103.955 0 0)
(104.035 0 0)
(104.302 0 0)
(104.689 0 0)
(105.159 0 0)
(105.688 0 0)
(106.263 0 0)
(106.874 0 0)
(107.514 0 0)
(108.177 0 0)
(108.86 0 0)
(109.559 0 0)
(110.273 0 0)
(110.998 0 0)
(111.733 0 0)
(112.476 0 0)
(113.229 0 0)
(113.978 0 0)
(114.766 0 0)
(115.456 0 0)
(116.468 0 0)
(294.091 0 0)
(293.555 0 0)
(292.993 0 0)
(292.405 0 0)
(291.79 0 0)
(291.148 0 0)
(290.478 0 0)
(289.78 0 0)
(289.052 0 0)
(288.295 0 0)
(287.507 0 0)
(286.688 0 0)
(285.837 0 0)
(284.954 0 0)
(284.036 0 0)
(283.084 0 0)
(282.096 0 0)
(281.071 0 0)
(280.008 0 0)
(278.906 0 0)
(277.763 0 0)
(276.577 0 0)
(275.348 0 0)
(274.073 0 0)
(272.75 0 0)
(271.377 0 0)
(269.952 0 0)
(268.472 0 0)
(266.935 0 0)
(265.336 0 0)
(263.674 0 0)
(261.943 0 0)
(260.139 0 0)
(258.258 0 0)
(256.293 0 0)
(254.238 0 0)
(252.086 0 0)
(249.826 0 0)
(247.45 0 0)
(244.944 0 0)
(242.292 0 0)
(239.476 0 0)
(236.474 0 0)
(233.254 0 0)
(229.764 0 0)
(225.938 0 0)
(221.762 0 0)
(217.286 0 0)
(212.128 0 0)
(204.216 0 0)
(189.733 0 0)
(167.509 0 0)
(143.329 0 0)
(124.706 0 0)
(113.675 0 0)
(108.082 0 0)
(105.462 0 0)
(104.319 0 0)
(103.909 0 0)
(103.885 0 0)
(104.081 0 0)
(104.413 0 0)
(104.837 0 0)
(105.326 0 0)
(105.865 0 0)
(106.442 0 0)
(107.049 0 0)
(107.682 0 0)
(108.335 0 0)
(109.006 0 0)
(109.691 0 0)
(110.388 0 0)
(111.097 0 0)
(111.813 0 0)
(112.541 0 0)
(113.265 0 0)
(114.026 0 0)
(114.694 0 0)
(115.672 0 0)
(293.577 0 0)
(293.032 0 0)
(292.462 0 0)
(291.867 0 0)
(291.246 0 0)
(290.599 0 0)
(289.924 0 0)
(289.222 0 0)
(288.492 0 0)
(287.733 0 0)
(286.945 0 0)
(286.127 0 0)
(285.277 0 0)
(284.395 0 0)
(283.481 0 0)
(282.533 0 0)
(281.551 0 0)
(280.533 0 0)
(279.477 0 0)
(278.384 0 0)
(277.251 0 0)
(276.077 0 0)
(274.86 0 0)
(273.599 0 0)
(272.292 0 0)
(270.936 0 0)
(269.53 0 0)
(268.071 0 0)
(266.556 0 0)
(264.983 0 0)
(263.347 0 0)
(261.646 0 0)
(259.874 0 0)
(258.028 0 0)
(256.101 0 0)
(254.088 0 0)
(251.981 0 0)
(249.773 0 0)
(247.452 0 0)
(245.008 0 0)
(242.426 0 0)
(239.689 0 0)
(236.776 0 0)
(233.66 0 0)
(230.296 0 0)
(226.623 0 0)
(222.598 0 0)
(218.272 0 0)
(213.509 0 0)
(206.925 0 0)
(195.038 0 0)
(175.119 0 0)
(150.724 0 0)
(129.823 0 0)
(116.487 0 0)
(109.44 0 0)
(106.059 0 0)
(104.532 0 0)
(103.919 0 0)
(103.775 0 0)
(103.892 0 0)
(104.165 0 0)
(104.54 0 0)
(104.988 0 0)
(105.49 0 0)
(106.032 0 0)
(106.608 0 0)
(107.21 0 0)
(107.834 0 0)
(108.476 0 0)
(109.133 0 0)
(109.804 0 0)
(110.486 0 0)
(111.176 0 0)
(111.878 0 0)
(112.577 0 0)
(113.313 0 0)
(113.959 0 0)
(114.903 0 0)
(293.056 0 0)
(292.503 0 0)
(291.927 0 0)
(291.326 0 0)
(290.7 0 0)
(290.048 0 0)
(289.37 0 0)
(288.666 0 0)
(287.934 0 0)
(287.174 0 0)
(286.386 0 0)
(285.568 0 0)
(284.72 0 0)
(283.842 0 0)
(282.931 0 0)
(281.988 0 0)
(281.012 0 0)
(280 0 0)
(278.953 0 0)
(277.869 0 0)
(276.746 0 0)
(275.584 0 0)
(274.38 0 0)
(273.133 0 0)
(271.842 0 0)
(270.504 0 0)
(269.116 0 0)
(267.678 0 0)
(266.186 0 0)
(264.637 0 0)
(263.028 0 0)
(261.355 0 0)
(259.615 0 0)
(257.803 0 0)
(255.914 0 0)
(253.942 0 0)
(251.88 0 0)
(249.72 0 0)
(247.454 0 0)
(245.07 0 0)
(242.555 0 0)
(239.894 0 0)
(237.066 0 0)
(234.048 0 0)
(230.804 0 0)
(227.275 0 0)
(223.405 0 0)
(219.219 0 0)
(214.718 0 0)
(209.083 0 0)
(199.47 0 0)
(182.281 0 0)
(158.623 0 0)
(135.872 0 0)
(120.029 0 0)
(111.214 0 0)
(106.87 0 0)
(104.858 0 0)
(103.994 0 0)
(103.709 0 0)
(103.736 0 0)
(103.944 0 0)
(104.269 0 0)
(104.675 0 0)
(105.138 0 0)
(105.646 0 0)
(106.189 0 0)
(106.761 0 0)
(107.355 0 0)
(107.969 0 0)
(108.6 0 0)
(109.244 0 0)
(109.899 0 0)
(110.565 0 0)
(111.241 0 0)
(111.916 0 0)
(112.626 0 0)
(113.251 0 0)
(114.162 0 0)
(292.53 0 0)
(291.971 0 0)
(291.388 0 0)
(290.782 0 0)
(290.152 0 0)
(289.497 0 0)
(288.816 0 0)
(288.11 0 0)
(287.377 0 0)
(286.617 0 0)
(285.829 0 0)
(285.013 0 0)
(284.168 0 0)
(283.293 0 0)
(282.387 0 0)
(281.449 0 0)
(280.479 0 0)
(279.475 0 0)
(278.436 0 0)
(277.361 0 0)
(276.249 0 0)
(275.099 0 0)
(273.908 0 0)
(272.676 0 0)
(271.4 0 0)
(270.079 0 0)
(268.711 0 0)
(267.293 0 0)
(265.823 0 0)
(264.298 0 0)
(262.715 0 0)
(261.071 0 0)
(259.362 0 0)
(257.584 0 0)
(255.731 0 0)
(253.799 0 0)
(251.781 0 0)
(249.669 0 0)
(247.455 0 0)
(245.13 0 0)
(242.68 0 0)
(240.091 0 0)
(237.345 0 0)
(234.421 0 0)
(231.288 0 0)
(227.895 0 0)
(224.181 0 0)
(220.138 0 0)
(215.818 0 0)
(210.822 0 0)
(203.056 0 0)
(188.727 0 0)
(166.728 0 0)
(142.825 0 0)
(124.427 0 0)
(113.514 0 0)
(107.956 0 0)
(105.325 0 0)
(104.148 0 0)
(103.693 0 0)
(103.616 0 0)
(103.754 0 0)
(104.025 0 0)
(104.385 0 0)
(104.81 0 0)
(105.283 0 0)
(105.794 0 0)
(106.335 0 0)
(106.9 0 0)
(107.486 0 0)
(108.089 0 0)
(108.707 0 0)
(109.337 0 0)
(109.977 0 0)
(110.629 0 0)
(111.279 0 0)
(111.964 0 0)
(112.568 0 0)
(113.448 0 0)
(291.999 0 0)
(291.435 0 0)
(290.847 0 0)
(290.237 0 0)
(289.603 0 0)
(288.945 0 0)
(288.263 0 0)
(287.556 0 0)
(286.823 0 0)
(286.063 0 0)
(285.277 0 0)
(284.463 0 0)
(283.621 0 0)
(282.75 0 0)
(281.849 0 0)
(280.917 0 0)
(279.953 0 0)
(278.957 0 0)
(277.926 0 0)
(276.861 0 0)
(275.76 0 0)
(274.622 0 0)
(273.444 0 0)
(272.226 0 0)
(270.966 0 0)
(269.663 0 0)
(268.313 0 0)
(266.916 0 0)
(265.468 0 0)
(263.967 0 0)
(262.41 0 0)
(260.794 0 0)
(259.115 0 0)
(257.37 0 0)
(255.553 0 0)
(253.66 0 0)
(251.684 0 0)
(249.619 0 0)
(247.456 0 0)
(245.187 0 0)
(242.8 0 0)
(240.281 0 0)
(237.614 0 0)
(234.779 0 0)
(231.75 0 0)
(228.485 0 0)
(224.922 0 0)
(221.027 0 0)
(216.854 0 0)
(212.267 0 0)
(205.891 0 0)
(194.277 0 0)
(174.682 0 0)
(150.557 0 0)
(129.786 0 0)
(116.47 0 0)
(109.396 0 0)
(105.973 0 0)
(104.399 0 0)
(103.735 0 0)
(103.536 0 0)
(103.595 0 0)
(103.807 0 0)
(104.121 0 0)
(104.506 0 0)
(104.943 0 0)
(105.421 0 0)
(105.931 0 0)
(106.468 0 0)
(107.026 0 0)
(107.602 0 0)
(108.194 0 0)
(108.798 0 0)
(109.413 0 0)
(110.041 0 0)
(110.667 0 0)
(111.328 0 0)
(111.911 0 0)
(112.759 0 0)
(291.466 0 0)
(290.896 0 0)
(290.305 0 0)
(289.691 0 0)
(289.055 0 0)
(288.395 0 0)
(287.712 0 0)
(287.004 0 0)
(286.271 0 0)
(285.513 0 0)
(284.729 0 0)
(283.918 0 0)
(283.079 0 0)
(282.212 0 0)
(281.316 0 0)
(280.39 0 0)
(279.434 0 0)
(278.445 0 0)
(277.424 0 0)
(276.369 0 0)
(275.279 0 0)
(274.152 0 0)
(272.988 0 0)
(271.785 0 0)
(270.541 0 0)
(269.254 0 0)
(267.923 0 0)
(266.546 0 0)
(265.12 0 0)
(263.643 0 0)
(262.111 0 0)
(260.523 0 0)
(258.874 0 0)
(257.161 0 0)
(255.379 0 0)
(253.524 0 0)
(251.589 0 0)
(249.57 0 0)
(247.457 0 0)
(245.242 0 0)
(242.916 0 0)
(240.464 0 0)
(237.873 0 0)
(235.123 0 0)
(232.192 0 0)
(229.046 0 0)
(225.627 0 0)
(221.886 0 0)
(217.848 0 0)
(213.521 0 0)
(208.118 0 0)
(198.858 0 0)
(182.126 0 0)
(158.823 0 0)
(136.158 0 0)
(120.225 0 0)
(111.292 0 0)
(106.855 0 0)
(104.772 0 0)
(103.846 0 0)
(103.502 0 0)
(103.47 0 0)
(103.618 0 0)
(103.882 0 0)
(104.225 0 0)
(104.626 0 0)
(105.071 0 0)
(105.55 0 0)
(106.058 0 0)
(106.588 0 0)
(107.137 0 0)
(107.703 0 0)
(108.283 0 0)
(108.873 0 0)
(109.476 0 0)
(110.08 0 0)
(110.716 0 0)
(111.279 0 0)
(112.096 0 0)
(290.93 0 0)
(290.356 0 0)
(289.762 0 0)
(289.146 0 0)
(288.507 0 0)
(287.847 0 0)
(287.163 0 0)
(286.455 0 0)
(285.723 0 0)
(284.967 0 0)
(284.185 0 0)
(283.377 0 0)
(282.542 0 0)
(281.68 0 0)
(280.79 0 0)
(279.871 0 0)
(278.921 0 0)
(277.941 0 0)
(276.929 0 0)
(275.884 0 0)
(274.805 0 0)
(273.691 0 0)
(272.541 0 0)
(271.352 0 0)
(270.124 0 0)
(268.854 0 0)
(267.542 0 0)
(266.184 0 0)
(264.78 0 0)
(263.326 0 0)
(261.819 0 0)
(260.258 0 0)
(258.638 0 0)
(256.957 0 0)
(255.209 0 0)
(253.391 0 0)
(251.497 0 0)
(249.522 0 0)
(247.457 0 0)
(245.295 0 0)
(243.027 0 0)
(240.64 0 0)
(238.122 0 0)
(235.454 0 0)
(232.616 0 0)
(229.58 0 0)
(226.297 0 0)
(222.709 0 0)
(218.811 0 0)
(214.66 0 0)
(209.891 0 0)
(202.509 0 0)
(188.757 0 0)
(167.275 0 0)
(143.506 0 0)
(124.922 0 0)
(113.77 0 0)
(108.04 0 0)
(105.299 0 0)
(104.042 0 0)
(103.521 0 0)
(103.382 0 0)
(103.459 0 0)
(103.67 0 0)
(103.969 0 0)
(104.332 0 0)
(104.743 0 0)
(105.191 0 0)
(105.67 0 0)
(106.172 0 0)
(106.695 0 0)
(107.235 0 0)
(107.79 0 0)
(108.356 0 0)
(108.935 0 0)
(109.516 0 0)
(110.129 0 0)
(110.672 0 0)
(111.458 0 0)
(290.392 0 0)
(289.816 0 0)
(289.219 0 0)
(288.601 0 0)
(287.961 0 0)
(287.3 0 0)
(286.616 0 0)
(285.91 0 0)
(285.179 0 0)
(284.425 0 0)
(283.646 0 0)
(282.842 0 0)
(282.012 0 0)
(281.155 0 0)
(280.27 0 0)
(279.358 0 0)
(278.416 0 0)
(277.445 0 0)
(276.442 0 0)
(275.407 0 0)
(274.34 0 0)
(273.238 0 0)
(272.101 0 0)
(270.927 0 0)
(269.714 0 0)
(268.462 0 0)
(267.168 0 0)
(265.83 0 0)
(264.447 0 0)
(263.016 0 0)
(261.534 0 0)
(259.999 0 0)
(258.409 0 0)
(256.758 0 0)
(255.044 0 0)
(253.262 0 0)
(251.408 0 0)
(249.475 0 0)
(247.457 0 0)
(245.346 0 0)
(243.134 0 0)
(240.81 0 0)
(238.361 0 0)
(235.772 0 0)
(233.023 0 0)
(230.09 0 0)
(226.933 0 0)
(223.495 0 0)
(219.743 0 0)
(215.731 0 0)
(211.354 0 0)
(205.35 0 0)
(194.382 0 0)
(175.5 0 0)
(151.667 0 0)
(130.673 0 0)
(116.98 0 0)
(109.621 0 0)
(106.026 0 0)
(104.344 0 0)
(103.601 0 0)
(103.336 0 0)
(103.332 0 0)
(103.484 0 0)
(103.738 0 0)
(104.062 0 0)
(104.438 0 0)
(104.855 0 0)
(105.304 0 0)
(105.778 0 0)
(106.275 0 0)
(106.789 0 0)
(107.319 0 0)
(107.862 0 0)
(108.417 0 0)
(108.975 0 0)
(109.564 0 0)
(110.088 0 0)
(110.844 0 0)
(289.854 0 0)
(289.275 0 0)
(288.676 0 0)
(288.057 0 0)
(287.418 0 0)
(286.756 0 0)
(286.073 0 0)
(285.368 0 0)
(284.64 0 0)
(283.888 0 0)
(283.113 0 0)
(282.312 0 0)
(281.487 0 0)
(280.636 0 0)
(279.758 0 0)
(278.852 0 0)
(277.918 0 0)
(276.955 0 0)
(275.962 0 0)
(274.938 0 0)
(273.882 0 0)
(272.793 0 0)
(271.669 0 0)
(270.509 0 0)
(269.313 0 0)
(268.077 0 0)
(266.801 0 0)
(265.483 0 0)
(264.121 0 0)
(262.713 0 0)
(261.255 0 0)
(259.747 0 0)
(258.184 0 0)
(256.564 0 0)
(254.883 0 0)
(253.136 0 0)
(251.32 0 0)
(249.429 0 0)
(247.456 0 0)
(245.395 0 0)
(243.238 0 0)
(240.974 0 0)
(238.592 0 0)
(236.077 0 0)
(233.413 0 0)
(230.577 0 0)
(227.537 0 0)
(224.242 0 0)
(220.641 0 0)
(216.76 0 0)
(212.623 0 0)
(207.551 0 0)
(198.941 0 0)
(183.095 0 0)
(160.34 0 0)
(137.522 0 0)
(121.084 0 0)
(111.719 0 0)
(107.017 0 0)
(104.781 0 0)
(103.758 0 0)
(103.339 0 0)
(103.241 0 0)
(103.328 0 0)
(103.532 0 0)
(103.815 0 0)
(104.156 0 0)
(104.54 0 0)
(104.959 0 0)
(105.406 0 0)
(105.876 0 0)
(106.366 0 0)
(106.871 0 0)
(107.39 0 0)
(107.922 0 0)
(108.457 0 0)
(109.024 0 0)
(109.528 0 0)
(110.255 0 0)
(289.316 0 0)
(288.735 0 0)
(288.136 0 0)
(287.516 0 0)
(286.876 0 0)
(286.216 0 0)
(285.534 0 0)
(284.831 0 0)
(284.105 0 0)
(283.357 0 0)
(282.585 0 0)
(281.789 0 0)
(280.969 0 0)
(280.123 0 0)
(279.252 0 0)
(278.354 0 0)
(277.428 0 0)
(276.474 0 0)
(275.491 0 0)
(274.477 0 0)
(273.433 0 0)
(272.356 0 0)
(271.245 0 0)
(270.1 0 0)
(268.919 0 0)
(267.701 0 0)
(266.443 0 0)
(265.144 0 0)
(263.803 0 0)
(262.417 0 0)
(260.983 0 0)
(259.501 0 0)
(257.965 0 0)
(256.375 0 0)
(254.726 0 0)
(253.014 0 0)
(251.235 0 0)
(249.384 0 0)
(247.455 0 0)
(245.442 0 0)
(243.337 0 0)
(241.131 0 0)
(238.814 0 0)
(236.371 0 0)
(233.787 0 0)
(231.043 0 0)
(228.113 0 0)
(224.95 0 0)
(221.501 0 0)
(217.757 0 0)
(213.78 0 0)
(209.29 0 0)
(202.503 0 0)
(189.735 0 0)
(169.108 0 0)
(145.396 0 0)
(126.238 0 0)
(114.479 0 0)
(108.355 0 0)
(105.393 0 0)
(104.008 0 0)
(103.398 0 0)
(103.188 0 0)
(103.202 0 0)
(103.352 0 0)
(103.592 0 0)
(103.896 0 0)
(104.247 0 0)
(104.637 0 0)
(105.056 0 0)
(105.499 0 0)
(105.963 0 0)
(106.444 0 0)
(106.939 0 0)
(107.449 0 0)
(107.962 0 0)
(108.505 0 0)
(108.99 0 0)
(109.689 0 0)
(288.779 0 0)
(288.197 0 0)
(287.597 0 0)
(286.978 0 0)
(286.338 0 0)
(285.679 0 0)
(284.999 0 0)
(284.298 0 0)
(283.575 0 0)
(282.83 0 0)
(282.063 0 0)
(281.272 0 0)
(280.457 0 0)
(279.618 0 0)
(278.753 0 0)
(277.862 0 0)
(276.945 0 0)
(276 0 0)
(275.027 0 0)
(274.024 0 0)
(272.991 0 0)
(271.927 0 0)
(270.83 0 0)
(269.699 0 0)
(268.534 0 0)
(267.332 0 0)
(266.092 0 0)
(264.812 0 0)
(263.491 0 0)
(262.127 0 0)
(260.717 0 0)
(259.26 0 0)
(257.752 0 0)
(256.19 0 0)
(254.572 0 0)
(252.894 0 0)
(251.151 0 0)
(249.34 0 0)
(247.454 0 0)
(245.487 0 0)
(243.433 0 0)
(241.283 0 0)
(239.027 0 0)
(236.653 0 0)
(234.147 0 0)
(231.49 0 0)
(228.661 0 0)
(225.622 0 0)
(222.321 0 0)
(218.721 0 0)
(214.874 0 0)
(210.728 0 0)
(205.225 0 0)
(195.242 0 0)
(177.496 0 0)
(154.069 0 0)
(132.552 0 0)
(118.076 0 0)
(110.152 0 0)
(106.236 0 0)
(104.377 0 0)
(103.525 0 0)
(103.181 0 0)
(103.11 0 0)
(103.2 0 0)
(103.393 0 0)
(103.659 0 0)
(103.977 0 0)
(104.336 0 0)
(104.726 0 0)
(105.143 0 0)
(105.582 0 0)
(106.039 0 0)
(106.51 0 0)
(106.997 0 0)
(107.488 0 0)
(108.009 0 0)
(108.475 0 0)
(109.146 0 0)
(288.243 0 0)
(287.661 0 0)
(287.061 0 0)
(286.442 0 0)
(285.804 0 0)
(285.147 0 0)
(284.469 0 0)
(283.77 0 0)
(283.051 0 0)
(282.31 0 0)
(281.547 0 0)
(280.761 0 0)
(279.952 0 0)
(279.119 0 0)
(278.261 0 0)
(277.379 0 0)
(276.47 0 0)
(275.534 0 0)
(274.571 0 0)
(273.579 0 0)
(272.557 0 0)
(271.506 0 0)
(270.422 0 0)
(269.306 0 0)
(268.156 0 0)
(266.97 0 0)
(265.748 0 0)
(264.488 0 0)
(263.187 0 0)
(261.844 0 0)
(260.458 0 0)
(259.025 0 0)
(257.544 0 0)
(256.011 0 0)
(254.423 0 0)
(252.778 0 0)
(251.07 0 0)
(249.297 0 0)
(247.452 0 0)
(245.531 0 0)
(243.526 0 0)
(241.43 0 0)
(239.233 0 0)
(236.925 0 0)
(234.492 0 0)
(231.919 0 0)
(229.185 0 0)
(226.26 0 0)
(223.098 0 0)
(219.648 0 0)
(215.928 0 0)
(211.987 0 0)
(207.31 0 0)
(199.594 0 0)
(185.065 0 0)
(163.156 0 0)
(140.038 0 0)
(122.693 0 0)
(112.55 0 0)
(107.387 0 0)
(104.902 0 0)
(103.737 0 0)
(103.225 0 0)
(103.054 0 0)
(103.077 0 0)
(103.221 0 0)
(103.445 0 0)
(103.729 0 0)
(104.056 0 0)
(104.418 0 0)
(104.808 0 0)
(105.222 0 0)
(105.654 0 0)
(106.103 0 0)
(106.567 0 0)
(107.036 0 0)
(107.535 0 0)
(107.983 0 0)
(108.625 0 0)
(287.709 0 0)
(287.128 0 0)
(286.528 0 0)
(285.91 0 0)
(285.274 0 0)
(284.618 0 0)
(283.943 0 0)
(283.248 0 0)
(282.532 0 0)
(281.796 0 0)
(281.037 0 0)
(280.257 0 0)
(279.454 0 0)
(278.628 0 0)
(277.777 0 0)
(276.902 0 0)
(276.002 0 0)
(275.076 0 0)
(274.123 0 0)
(273.142 0 0)
(272.132 0 0)
(271.093 0 0)
(270.023 0 0)
(268.921 0 0)
(267.786 0 0)
(266.617 0 0)
(265.412 0 0)
(264.17 0 0)
(262.89 0 0)
(261.568 0 0)
(260.204 0 0)
(258.796 0 0)
(257.34 0 0)
(255.835 0 0)
(254.278 0 0)
(252.664 0 0)
(250.991 0 0)
(249.255 0 0)
(247.451 0 0)
(245.573 0 0)
(243.615 0 0)
(241.571 0 0)
(239.432 0 0)
(237.187 0 0)
(234.825 0 0)
(232.33 0 0)
(229.685 0 0)
(226.867 0 0)
(223.834 0 0)
(220.533 0 0)
(216.949 0 0)
(213.148 0 0)
(208.96 0 0)
(202.913 0 0)
(191.502 0 0)
(172.152 0 0)
(148.558 0 0)
(128.489 0 0)
(115.726 0 0)
(108.948 0 0)
(105.633 0 0)
(104.057 0 0)
(103.332 0 0)
(103.04 0 0)
(102.986 0 0)
(103.075 0 0)
(103.256 0 0)
(103.503 0 0)
(103.798 0 0)
(104.131 0 0)
(104.494 0 0)
(104.882 0 0)
(105.291 0 0)
(105.716 0 0)
(106.157 0 0)
(106.605 0 0)
(107.082 0 0)
(107.511 0 0)
(108.126 0 0)
(287.178 0 0)
(286.597 0 0)
(285.999 0 0)
(285.383 0 0)
(284.748 0 0)
(284.095 0 0)
(283.423 0 0)
(282.732 0 0)
(282.02 0 0)
(281.288 0 0)
(280.535 0 0)
(279.76 0 0)
(278.963 0 0)
(278.144 0 0)
(277.301 0 0)
(276.434 0 0)
(275.542 0 0)
(274.625 0 0)
(273.682 0 0)
(272.712 0 0)
(271.714 0 0)
(270.687 0 0)
(269.631 0 0)
(268.543 0 0)
(267.424 0 0)
(266.271 0 0)
(265.083 0 0)
(263.86 0 0)
(262.599 0 0)
(261.299 0 0)
(259.957 0 0)
(258.572 0 0)
(257.142 0 0)
(255.664 0 0)
(254.136 0 0)
(252.553 0 0)
(250.914 0 0)
(249.214 0 0)
(247.449 0 0)
(245.613 0 0)
(243.701 0 0)
(241.707 0 0)
(239.623 0 0)
(237.439 0 0)
(235.144 0 0)
(232.725 0 0)
(230.165 0 0)
(227.445 0 0)
(224.531 0 0)
(221.374 0 0)
(217.935 0 0)
(214.255 0 0)
(210.342 0 0)
(205.406 0 0)
(196.675 0 0)
(180.525 0 0)
(157.784 0 0)
(135.552 0 0)
(119.878 0 0)
(111.058 0 0)
(106.639 0 0)
(104.516 0 0)
(103.516 0 0)
(103.075 0 0)
(102.93 0 0)
(102.957 0 0)
(103.091 0 0)
(103.299 0 0)
(103.562 0 0)
(103.865 0 0)
(104.201 0 0)
(104.563 0 0)
(104.947 0 0)
(105.349 0 0)
(105.769 0 0)
(106.195 0 0)
(106.65 0 0)
(107.061 0 0)
(107.65 0 0)
(286.65 0 0)
(286.07 0 0)
(285.474 0 0)
(284.859 0 0)
(284.228 0 0)
(283.577 0 0)
(282.909 0 0)
(282.221 0 0)
(281.513 0 0)
(280.786 0 0)
(280.038 0 0)
(279.27 0 0)
(278.479 0 0)
(277.667 0 0)
(276.832 0 0)
(275.973 0 0)
(275.09 0 0)
(274.183 0 0)
(273.25 0 0)
(272.291 0 0)
(271.305 0 0)
(270.29 0 0)
(269.247 0 0)
(268.174 0 0)
(267.069 0 0)
(265.932 0 0)
(264.762 0 0)
(263.557 0 0)
(262.315 0 0)
(261.035 0 0)
(259.716 0 0)
(258.354 0 0)
(256.949 0 0)
(255.498 0 0)
(253.997 0 0)
(252.446 0 0)
(250.839 0 0)
(249.174 0 0)
(247.446 0 0)
(245.652 0 0)
(243.784 0 0)
(241.839 0 0)
(239.807 0 0)
(237.681 0 0)
(235.451 0 0)
(233.103 0 0)
(230.625 0 0)
(227.996 0 0)
(225.192 0 0)
(222.17 0 0)
(218.88 0 0)
(215.326 0 0)
(211.575 0 0)
(207.309 0 0)
(200.638 0 0)
(187.833 0 0)
(167.215 0 0)
(143.829 0 0)
(125.206 0 0)
(113.89 0 0)
(108.017 0 0)
(105.161 0 0)
(103.799 0 0)
(103.168 0 0)
(102.914 0 0)
(102.87 0 0)
(102.952 0 0)
(103.12 0 0)
(103.347 0 0)
(103.62 0 0)
(103.928 0 0)
(104.265 0 0)
(104.625 0 0)
(105.003 0 0)
(105.4 0 0)
(105.806 0 0)
(106.239 0 0)
(106.632 0 0)
(107.194 0 0)
(286.126 0 0)
(285.548 0 0)
(284.953 0 0)
(284.341 0 0)
(283.712 0 0)
(283.065 0 0)
(282.4 0 0)
(281.716 0 0)
(281.014 0 0)
(280.291 0 0)
(279.549 0 0)
(278.786 0 0)
(278.003 0 0)
(277.197 0 0)
(276.37 0 0)
(275.52 0 0)
(274.646 0 0)
(273.748 0 0)
(272.826 0 0)
(271.878 0 0)
(270.903 0 0)
(269.901 0 0)
(268.871 0 0)
(267.812 0 0)
(266.722 0 0)
(265.601 0 0)
(264.448 0 0)
(263.26 0 0)
(262.037 0 0)
(260.778 0 0)
(259.48 0 0)
(258.141 0 0)
(256.761 0 0)
(255.335 0 0)
(253.863 0 0)
(252.341 0 0)
(250.766 0 0)
(249.135 0 0)
(247.444 0 0)
(245.689 0 0)
(243.865 0 0)
(241.965 0 0)
(239.985 0 0)
(237.914 0 0)
(235.746 0 0)
(233.467 0 0)
(231.065 0 0)
(228.524 0 0)
(225.821 0 0)
(222.923 0 0)
(219.778 0 0)
(216.362 0 0)
(212.732 0 0)
(208.836 0 0)
(203.584 0 0)
(193.817 0 0)
(176.257 0 0)
(153.066 0 0)
(131.856 0 0)
(117.654 0 0)
(109.898 0 0)
(106.056 0 0)
(104.208 0 0)
(103.333 0 0)
(102.944 0 0)
(102.816 0 0)
(102.841 0 0)
(102.964 0 0)
(103.155 0 0)
(103.396 0 0)
(103.676 0 0)
(103.986 0 0)
(104.322 0 0)
(104.677 0 0)
(105.052 0 0)
(105.436 0 0)
(105.849 0 0)
(106.223 0 0)
(106.759 0 0)
(285.606 0 0)
(285.029 0 0)
(284.437 0 0)
(283.828 0 0)
(283.202 0 0)
(282.558 0 0)
(281.897 0 0)
(281.218 0 0)
(280.52 0 0)
(279.803 0 0)
(279.067 0 0)
(278.311 0 0)
(277.534 0 0)
(276.736 0 0)
(275.916 0 0)
(275.074 0 0)
(274.21 0 0)
(273.322 0 0)
(272.409 0 0)
(271.472 0 0)
(270.509 0 0)
(269.519 0 0)
(268.502 0 0)
(267.457 0 0)
(266.382 0 0)
(265.277 0 0)
(264.14 0 0)
(262.971 0 0)
(261.767 0 0)
(260.527 0 0)
(259.25 0 0)
(257.934 0 0)
(256.577 0 0)
(255.177 0 0)
(253.732 0 0)
(252.238 0 0)
(250.695 0 0)
(249.097 0 0)
(247.441 0 0)
(245.725 0 0)