/*--------------------------------*- C++ -*----------------------------------*\
| =========                 |                                                 |
| \\      /  F ield         | OpenFOAM: The Open Source CFD Toolbox           |
|  \\    /   O peration     | Version:  2312                                  |
|   \\  /    A nd           | Website:  www.openfoam.com                      |
|    \\/     M anipulation  |                                                 |
\*---------------------------------------------------------------------------*/
FoamFile
{
    version     2.0;
    format      ascii;
    arch        "LSB;label=32;scalar=64";
    class       surfaceScalarField;
    location    "0.56";
    object      phi;
}
// * * * * * * * * * * * * * * * * * * * * * * * * * * * * * * * * * * * * * //

dimensions      [0 3 -1 0 0 0 0];

oriented        oriented;

internalField   nonuniform List<scalar> 
62015
(
82.5302
0.16095
-83.1046
81.9459
0.156849
81.3514
0.152693
80.7464
0.148484
80.1304
0.144226
79.5028
0.139923
78.8632
0.135577
78.2109
0.131192
77.5451
0.126772
76.8652
0.122321
76.1703
0.117841
75.4593
0.113338
74.7312
0.108814
73.9849
0.104274
73.2188
0.0997219
72.4314
0.0951613
71.621
0.0905972
70.7856
0.0860335
69.9227
0.0814745
69.0297
0.0769251
68.1034
0.0723901
67.14
0.0678739
66.1352
0.063382
65.0834
0.0589196
63.9781
0.0544918
62.8111
0.0501047
61.5717
0.0457636
60.2462
0.0414753
58.8161
0.0372459
57.2567
0.0330824
55.5285
0.0289921
53.5587
0.0249801
51.2216
0.021044
48.3745
0.017183
44.996
0.0134398
41.3347
0.00993432
37.8594
0.0068219
34.9947
0.00417823
32.9089
0.00194729
31.5295
0
30.683
-0.00178795
30.2016
-0.0035019
29.9612
-0.0051908
29.88
-0.00688127
29.906
-0.00858708
30.0065
-0.010315
30.1606
-0.0120694
30.3545
-0.0138518
30.579
-0.0156635
30.8274
-0.0175047
31.0952
-0.0193753
31.3789
-0.0212751
31.6759
-0.0232035
31.9842
-0.02516
32.3023
-0.0271436
32.6289
-0.0291536
32.9631
-0.0311889
33.304
-0.0332485
33.651
-0.0353315
34.0035
-0.0374364
34.3611
-0.0395622
34.7235
-0.0417079
35.0902
-0.0438718
35.461
-0.0460529
35.8357
-0.0482499
36.2141
-0.0504612
36.596
-0.0526857
36.9813
-0.0549218
37.3697
-0.0571683
37.7613
-0.0594235
38.1559
-0.0616862
38.5535
-0.0639545
38.9537
-0.0662278
39.3573
-0.0685029
39.7618
-0.0707825
40.1744
-0.0730527
40.573
-0.0753504
41.0252
-0.0775538
-0.0800387
41.3237
79.6198
0.315305
-80.1784
79.0517
0.307253
78.4742
0.299095
77.8869
0.290836
77.2893
0.282482
76.6808
0.274041
76.0611
0.265518
75.4294
0.256921
74.7851
0.248257
74.1274
0.239532
73.4556
0.230753
72.7687
0.221929
72.0656
0.213067
71.3452
0.204173
70.6061
0.195257
69.8468
0.186326
69.0657
0.177388
68.2608
0.168452
67.4299
0.159526
66.5703
0.15062
65.6789
0.141742
64.7523
0.132902
63.7862
0.12411
62.7752
0.115375
61.7133
0.106709
60.5923
0.0981222
59.4022
0.0896261
58.1297
0.0812328
56.7573
0.0729542
55.2609
0.0648047
53.6027
0.0567978
51.7127
0.0489426
49.4725
0.0412341
46.75
0.0336756
43.5278
0.0263525
40.0393
0.0194992
36.7224
0.0134095
33.9762
0.00822467
31.9631
0.00383721
30.6202
0
29.7868
-0.00352471
29.305
-0.00690136
29.0565
-0.010226
28.9627
-0.0135504
28.9734
-0.0169014
29.0569
-0.0202937
29.1929
-0.0237345
29.368
-0.0272283
29.5729
-0.0307769
29.8014
-0.034381
30.0489
-0.0380406
30.312
-0.0417555
30.5883
-0.0455243
30.8756
-0.049346
31.1726
-0.053219
31.478
-0.0571418
31.7908
-0.0611125
32.1103
-0.0651291
32.4358
-0.0691894
32.7667
-0.0732914
33.1027
-0.0774328
33.4433
-0.0816111
33.7882
-0.0858241
34.1372
-0.0900691
34.4899
-0.0943436
34.8463
-0.0986452
35.2062
-0.102971
35.5694
-0.107318
35.9357
-0.111685
36.3051
-0.116067
36.6774
-0.120463
37.0526
-0.124869
37.4305
-0.129284
37.8116
-0.133701
38.1937
-0.138126
38.5835
-0.142532
38.9603
-0.146989
39.3871
-0.151267
-0.156075
39.6723
76.7857
0.463183
-77.3292
76.2334
0.451328
75.6724
0.439319
75.102
0.427165
74.5221
0.414874
73.932
0.402457
73.3312
0.389923
72.7192
0.377282
72.0954
0.364543
71.4589
0.351718
70.809
0.338817
70.1448
0.32585
69.4653
0.312828
68.7693
0.299762
68.0557
0.286665
67.3228
0.273547
66.5691
0.260421
65.7928
0.247298
64.9915
0.234192
64.1629
0.221115
63.304
0.208081
62.4114
0.195103
61.4808
0.182196
60.5074
0.169374
59.4849
0.156653
58.4057
0.144048
57.2601
0.131576
56.0352
0.119255
54.714
0.107102
53.2729
0.0951379
51.6748
0.0833815
49.8511
0.0718447
47.6895
0.0605201
45.0697
0.0494179
41.9853
0.0386746
38.6639
0.028637
35.5163
0.019722
32.9103
0.0121179
30.9938
0.00566229
29.7072
0
28.9013
-0.00520845
28.4288
-0.0101986
28.1788
-0.0151089
28.0771
-0.0200144
28.0761
-0.0249552
28.1454
-0.0299525
28.2656
-0.0350174
28.4236
-0.0401564
28.6108
-0.0453724
28.821
-0.0506669
29.0497
-0.0560398
29.2937
-0.0614905
29.5506
-0.0670177
29.8183
-0.0726196
30.0955
-0.0782942
30.381
-0.0840392
30.6737
-0.0898518
30.9731
-0.0957293
31.2783
-0.101669
31.5888
-0.107667
31.9044
-0.113721
32.2245
-0.119826
32.5488
-0.12598
32.8771
-0.13218
33.2092
-0.13842
33.5448
-0.144699
33.8839
-0.15101
34.2261
-0.157352
34.5715
-0.16372
34.9199
-0.17011
35.2712
-0.176517
35.6253
-0.182939
35.982
-0.18937
36.3418
-0.195805
36.7027
-0.202249
37.0708
-0.208666
37.4271
-0.215152
37.8298
-0.221385
-0.228364
38.1015
74.039
0.604772
-74.5675
73.5022
0.589259
72.9572
0.573549
72.4036
0.557651
71.8408
0.541579
71.2686
0.525345
70.6863
0.50896
70.0934
0.492439
69.4892
0.475793
68.8732
0.459036
68.2444
0.442182
67.6021
0.425244
66.9452
0.408238
66.2726
0.391176
65.5832
0.374074
64.8755
0.356948
64.1479
0.339812
63.3986
0.322682
62.6256
0.305575
61.8263
0.288508
60.998
0.271497
60.1373
0.254561
59.2402
0.237717
58.3018
0.220985
57.3162
0.204385
56.276
0.187938
55.1716
0.171664
53.9905
0.155585
52.716
0.139726
51.3252
0.124111
49.7806
0.108765
48.0148
0.0937009
45.9204
0.0789085
43.3897
0.0644103
40.4302
0.0504016
37.2685
0.037341
34.2907
0.0257527
31.8322
0.015854
30.0222
0.00742124
28.8015
0
28.0308
-0.00683932
27.5734
-0.0133948
27.3264
-0.0198428
27.2201
-0.0262797
27.21
-0.0327578
27.2674
-0.0393041
27.3737
-0.0459343
27.5166
-0.0526564
27.6877
-0.0594746
27.881
-0.0663911
28.0925
-0.0734059
28.3188
-0.0805182
28.5576
-0.0877266
28.807
-0.0950289
29.0657
-0.102423
29.3325
-0.109905
29.6065
-0.117471
29.8869
-0.12512
30.173
-0.132845
30.4645
-0.140645
30.7608
-0.148514
31.0615
-0.156448
31.3665
-0.164442
31.6753
-0.172492
31.9879
-0.180594
32.3039
-0.188742
32.6233
-0.196932
32.9458
-0.205158
33.2714
-0.213416
33.6
-0.2217
33.9313
-0.230006
34.2655
-0.238327
34.6021
-0.246659
34.9418
-0.254994
35.2827
-0.263339
35.6303
-0.271647
35.9671
-0.280041
36.3471
-0.288113
-0.297126
36.6052
71.3828
0.740278
-71.8964
70.8614
0.721251
70.3323
0.701985
69.7951
0.682494
69.2493
0.662793
68.6946
0.642895
68.1303
0.622818
67.5561
0.602576
66.9712
0.582185
66.375
0.56166
65.7668
0.541019
65.1456
0.520279
64.5106
0.499456
63.8607
0.478569
63.1947
0.457634
62.5113
0.436671
61.8088
0.415698
61.0856
0.394735
60.3396
0.373801
59.5685
0.352916
58.7695
0.332102
57.9394
0.31138
57.0742
0.290772
56.1693
0.270302
55.2188
0.249993
54.2156
0.229871
53.1502
0.20996
52.0105
0.190288
50.7801
0.170883
49.4362
0.151776
47.9414
0.132994
46.2288
0.11455
44.1961
0.0964324
41.7482
0.078681
38.907
0.0615578
35.8986
0.0456305
33.0857
0.031515
30.7723
0.0194395
29.0686
0.00911644
27.9152
0
27.1816
-0.00841884
26.7414
-0.0164931
26.4992
-0.0244324
26.3902
-0.0323529
26.3726
-0.0403173
26.4195
-0.0483597
26.5133
-0.0564988
26.6424
-0.0647446
26.7987
-0.073103
26.9765
-0.0815764
27.1719
-0.0901652
27.3817
-0.0988687
27.6037
-0.107685
27.8361
-0.116612
28.0775
-0.125646
28.3268
-0.134785
28.5831
-0.144023
28.8457
-0.153356
29.1139
-0.162781
29.3874
-0.172292
29.6655
-0.181884
29.9481
-0.191552
30.2348
-0.201291
30.5253
-0.211095
30.8194
-0.220959
31.1169
-0.230876
31.4177
-0.240841
31.7217
-0.250848
32.0286
-0.26089
32.3383
-0.270962
32.6509
-0.281058
32.9661
-0.291169
33.2838
-0.301293
33.6045
-0.311417
33.9264
-0.32155
34.2546
-0.331638
34.5729
-0.341826
34.9317
-0.351628
-0.362545
35.1763
68.8167
0.869905
-69.3155
68.3106
0.847504
67.7972
0.824826
67.2762
0.801888
66.7472
0.778706
66.2096
0.755298
65.6632
0.731681
65.1072
0.707873
64.5412
0.683894
63.9644
0.659762
63.3762
0.635495
62.7757
0.611115
62.162
0.58664
61.5341
0.562091
60.8909
0.53749
60.2309
0.512857
59.5528
0.488214
58.8548
0.463585
58.135
0.438991
57.391
0.414457
56.6203
0.390007
55.8196
0.365665
54.9851
0.341459
54.1123
0.317415
53.1956
0.293561
52.2278
0.269925
51.1998
0.246538
50.0996
0.22343
48.9113
0.200634
47.6121
0.178186
46.1643
0.156115
44.5021
0.134433
42.5281
0.113127
40.16
0.092262
37.4332
0.0721712
34.5724
0.0535282
31.9179
0.0370238
29.7434
0.0228828
28.142
0.0107512
27.0536
0
26.3566
-0.00994908
25.934
-0.0194968
25.6973
-0.0288827
25.5865
-0.0382406
25.5625
-0.0476429
25.6
-0.05713
25.6824
-0.0667239
25.7988
-0.0764371
25.9414
-0.0862763
26.1048
-0.0962445
26.2852
-0.106343
26.4796
-0.11657
26.6859
-0.126925
26.9023
-0.137405
27.1274
-0.148005
27.3603
-0.158723
27.6
-0.169553
27.8459
-0.180491
28.0973
-0.191532
28.3537
-0.202669
28.6148
-0.213898
28.8803
-0.225212
29.1497
-0.236605
29.4229
-0.24807
29.6996
-0.259601
29.9797
-0.271192
30.263
-0.282836
30.5493
-0.294525
30.8385
-0.306253
31.1305
-0.318012
31.4253
-0.329795
31.7227
-0.341595
32.0225
-0.353405
32.3252
-0.365214
32.629
-0.37703
32.939
-0.388791
33.2396
-0.400663
33.5784
-0.412093
-0.424793
33.8101
66.3387
0.993852
-66.8227
65.8477
0.968214
65.3499
0.942265
64.8449
0.916022
64.3324
0.889505
63.8118
0.862733
63.2828
0.835726
62.7447
0.808505
62.1972
0.781091
61.6394
0.753506
61.0707
0.72577
60.4904
0.697907
59.8974
0.669938
59.2909
0.641888
58.6698
0.61378
58.0326
0.585638
57.3781
0.557487
56.7045
0.529353
56.01
0.501261
55.2923
0.473239
54.5489
0.445314
53.7766
0.417515
52.9718
0.38987
52.13
0.362411
51.2457
0.335168
50.3119
0.308174
49.3198
0.281464
48.2577
0.255071
47.1097
0.229034
45.8532
0.20339
44.4504
0.178171
42.8362
0.153386
40.9191
0.129025
38.6291
0.105181
36.0136
0.082267
33.2953
0.0610542
30.7919
0.042293
28.7493
0.0261911
27.2449
0.0123282
26.2186
0
25.5568
-0.0114319
25.1513
-0.0224095
24.9204
-0.0331989
24.8084
-0.0439492
24.7787
-0.054743
24.8077
-0.0656256
24.8798
-0.0766228
24.9843
-0.0877493
25.1142
-0.0990125
25.2642
-0.110417
25.4306
-0.121963
25.6106
-0.133651
25.8021
-0.145478
26.0035
-0.157441
26.2134
-0.169538
26.4309
-0.181762
26.655
-0.19411
26.8851
-0.206576
27.1206
-0.219153
27.3611
-0.231837
27.6062
-0.244619
27.8554
-0.257495
28.1086
-0.270456
28.3654
-0.283495
28.6258
-0.296606
28.8894
-0.30978
29.1561
-0.323011
29.4258
-0.336289
29.6983
-0.349608
29.9736
-0.362959
30.2515
-0.376334
30.532
-0.389724
30.8149
-0.403124
31.1005
-0.416518
31.3874
-0.429917
31.68
-0.443252
31.964
-0.456706
32.2838
-0.469667
-0.484032
32.5033
63.9463
1.11231
-64.4158
63.4703
1.08357
62.9879
1.05449
62.4987
1.02508
62.0024
0.995369
61.4984
0.965377
60.9865
0.935125
60.466
0.904638
59.9365
0.873938
59.3973
0.843049
58.8477
0.811995
58.287
0.780802
57.7142
0.749494
57.1286
0.718097
56.5288
0.686637
55.9139
0.655142
55.2822
0.623639
54.6323
0.592156
53.9623
0.560723
53.27
0.529368
52.5529
0.498124
51.808
0.46702
51.0318
0.43609
50.2198
0.405368
49.3668
0.374888
48.4659
0.344687
47.5084
0.314801
46.4827
0.285269
45.3734
0.256132
44.1578
0.227432
42.7979
0.199201
41.23
0.171443
39.3683
0.144155
37.1549
0.117465
34.6483
0.0918671
32.0674
0.0682261
29.7081
0.0473338
27.7903
0.0293706
26.3774
0.0138497
25.41
0
24.7818
-0.0128688
24.393
-0.0252343
24.168
-0.0373854
24.0552
-0.0494855
24.0206
-0.0616257
24.0418
-0.0738569
24.1042
-0.0862084
24.1979
-0.0986961
24.3159
-0.11133
24.4534
-0.124113
24.6067
-0.137049
24.7733
-0.150136
24.951
-0.163373
25.1383
-0.176756
25.3339
-0.190281
25.5368
-0.203943
25.7463
-0.217738
25.9616
-0.231658
26.1822
-0.245699
26.4076
-0.259852
26.6375
-0.274111
26.8715
-0.288468
27.1094
-0.302916
27.3508
-0.317447
27.5956
-0.332053
27.8437
-0.346726
28.0947
-0.361456
28.3487
-0.376236
28.6055
-0.391057
28.8649
-0.40591
29.127
-0.420786
29.3915
-0.435675
29.6583
-0.450571
29.9279
-0.465457
30.1986
-0.480345
30.4749
-0.49516
30.7431
-0.5101
31.045
-0.524499
-0.540422
31.2529
61.637
1.22546
-62.0921
61.1758
1.19376
60.7085
1.16167
60.2349
1.12924
59.7544
1.09647
59.2668
1.0634
58.7716
1.03004
58.2684
0.996432
57.7564
0.96259
57.2353
0.928544
56.7043
0.894319
56.1627
0.859944
55.6096
0.825444
55.0442
0.79085
54.4653
0.756188
53.8718
0.72149
53.2623
0.686785
52.6353
0.652104
51.989
0.617479
51.3212
0.582942
50.6296
0.548528
49.9112
0.514269
49.1626
0.480203
48.3794
0.446364
47.5565
0.412793
46.6872
0.379527
45.7628
0.346608
44.7722
0.314077
43.7001
0.281977
42.5236
0.250354
41.2049
0.219239
39.6815
0.188635
37.8739
0.158543
35.7358
0.129136
33.3356
0.100992
30.8872
0.0750592
28.6651
0.0521568
26.8653
0.0324271
25.5389
0.0153181
24.627
0
24.0309
-0.0142615
23.6582
-0.0279742
23.4393
-0.0414466
23.3261
-0.0548552
23.2871
-0.068299
23.3013
-0.081834
23.3549
-0.0954922
23.4384
-0.109292
23.5455
-0.123244
23.6712
-0.137354
23.8124
-0.151624
23.9663
-0.166053
24.1311
-0.180639
24.3051
-0.19538
24.4873
-0.21027
24.6766
-0.225305
24.8723
-0.240479
25.0737
-0.255786
25.2802
-0.271218
25.4915
-0.286769
25.7071
-0.30243
25.9267
-0.318194
26.1501
-0.334053
26.377
-0.349998
26.6072
-0.36602
26.8406
-0.38211
27.0769
-0.398259
27.316
-0.414458
27.5579
-0.430697
27.8024
-0.446967
28.0494
-0.463258
28.2988
-0.47956
28.5505
-0.495864
28.8048
-0.512155
29.0604
-0.528442
29.3211
-0.544648
29.5745
-0.560982
29.8594
-0.576734
-0.59411
30.0563
59.4082
1.3335
-59.849
58.9615
1.29895
58.5092
1.264
58.0507
1.22867
57.5859
1.19298
57.1143
1.15696
56.6355
1.12064
56.149
1.08404
55.6543
1.0472
55.1508
1.01014
54.6379
0.972884
54.1149
0.935469
53.5809
0.897921
53.0351
0.860273
52.4764
0.822555
51.9037
0.784799
51.3157
0.747037
50.7109
0.709304
50.0874
0.671632
49.4434
0.634058
48.7764
0.596617
48.0835
0.559346
47.3615
0.522285
46.6061
0.485472
45.8121
0.448949
44.9732
0.412758
44.0808
0.376941
43.1239
0.341544
42.0874
0.306614
40.9484
0.272196
39.669
0.238322
38.1885
0.20499
36.4338
0.172214
34.3699
0.140217
32.0735
0.109661
29.7528
0.0815688
27.6613
0.0567717
25.9731
0.0353653
24.7282
0.0167352
23.869
0
23.3034
-0.0156113
22.9463
-0.0306318
22.7334
-0.0453869
22.6203
-0.0600642
22.5774
-0.0747704
22.5852
-0.0895659
22.6306
-0.104486
22.7049
-0.119551
22.8017
-0.134773
22.9166
-0.150158
23.0463
-0.165709
23.1884
-0.181425
23.3411
-0.197304
23.5028
-0.213344
23.6723
-0.229539
23.8488
-0.245885
24.0315
-0.262375
24.2198
-0.279003
24.4131
-0.29576
24.611
-0.312641
24.8132
-0.329635
25.0193
-0.346735
25.2291
-0.363932
25.4423
-0.381216
25.6587
-0.398579
25.8782
-0.416011
26.1006
-0.433502
26.3257
-0.451041
26.5535
-0.46862
26.7839
-0.486227
27.0167
-0.503852
27.2518
-0.521484
27.4892
-0.539115
27.7291
-0.556726
27.9703
-0.57433
28.2163
-0.591842
28.4556
-0.609484
28.7244
-0.626508
-0.645241
28.911
57.2573
1.4366
-57.6842
56.825
1.39933
56.3872
1.36164
55.9438
1.32353
55.4942
1.28505
55.0383
1.24622
54.5754
1.20707
54.1053
1.16762
53.6274
1.12791
53.1411
1.08797
52.6458
1.04783
52.1408
1.00751
51.6254
0.967054
51.0986
0.926492
50.5595
0.885857
50.007
0.845182
49.4398
0.804504
48.8563
0.763857
48.2551
0.723278
47.6339
0.682806
46.9907
0.642477
46.3225
0.602333
45.626
0.562414
44.8973
0.522763
44.1313
0.483422
43.3216
0.444437
42.4599
0.405854
41.5354
0.367721
40.5329
0.330085
39.4298
0.292996
38.188
0.256481
36.7489
0.220536
35.0461
0.185193
33.0552
0.150729
30.8602
0.117892
28.6623
0.087769
26.6952
0.0611875
25.1124
0.0381905
23.9444
0.0181032
23.1349
0
22.5985
-0.0169198
22.2565
-0.0332098
22.0497
-0.0492099
21.9369
-0.0651179
21.8906
-0.0810468
21.8926
-0.0970617
21.9307
-0.113201
21.9963
-0.129486
22.0836
-0.145931
22.1883
-0.162543
22.3074
-0.179324
22.4385
-0.196275
22.5798
-0.213394
22.7299
-0.230678
22.8876
-0.248121
23.0521
-0.265719
23.2226
-0.283465
23.3986
-0.301352
23.5794
-0.319371
23.7648
-0.337516
23.9543
-0.355777
24.1476
-0.374146
24.3446
-0.392613
24.5448
-0.411168
24.7482
-0.429801
24.9546
-0.448502
25.1639
-0.467262
25.3758
-0.486068
25.5903
-0.504911
25.8073
-0.52378
26.0267
-0.542663
26.2484
-0.561548
26.4723
-0.580427
26.6985
-0.599281
26.9261
-0.618122
27.1583
-0.636862
27.3842
-0.655732
27.6379
-0.67395
-0.693949
27.8145
55.182
1.53492
-55.5952
54.7637
1.49506
54.3403
1.45475
53.9114
1.414
53.4768
1.37286
53.0361
1.33134
52.5889
1.28949
52.1347
1.24732
51.6731
1.20488
51.2035
1.16218
50.7253
1.11928
50.2379
1.0762
49.7405
1.03297
49.2322
0.989624
48.7121
0.946206
48.1791
0.902749
47.6319
0.859288
47.0692
0.815863
46.4894
0.772512
45.8904
0.729275
45.27
0.686193
44.6255
0.643307
43.9538
0.600663
43.2508
0.558303
42.5116
0.516274
41.73
0.474623
40.8978
0.4334
40.0043
0.392653
39.0346
0.352434
37.9657
0.312791
36.76
0.273747
35.3609
0.235301
33.7089
0.197504
31.79
0.160694
29.6938
0.125705
27.6141
0.093674
25.7653
0.0654135
24.282
0.040907
23.1865
0.0194236
22.4241
0
21.9154
-0.0181881
21.588
-0.0357107
21.3873
-0.0529198
21.2751
-0.0700216
21.226
-0.0871354
21.2228
-0.10433
21.254
-0.121647
21.3116
-0.13911
21.3901
-0.156734
21.4854
-0.174526
21.5946
-0.19249
21.7154
-0.210626
21.8461
-0.228934
21.9852
-0.247408
22.1319
-0.266046
22.2851
-0.28484
22.4442
-0.303785
22.6085
-0.322872
22.7777
-0.342095
22.9512
-0.361443
23.1288
-0.380909
23.3101
-0.400483
23.4949
-0.420154
23.683
-0.439914
23.8742
-0.459751
24.0682
-0.479654
24.265
-0.499614
24.4645
-0.519617
24.6665
-0.539654
24.8709
-0.559713
25.0776
-0.579782
25.2866
-0.599848
25.4976
-0.619903
25.711
-0.639925
25.9257
-0.659929
26.1448
-0.679822
26.3581
-0.699843
26.5974
-0.719184
-0.740362
26.7647
53.1799
1.62866
-53.5795
52.7753
1.58632
52.3659
1.5435
51.9513
1.50024
51.5313
1.45655
51.1055
1.41247
50.6735
1.36804
50.2348
1.32328
49.7891
1.27822
49.3357
1.23291
48.8742
1.18738
48.4038
1.14165
47.9238
1.09578
47.4334
1.04979
46.9316
1.00371
46.4175
0.957604
45.8898
0.911491
45.3472
0.865418
44.7879
0.819424
44.2103
0.773551
43.612
0.727843
42.9904
0.682345
42.3425
0.6371
41.6642
0.592158
40.9509
0.547565
40.1962
0.503371
39.3924
0.459627
38.5287
0.416386
37.5903
0.373699
36.5541
0.331614
35.3829
0.290151
34.0227
0.24931
32.4207
0.20917
30.5726
0.170134
28.5728
0.133117
26.6066
0.0992973
24.8701
0.0694583
23.4807
0.0435197
22.4535
0.0206984
21.7357
0
21.2534
-0.0194177
20.9401
-0.0381372
20.7455
-0.0565202
20.6342
-0.0747803
20.5826
-0.0930422
20.5747
-0.111379
20.5997
-0.129834
20.65
-0.148434
20.7203
-0.167194
20.8069
-0.186122
20.9068
-0.205224
21.018
-0.224499
21.1387
-0.243946
21.2677
-0.263562
21.4039
-0.283342
21.5466
-0.30328
21.6949
-0.32337
21.8484
-0.343603
22.0065
-0.363971
22.1689
-0.384466
22.3353
-0.405077
22.5053
-0.425796
22.6787
-0.446612
22.8553
-0.467514
23.0348
-0.488491
23.2173
-0.509533
23.4024
-0.530627
23.5901
-0.551763
23.7802
-0.572927
23.9727
-0.594109
24.1674
-0.615296
24.3644
-0.636475
24.5634
-0.657635
24.7646
-0.678757
24.9671
-0.699853
25.1738
-0.72083
25.3752
-0.74193
25.6009
-0.762325
-0.784602
25.7594
51.2485
1.71795
-51.635
50.8573
1.67326
50.4616
1.62806
50.061
1.58239
49.6552
1.53627
49.2439
1.48975
48.8267
1.44286
48.4032
1.39563
47.9729
1.34809
47.5353
1.30028
47.0898
1.25224
46.6359
1.204
46.1728
1.1556
45.6998
1.10709
45.2158
1.05849
44.72
1.00985
44.2111
0.961211
43.6877
0.912614
43.1484
0.864101
42.5914
0.815718
42.0143
0.767508
41.4149
0.719518
40.7898
0.671796
40.1354
0.624391
39.4469
0.577353
38.7182
0.530733
37.9416
0.484586
37.1065
0.438963
36.198
0.393919
35.1931
0.3495
34.0549
0.305722
32.7324
0.26259
31.1797
0.220213
29.4014
0.179068
27.4954
0.140145
25.6383
0.104652
24.0083
0.07333
22.7076
0.046033
21.7447
0.0219293
21.0689
0
20.6118
-0.0206097
20.3122
-0.0404914
20.1236
-0.0600144
20.0135
-0.0793987
19.9599
-0.0987739
19.9478
-0.118217
19.967
-0.137772
20.0105
-0.15747
20.0733
-0.177326
20.1517
-0.197349
20.2431
-0.217544
20.3452
-0.237913
20.4567
-0.258454
20.5761
-0.279164
20.7026
-0.300038
20.8353
-0.32107
20.9735
-0.342253
21.1168
-0.363579
21.2646
-0.38504
21.4165
-0.406626
21.5723
-0.428328
21.7316
-0.450135
21.8943
-0.472038
22.0601
-0.494023
22.2287
-0.516082
22.4002
-0.538201
22.5743
-0.560369
22.7508
-0.582574
22.9298
-0.604804
23.111
-0.627045
23.2945
-0.649286
23.4801
-0.671513
23.6676
-0.693714
23.8574
-0.71587
24.0484
-0.737992
24.2434
-0.759986
24.4335
-0.782098
24.6464
-0.803484
-0.826783
24.7964
49.3856
1.80298
-49.7592
49.0076
1.75603
48.6252
1.70856
48.2382
1.6606
47.8463
1.61218
47.4491
1.56333
47.0463
1.5141
46.6374
1.46451
46.2221
1.4146
45.7998
1.36442
45.37
1.31399
44.9321
1.26336
44.4854
1.21256
44.0291
1.16164
43.5623
1.11063
43.0841
1.05959
42.5934
1.00854
42.0887
0.95754
41.5687
0.906629
41.0314
0.855853
40.4749
0.805259
39.8967
0.754897
39.2937
0.704813
38.6622
0.655062
37.9975
0.605693
37.2938
0.556761
36.5433
0.50832
35.7355
0.460425
34.8557
0.413131
33.8807
0.36648
32.7743
0.320487
31.4885
0.275163
29.9844
0.230656
28.2749
0.187517
26.4601
0.146808
24.7076
0.109752
23.1788
0.0770372
21.9615
0.0484509
21.0592
0.0231179
20.4232
0
19.99
-0.0217654
19.7035
-0.0427758
19.5209
-0.063406
19.4122
-0.0838817
19.3569
-0.104336
19.341
-0.12485
19.3551
-0.145471
19.3924
-0.166229
19.4482
-0.187141
19.5191
-0.208219
19.6024
-0.229467
19.6962
-0.250888
19.7989
-0.272479
19.9095
-0.294238
20.0268
-0.31616
20.1502
-0.338238
20.2789
-0.360466
20.4126
-0.382836
20.5506
-0.405339
20.6927
-0.427965
20.8386
-0.450705
20.9879
-0.473547
21.1404
-0.496481
21.296
-0.519495
21.4544
-0.542579
21.6155
-0.565719
21.7791
-0.588903
21.9452
-0.612119
22.1136
-0.635355
22.2843
-0.658596
22.457
-0.681831
22.6319
-0.705044
22.8087
-0.728226
22.9876
-0.751354
23.1677
-0.77444
23.3516
-0.797389
23.5311
-0.820449
23.7318
-0.842764
-0.867015
23.8739
47.5889
1.88389
-47.9499
47.2237
1.8348
46.8544
1.78517
46.4806
1.73503
46.1022
1.68441
45.7187
1.63335
45.3299
1.58188
44.9353
1.53005
44.5345
1.47789
44.1271
1.42544
43.7124
1.37274
43.29
1.31983
42.8592
1.26675
42.4191
1.21354
41.969
1.16024
41.5078
1.10691
41.0346
1.05357
40.5479
1.00028
40.0464
0.947087
39.5283
0.894034
38.9916
0.841171
38.4338
0.788548
37.852
0.736217
37.2426
0.684229
36.6009
0.63264
35.9211
0.581503
35.1956
0.530875
34.4141
0.480812
33.5617
0.431369
32.6153
0.382585
31.5394
0.334472
30.2894
0.287053
28.8333
0.240521
27.1915
0.195501
25.4655
0.153123
23.8132
0.114608
22.3802
0.0805871
21.2415
0.0507778
20.3962
0.0242659
19.7977
0
19.3874
-0.022886
19.1135
-0.0449923
18.9369
-0.0666983
18.8297
-0.0882336
18.7731
-0.109735
18.7539
-0.131286
18.7632
-0.152937
18.7948
-0.17472
18.8442
-0.196653
18.908
-0.218748
18.9839
-0.24101
19.0698
-0.263441
19.1645
-0.286041
19.2667
-0.308806
19.3754
-0.331732
19.4901
-0.354812
19.61
-0.37804
19.7346
-0.401407
19.8635
-0.424903
19.9963
-0.44852
20.1328
-0.472248
20.2727
-0.496074
20.4157
-0.519989
20.5616
-0.543979
20.7104
-0.568035
20.8617
-0.592142
21.0155
-0.616288
21.1717
-0.64046
21.3302
-0.664646
21.4908
-0.688831
21.6535
-0.713003
21.8182
-0.737146
21.9848
-0.76125
22.1535
-0.785292
22.3233
-0.809284
22.4968
-0.833128
22.6661
-0.857077
22.8555
-0.880266
-0.905402
22.99
45.8563
1.96084
-46.205
45.5036
1.90971
45.1469
1.85802
44.7861
1.8058
44.4207
1.75309
44.0506
1.69993
43.6754
1.64634
43.2946
1.59238
42.9079
1.53808
42.5149
1.48347
42.1149
1.42861
41.7075
1.37353
41.292
1.31828
40.8676
1.26289
40.4335
1.20742
39.9889
1.1519
39.5325
1.09639
39.0633
1.04092
38.5796
0.985554
38.08
0.930334
37.5623
0.875311
37.0242
0.820537
36.4629
0.766065
35.8746
0.711948
35.2549
0.658243
34.5981
0.605006
33.8967
0.552293
33.1403
0.500163
32.3141
0.448667
31.395
0.397844
30.3485
0.347704
29.1336
0.298284
27.7249
0.249828
26.1499
0.203039
24.51
0.159105
22.9537
0.119234
21.6113
0.0839875
20.5467
0.0530175
19.755
0.0253747
19.1919
0
18.8032
-0.0239725
18.5416
-0.0471435
18.3708
-0.0698945
18.2654
-0.0924586
18.2077
-0.114976
18.1856
-0.137533
18.1906
-0.160181
18.217
-0.182954
18.2604
-0.205873
18.3177
-0.228948
18.3866
-0.252186
18.4653
-0.27559
18.5524
-0.299159
18.6468
-0.32289
18.7475
-0.346779
18.854
-0.370818
18.9655
-0.395002
19.0817
-0.419321
19.202
-0.443766
19.3262
-0.468328
19.4538
-0.492997
19.5848
-0.51776
19.7189
-0.542606
19.8558
-0.567524
19.9954
-0.592501
20.1375
-0.617524
20.2821
-0.642581
20.429
-0.667657
20.578
-0.692741
20.7292
-0.717817
20.8824
-0.742872
21.0375
-0.767891
21.1945
-0.792862
21.3535
-0.817764
21.5136
-0.842606
21.6772
-0.867293
21.837
-0.892074
22.0155
-0.916082
-0.94204
22.1429
44.1856
2.03397
-44.5223
43.845
1.9809
43.5007
1.92726
43.1524
1.87307
42.7998
1.81837
42.4426
1.7632
42.0805
1.7076
41.7132
1.65161
41.3402
1.59527
40.9611
1.53862
40.5753
1.48171
40.1824
1.42457
39.7817
1.36725
39.3725
1.30979
38.954
1.25225
38.5252
1.19466
38.0852
1.13707
37.6327
1.07954
37.1663
1.0221
36.6844
0.964823
36.1851
0.907746
35.666
0.850925
35.1242
0.794416
34.5563
0.738273
33.9578
0.682554
33.3231
0.627315
32.6447
0.572615
31.9124
0.518512
31.1112
0.465057
30.2182
0.412285
29.2001
0.360206
28.0196
0.308878
26.6579
0.258599
25.1485
0.210152
23.5923
0.164771
22.1277
0.12364
20.8711
0.0872456
19.8761
0.0551736
19.1348
0.0264458
18.6051
0
18.237
-0.0250261
17.9871
-0.049231
17.8221
-0.0729975
17.7186
-0.0965608
17.6601
-0.120064
17.6354
-0.143596
17.6366
-0.16721
17.6582
-0.190941
17.6961
-0.214811
17.7474
-0.238832
17.8099
-0.263011
17.8818
-0.287352
17.9618
-0.311852
18.0489
-0.336511
18.1421
-0.361322
18.2409
-0.386281
18.3446
-0.411379
18.4528
-0.436609
18.5651
-0.46196
18.6811
-0.487424
18.8005
-0.512988
18.9231
-0.538643
19.0487
-0.564375
19.1771
-0.590174
19.3081
-0.616025
19.4416
-0.641917
19.5774
-0.667836
19.7155
-0.693768
19.8557
-0.719699
19.998
-0.745616
20.1422
-0.771504
20.2883
-0.797349
20.4362
-0.823137
20.586
-0.848846
20.737
-0.874488
20.8912
-0.899963
21.042
-0.925524
21.2103
-0.9503
-0.977022
21.331
42.5747
2.10342
-42.8997
42.2459
2.04851
41.9136
1.99301
41.5775
1.93695
41.2372
1.88036
40.8926
1.82329
40.5434
1.76578
40.189
1.70787
39.8293
1.64959
39.4636
1.591
39.0917
1.53214
38.7128
1.47304
38.3264
1.41376
37.9318
1.35434
37.5282
1.29482
37.1148
1.23527
36.6906
1.17571
36.2542
1.11621
35.8045
1.05681
35.3397
0.997572
34.858
0.93854
34.3571
0.879773
33.8343
0.821326
33.2859
0.763254
32.7078
0.705617
32.0942
0.648473
31.4379
0.591879
30.7286
0.535895
29.9513
0.48057
29.0833
0.425934
28.0927
0.372002
26.9461
0.318856
25.631
0.266855
24.1862
0.216858
22.711
0.170137
21.3339
0.127837
20.1583
0.090368
19.2288
0.0572498
18.5348
0.0274807
18.0366
0
17.6882
-0.0260477
17.4495
-0.0512572
17.2903
-0.0760104
17.1887
-0.100544
17.1297
-0.125005
17.1028
-0.149481
17.1005
-0.174031
17.1177
-0.198689
17.1506
-0.223479
17.1963
-0.248413
17.2528
-0.273499
17.3184
-0.298741
17.3918
-0.324138
17.4721
-0.349687
17.5583
-0.375385
17.6499
-0.401224
17.7463
-0.427198
17.847
-0.453298
17.9517
-0.479515
18.06
-0.505839
18.1717
-0.532258
18.2864
-0.558761
18.4041
-0.585336
18.5244
-0.611971
18.6473
-0.638653
18.7727
-0.665368
18.9003
-0.692103
19.0301
-0.718845
19.1619
-0.745578
19.2958
-0.772289
19.4315
-0.798963
19.5691
-0.825584
19.7084
-0.852141
19.8496
-0.87861
19.9919
-0.905002
20.1374
-0.931218
20.2796
-0.957509
20.4383
-0.983007
-1.01044
20.5525
41.0216
2.16933
-41.3353
40.7043
2.11268
40.3836
2.05542
40.0593
1.99758
39.7311
1.9392
39.3987
1.88033
39.0618
1.821
38.7201
1.76126
38.3731
1.70115
38.0205
1.64072
37.6619
1.58
37.2965
1.51904
36.924
1.4579
36.5436
1.39661
36.1545
1.33523
35.7559
1.2738
35.3468
1.21238
34.926
1.15101
34.4923
1.08975
34.044
1.02864
33.5793
0.967755
33.0959
0.907138
32.5912
0.846847
32.0617
0.786942
31.503
0.72748
30.9098
0.66852
30.2746
0.610123
29.5873
0.552345
28.8328
0.495235
27.9888
0.438818
27.0249
0.383115
25.9117
0.32824
24.6428
0.274616
23.2614
0.223176
21.8647
0.175217
20.5711
0.131838
19.472
0.0933615
18.6039
0.0592494
17.9545
0.0284808
17.486
0
17.1561
-0.0270385
16.9283
-0.0532236
16.7747
-0.0789358
16.6752
-0.104413
16.616
-0.129802
16.5871
-0.155196
16.5817
-0.180652
16.5949
-0.206208
16.6231
-0.231886
16.6637
-0.257702
16.7146
-0.283663
16.7743
-0.309773
16.8416
-0.336032
16.9155
-0.362438
16.9952
-0.388986
17.0801
-0.41567
17.1696
-0.442483
17.2633
-0.469416
17.3609
-0.49646
17.462
-0.523605
17.5664
-0.550838
17.6737
-0.57815
17.7839
-0.605527
17.8967
-0.632957
18.012
-0.660427
18.1296
-0.687924
18.2495
-0.715432
18.3714
-0.74294
18.4954
-0.770431
18.6213
-0.797891
18.7491
-0.825307
18.8786
-0.852661
19.0099
-0.879941
19.1429
-0.907124
19.277
-0.93422
19.4141
-0.961131
19.5484
-0.988105
19.6979
-1.01428
-1.04237
19.8061
39.5243
2.23184
-39.827
39.2182
2.17353
38.9088
2.1146
38.596
2.05508
38.2794
1.995
37.9588
1.93442
37.6339
1.87337
37.3044
1.8119
36.9698
1.75005
36.6299
1.68786
36.284
1.62539
35.9318
1.56267
35.5726
1.49976
35.2058
1.4367
34.8307
1.37355
34.4464
1.31035
34.0519
1.24715
33.6462
1.18401
33.2279
1.12097
32.7954
1.0581
32.3471
0.99545
31.8806
0.933074
31.3933
0.871032
30.8818
0.809382
30.3419
0.748184
29.7681
0.687498
29.1532
0.627382
28.4869
0.567894
27.7543
0.509078
26.9333
0.45096
25.9954
0.393568
24.9152
0.33705
23.6922
0.281903
22.3731
0.229125
21.0521
0.180028
19.838
0.135651
18.8111
0.0962324
18.0007
0.0611759
17.393
0.0294474
16.9526
0
16.6404
-0.0279995
16.423
-0.0551325
16.2748
-0.0817767
16.1776
-0.10817
16.1182
-0.134462
16.0877
-0.160745
16.0795
-0.18708
16.0891
-0.213504
16.113
-0.240042
16.1489
-0.26671
16.1946
-0.293515
16.2489
-0.320462
16.3104
-0.347551
16.3784
-0.37478
16.452
-0.402145
16.5305
-0.42964
16.6136
-0.457257
16.7008
-0.484987
16.7917
-0.512822
16.886
-0.540751
16.9835
-0.568762
17.0839
-0.596844
17.1871
-0.624985
17.2928
-0.653171
17.4009
-0.681389
17.5113
-0.709627
17.6238
-0.737869
17.7384
-0.766101
17.855
-0.794309
17.9734
-0.822477
18.0936
-0.850592
18.2156
-0.878636
18.3392
-0.906597
18.4645
-0.934452
18.5909
-0.962209
18.7202
-0.989773
18.8468
-1.01739
18.9877
-1.0442
-1.07289
19.0902
38.0809
2.29107
-38.3729
37.7856
2.2312
37.4872
2.17068
37.1855
2.10956
36.8802
2.04788
36.5711
1.98568
36.2578
1.923
35.94
1.85989
35.6175
1.79639
35.2897
1.73254
34.9563
1.6684
34.6168
1.60402
34.2705
1.53943
33.9169
1.4747
33.5552
1.40986
33.1846
1.34498