/*--------------------------------*- C++ -*----------------------------------*\
| =========                 |                                                 |
| \\      /  F ield         | OpenFOAM: The Open Source CFD Toolbox           |
|  \\    /   O peration     | Version:  2312                                  |
|   \\  /    A nd           | Website:  www.openfoam.com                      |
|    \\/     M anipulation  |                                                 |
\*---------------------------------------------------------------------------*/
FoamFile
{
    version     2.0;
    format      ascii;
    arch        "LSB;label=32;scalar=64";
    class       volScalarField;
    location    "2.95";
    object      wave;
}
// * * * * * * * * * * * * * * * * * * * * * * * * * * * * * * * * * * * * * //

dimensions      [0 0 0 0 0 0 0];

internalField   nonuniform List<scalar> 
100
(
0.112024
-0.0463901
-0.203639
-0.355771
-0.498966
-0.629626
-0.744468
-0.840608
-0.915629
-0.967648
-0.995358
-0.998062
-0.975692
-0.928811
-0.858596
-0.766811
-0.655762
-0.528239
-0.387445
-0.236918
-0.0804393
0.0780605
0.234599
0.385244
0.526211
0.653959
0.765277
0.85737
0.927924
0.975166
0.99791
0.995585
0.968248
0.916586
0.841898
0.74606
0.631478
0.501033
0.358001
0.205974
0.0487737
-0.109652
-0.265324
-0.414329
-0.552926
-0.677632
-0.785315
-0.873269
-0.939284
-0.981702
-0.999458
-0.992105
-0.959828
-0.903439
-0.824353
-0.724557
-0.606559
-0.473323
-0.328195
-0.174823
-0.0170591
0.141134
0.295781
0.442997
0.579084
0.700624
0.804562
0.888288
0.949698
0.98725
0.999999
0.987627
0.950443
0.889382
0.805977
0.702325
0.581029
0.445135
0.29806
0.143496
-0.0146728
-0.172473
-0.32594
-0.471219
-0.60466
-0.72291
-0.822999
-0.902413
-0.959156
-0.991803
-0.999534
-0.982154
-0.9401
-0.874429
-0.78679
-0.679386
-0.554913
-0.4165
-0.267624
-0.112024
)
;

boundaryField
{
    movingWall
    {
        type            calculated;
        value           uniform 0;
    }
    fixedWalls
    {
        type            calculated;
        value           uniform 0;
    }
    frontAndBack
    {
        type            empty;
    }
}


// ************************************************************************* //
