/*--------------------------------*- C++ -*----------------------------------*\
| =========                 |                                                 |
| \\      /  F ield         | OpenFOAM: The Open Source CFD Toolbox           |
|  \\    /   O peration     | Version:  2312                                  |
|   \\  /    A nd           | Website:  www.openfoam.com                      |
|    \\/     M anipulation  |                                                 |
\*---------------------------------------------------------------------------*/
FoamFile
{
    version     2.0;
    format      ascii;
    arch        "LSB;label=32;scalar=64";
    class       volVectorField;
    location    "0.833";
    object      U;
}
// * * * * * * * * * * * * * * * * * * * * * * * * * * * * * * * * * * * * * //

dimensions      [0 1 -1 0 0 0 0];

internalField   nonuniform List<vector> 
31205
(
(284.035 0 0)
(282.887 0 0)
(281.694 0 0)
(280.453 0 0)
(279.165 0 0)
(277.826 0 0)
(276.436 0 0)
(274.992 0 0)
(273.494 0 0)
(271.939 0 0)
(270.324 0 0)
(268.648 0 0)
(266.907 0 0)
(265.099 0 0)
(263.221 0 0)
(261.269 0 0)
(259.238 0 0)
(257.125 0 0)
(254.924 0 0)
(252.63 0 0)
(250.235 0 0)
(247.733 0 0)
(245.115 0 0)
(242.371 0 0)
(239.489 0 0)
(236.455 0 0)
(233.253 0 0)
(229.861 0 0)
(226.256 0 0)
(222.405 0 0)
(218.266 0 0)
(213.783 0 0)
(208.882 0 0)
(203.466 0 0)
(197.361 0 0)
(190.157 0 0)
(181.036 0 0)
(169.118 0 0)
(154.594 0 0)
(139.482 0 0)
(126.463 0 0)
(116.989 0 0)
(110.9 0 0)
(107.303 0 0)
(105.323 0 0)
(104.346 0 0)
(103.991 0 0)
(104.034 0 0)
(104.34 0 0)
(104.829 0 0)
(105.448 0 0)
(106.163 0 0)
(106.953 0 0)
(107.8 0 0)
(108.693 0 0)
(109.623 0 0)
(110.582 0 0)
(111.567 0 0)
(112.572 0 0)
(113.594 0 0)
(114.63 0 0)
(115.678 0 0)
(116.736 0 0)
(117.803 0 0)
(118.877 0 0)
(119.957 0 0)
(121.042 0 0)
(122.131 0 0)
(123.223 0 0)
(124.317 0 0)
(125.414 0 0)
(126.512 0 0)
(127.612 0 0)
(128.711 0 0)
(129.816 0 0)
(130.903 0 0)
(132.043 0 0)
(133.02 0 0)
(134.497 0 0)
(282.998 0 0)
(281.841 0 0)
(280.64 0 0)
(279.394 0 0)
(278.1 0 0)
(276.757 0 0)
(275.365 0 0)
(273.921 0 0)
(272.423 0 0)
(270.869 0 0)
(269.258 0 0)
(267.586 0 0)
(265.852 0 0)
(264.052 0 0)
(262.183 0 0)
(260.241 0 0)
(258.223 0 0)
(256.124 0 0)
(253.939 0 0)
(251.663 0 0)
(249.289 0 0)
(246.81 0 0)
(244.217 0 0)
(241.5 0 0)
(238.649 0 0)
(235.649 0 0)
(232.485 0 0)
(229.135 0 0)
(225.577 0 0)
(221.778 0 0)
(217.699 0 0)
(213.285 0 0)
(208.464 0 0)
(203.142 0 0)
(197.156 0 0)
(190.122 0 0)
(181.266 0 0)
(169.706 0 0)
(155.512 0 0)
(140.527 0 0)
(127.396 0 0)
(117.683 0 0)
(111.353 0 0)
(107.564 0 0)
(105.443 0 0)
(104.362 0 0)
(103.927 0 0)
(103.905 0 0)
(104.156 0 0)
(104.595 0 0)
(105.168 0 0)
(105.842 0 0)
(106.591 0 0)
(107.399 0 0)
(108.254 0 0)
(109.147 0 0)
(110.071 0 0)
(111.02 0 0)
(111.99 0 0)
(112.978 0 0)
(113.981 0 0)
(114.996 0 0)
(116.022 0 0)
(117.056 0 0)
(118.098 0 0)
(119.146 0 0)
(120.199 0 0)
(121.257 0 0)
(122.318 0 0)
(123.382 0 0)
(124.448 0 0)
(125.516 0 0)
(126.585 0 0)
(127.654 0 0)
(128.728 0 0)
(129.786 0 0)
(130.895 0 0)
(131.848 0 0)
(133.278 0 0)
(281.898 0 0)
(280.732 0 0)
(279.524 0 0)
(278.271 0 0)
(276.972 0 0)
(275.626 0 0)
(274.231 0 0)
(272.785 0 0)
(271.287 0 0)
(269.735 0 0)
(268.126 0 0)
(266.458 0 0)
(264.729 0 0)
(262.936 0 0)
(261.075 0 0)
(259.143 0 0)
(257.136 0 0)
(255.05 0 0)
(252.879 0 0)
(250.619 0 0)
(248.263 0 0)
(245.804 0 0)
(243.233 0 0)
(240.541 0 0)
(237.717 0 0)
(234.747 0 0)
(231.616 0 0)
(228.304 0 0)
(224.786 0 0)
(221.033 0 0)
(217.005 0 0)
(212.65 0 0)
(207.897 0 0)
(202.654 0 0)
(196.764 0 0)
(189.862 0 0)
(181.21 0 0)
(169.938 0 0)
(156.042 0 0)
(141.227 0 0)
(128.077 0 0)
(118.223 0 0)
(111.723 0 0)
(107.786 0 0)
(105.551 0 0)
(104.381 0 0)
(103.875 0 0)
(103.794 0 0)
(103.993 0 0)
(104.386 0 0)
(104.916 0 0)
(105.549 0 0)
(106.259 0 0)
(107.03 0 0)
(107.848 0 0)
(108.706 0 0)
(109.595 0 0)
(110.51 0 0)
(111.446 0 0)
(112.401 0 0)
(113.371 0 0)
(114.354 0 0)
(115.348 0 0)
(116.35 0 0)
(117.361 0 0)
(118.378 0 0)
(119.4 0 0)
(120.427 0 0)
(121.458 0 0)
(122.492 0 0)
(123.528 0 0)
(124.566 0 0)
(125.607 0 0)
(126.646 0 0)
(127.691 0 0)
(128.721 0 0)
(129.799 0 0)
(130.728 0 0)
(132.113 0 0)
(280.765 0 0)
(279.592 0 0)
(278.377 0 0)
(277.118 0 0)
(275.814 0 0)
(274.465 0 0)
(273.067 0 0)
(271.62 0 0)
(270.122 0 0)
(268.571 0 0)
(266.964 0 0)
(265.3 0 0)
(263.575 0 0)
(261.788 0 0)
(259.934 0 0)
(258.011 0 0)
(256.014 0 0)
(253.939 0 0)
(251.782 0 0)
(249.537 0 0)
(247.197 0 0)
(244.756 0 0)
(242.205 0 0)
(239.536 0 0)
(236.736 0 0)
(233.793 0 0)
(230.692 0 0)
(227.412 0 0)
(223.93 0 0)
(220.218 0 0)
(216.235 0 0)
(211.93 0 0)
(207.235 0 0)
(202.058 0 0)
(196.247 0 0)
(189.448 0 0)
(180.951 0 0)
(169.905 0 0)
(156.266 0 0)
(141.638 0 0)
(128.536 0 0)
(118.618 0 0)
(112.01 0 0)
(107.968 0 0)
(105.643 0 0)
(104.4 0 0)
(103.834 0 0)
(103.7 0 0)
(103.853 0 0)
(104.202 0 0)
(104.692 0 0)
(105.286 0 0)
(105.959 0 0)
(106.693 0 0)
(107.477 0 0)
(108.3 0 0)
(109.155 0 0)
(110.037 0 0)
(110.941 0 0)
(111.864 0 0)
(112.802 0 0)
(113.754 0 0)
(114.716 0 0)
(115.688 0 0)
(116.668 0 0)
(117.655 0 0)
(118.648 0 0)
(119.645 0 0)
(120.646 0 0)
(121.651 0 0)
(122.658 0 0)
(123.667 0 0)
(124.678 0 0)
(125.689 0 0)
(126.706 0 0)
(127.708 0 0)
(128.756 0 0)
(129.662 0 0)
(131.005 0 0)
(279.617 0 0)
(278.437 0 0)
(277.216 0 0)
(275.952 0 0)
(274.644 0 0)
(273.291 0 0)
(271.892 0 0)
(270.444 0 0)
(268.946 0 0)
(267.397 0 0)
(265.792 0 0)
(264.132 0 0)
(262.412 0 0)
(260.631 0 0)
(258.784 0 0)
(256.87 0 0)
(254.883 0 0)
(252.819 0 0)
(250.674 0 0)
(248.443 0 0)
(246.119 0 0)
(243.695 0 0)
(241.164 0 0)
(238.515 0 0)
(235.739 0 0)
(232.821 0 0)
(229.747 0 0)
(226.498 0 0)
(223.051 0 0)
(219.375 0 0)
(215.434 0 0)
(211.176 0 0)
(206.533 0 0)
(201.417 0 0)
(195.675 0 0)
(188.964 0 0)
(180.596 0 0)
(169.742 0 0)
(156.334 0 0)
(141.896 0 0)
(128.874 0 0)
(118.933 0 0)
(112.252 0 0)
(108.127 0 0)
(105.727 0 0)
(104.42 0 0)
(103.799 0 0)
(103.617 0 0)
(103.726 0 0)
(104.035 0 0)
(104.486 0 0)
(105.043 0 0)
(105.68 0 0)
(106.38 0 0)
(107.13 0 0)
(107.92 0 0)
(108.743 0 0)
(109.592 0 0)
(110.465 0 0)
(111.356 0 0)
(112.264 0 0)
(113.185 0 0)
(114.117 0 0)
(115.059 0 0)
(116.009 0 0)
(116.967 0 0)
(117.93 0 0)
(118.898 0 0)
(119.871 0 0)
(120.847 0 0)
(121.826 0 0)
(122.806 0 0)
(123.79 0 0)
(124.772 0 0)
(125.761 0 0)
(126.736 0 0)
(127.755 0 0)
(128.638 0 0)
(129.941 0 0)
(278.462 0 0)
(277.276 0 0)
(276.049 0 0)
(274.781 0 0)
(273.471 0 0)
(272.116 0 0)
(270.715 0 0)
(269.268 0 0)
(267.771 0 0)
(266.223 0 0)
(264.622 0 0)
(262.965 0 0)
(261.251 0 0)
(259.476 0 0)
(257.637 0 0)
(255.731 0 0)
(253.754 0 0)
(251.701 0 0)
(249.569 0 0)
(247.352 0 0)
(245.044 0 0)
(242.637 0 0)
(240.124 0 0)
(237.496 0 0)
(234.742 0 0)
(231.85 0 0)
(228.803 0 0)
(225.583 0 0)
(222.168 0 0)
(218.528 0 0)
(214.627 0 0)
(210.413 0 0)
(205.82 0 0)
(200.761 0 0)
(195.084 0 0)
(188.454 0 0)
(180.203 0 0)
(169.525 0 0)
(156.335 0 0)
(142.085 0 0)
(129.156 0 0)
(119.211 0 0)
(112.473 0 0)
(108.276 0 0)
(105.809 0 0)
(104.444 0 0)
(103.772 0 0)
(103.544 0 0)
(103.611 0 0)
(103.88 0 0)
(104.294 0 0)
(104.816 0 0)
(105.419 0 0)
(106.085 0 0)
(106.802 0 0)
(107.559 0 0)
(108.35 0 0)
(109.169 0 0)
(110.011 0 0)
(110.872 0 0)
(111.749 0 0)
(112.64 0 0)
(113.543 0 0)
(114.456 0 0)
(115.377 0 0)
(116.306 0 0)
(117.241 0 0)
(118.181 0 0)
(119.125 0 0)
(120.073 0 0)
(121.024 0 0)
(121.977 0 0)
(122.933 0 0)
(123.888 0 0)
(124.849 0 0)
(125.797 0 0)
(126.788 0 0)
(127.648 0 0)
(128.913 0 0)
(277.304 0 0)
(276.112 0 0)
(274.882 0 0)
(273.611 0 0)
(272.298 0 0)
(270.942 0 0)
(269.542 0 0)
(268.094 0 0)
(266.599 0 0)
(265.054 0 0)
(263.457 0 0)
(261.805 0 0)
(260.096 0 0)
(258.328 0 0)
(256.497 0 0)
(254.6 0 0)
(252.633 0 0)
(250.593 0 0)
(248.473 0 0)
(246.27 0 0)
(243.977 0 0)
(241.588 0 0)
(239.094 0 0)
(236.486 0 0)
(233.755 0 0)
(230.886 0 0)
(227.866 0 0)
(224.676 0 0)
(221.292 0 0)
(217.688 0 0)
(213.825 0 0)
(209.655 0 0)
(205.111 0 0)
(200.107 0 0)
(194.493 0 0)
(187.941 0 0)
(179.801 0 0)
(169.29 0 0)
(156.309 0 0)
(142.247 0 0)
(129.416 0 0)
(119.475 0 0)
(112.687 0 0)
(108.425 0 0)
(105.894 0 0)
(104.472 0 0)
(103.751 0 0)
(103.479 0 0)
(103.505 0 0)
(103.736 0 0)
(104.115 0 0)
(104.601 0 0)
(105.171 0 0)
(105.804 0 0)
(106.489 0 0)
(107.215 0 0)
(107.975 0 0)
(108.764 0 0)
(109.575 0 0)
(110.406 0 0)
(111.254 0 0)
(112.116 0 0)
(112.991 0 0)
(113.875 0 0)
(114.768 0 0)
(115.669 0 0)
(116.576 0 0)
(117.488 0 0)
(118.405 0 0)
(119.325 0 0)
(120.249 0 0)
(121.175 0 0)
(122.104 0 0)
(123.033 0 0)
(123.967 0 0)
(124.889 0 0)
(125.852 0 0)
(126.689 0 0)
(127.917 0 0)
(276.144 0 0)
(274.949 0 0)
(273.716 0 0)
(272.443 0 0)
(271.129 0 0)
(269.773 0 0)
(268.373 0 0)
(266.927 0 0)
(265.434 0 0)
(263.892 0 0)
(262.299 0 0)
(260.653 0 0)
(258.951 0 0)
(257.19 0 0)
(255.367 0 0)
(253.48 0 0)
(251.524 0 0)
(249.495 0 0)
(247.389 0 0)
(245.2 0 0)
(242.923 0 0)
(240.551 0 0)
(238.075 0 0)
(235.488 0 0)
(232.779 0 0)
(229.935 0 0)
(226.941 0 0)
(223.78 0 0)
(220.428 0 0)
(216.858 0 0)
(213.034 0 0)
(208.906 0 0)
(204.411 0 0)
(199.46 0 0)
(193.909 0 0)
(187.433 0 0)
(179.401 0 0)
(169.052 0 0)
(156.277 0 0)
(142.4 0 0)
(129.669 0 0)
(119.737 0 0)
(112.903 0 0)
(108.577 0 0)
(105.985 0 0)
(104.508 0 0)
(103.738 0 0)
(103.422 0 0)
(103.409 0 0)
(103.603 0 0)
(103.946 0 0)
(104.399 0 0)
(104.935 0 0)
(105.537 0 0)
(106.191 0 0)
(106.886 0 0)
(107.616 0 0)
(108.375 0 0)
(109.157 0 0)
(109.959 0 0)
(110.779 0 0)
(111.612 0 0)
(112.458 0 0)
(113.315 0 0)
(114.18 0 0)
(115.053 0 0)
(115.933 0 0)
(116.818 0 0)
(117.708 0 0)
(118.602 0 0)
(119.499 0 0)
(120.399 0 0)
(121.302 0 0)
(122.204 0 0)
(123.112 0 0)
(124.009 0 0)
(124.945 0 0)
(125.76 0 0)
(126.952 0 0)
(274.985 0 0)
(273.787 0 0)
(272.552 0 0)
(271.278 0 0)
(269.964 0 0)
(268.608 0 0)
(267.21 0 0)
(265.766 0 0)
(264.277 0 0)
(262.739 0 0)
(261.151 0 0)
(259.51 0 0)
(257.815 0 0)
(256.062 0 0)
(254.248 0 0)
(252.371 0 0)
(250.426 0 0)
(248.409 0 0)
(246.316 0 0)
(244.142 0 0)
(241.881 0 0)
(239.526 0 0)
(237.07 0 0)
(234.504 0 0)
(231.817 0 0)
(228.997 0 0)
(226.029 0 0)
(222.897 0 0)
(219.576 0 0)
(216.041 0 0)
(212.255 0 0)
(208.169 0 0)
(203.721 0 0)
(198.824 0 0)
(193.334 0 0)
(186.933 0 0)
(179.009 0 0)
(168.819 0 0)
(156.245 0 0)
(142.551 0 0)
(129.921 0 0)
(120 0 0)
(113.123 0 0)
(108.735 0 0)
(106.082 0 0)
(104.55 0 0)
(103.732 0 0)
(103.374 0 0)
(103.322 0 0)
(103.48 0 0)
(103.788 0 0)
(104.208 0 0)
(104.712 0 0)
(105.283 0 0)
(105.906 0 0)
(106.572 0 0)
(107.272 0 0)
(108.002 0 0)
(108.755 0 0)
(109.529 0 0)
(110.321 0 0)
(111.127 0 0)
(111.945 0 0)
(112.775 0 0)
(113.613 0 0)
(114.459 0 0)
(115.313 0 0)
(116.171 0 0)
(117.035 0 0)
(117.903 0 0)
(118.774 0 0)
(119.648 0 0)
(120.525 0 0)
(121.402 0 0)
(122.285 0 0)
(123.156 0 0)
(124.066 0 0)
(124.859 0 0)
(126.016 0 0)
(273.827 0 0)
(272.628 0 0)
(271.392 0 0)
(270.117 0 0)
(268.804 0 0)
(267.45 0 0)
(266.053 0 0)
(264.613 0 0)
(263.127 0 0)
(261.594 0 0)
(260.012 0 0)
(258.378 0 0)
(256.69 0 0)
(254.945 0 0)
(253.14 0 0)
(251.273 0 0)
(249.34 0 0)
(247.335 0 0)
(245.256 0 0)
(243.097 0 0)
(240.852 0 0)
(238.515 0 0)
(236.078 0 0)
(233.532 0 0)
(230.868 0 0)
(228.072 0 0)
(225.131 0 0)
(222.027 0 0)
(218.738 0 0)
(215.237 0 0)
(211.488 0 0)
(207.444 0 0)
(203.043 0 0)
(198.199 0 0)
(192.769 0 0)
(186.443 0 0)
(178.624 0 0)
(168.59 0 0)
(156.215 0 0)
(142.702 0 0)
(130.175 0 0)
(120.267 0 0)
(113.348 0 0)
(108.899 0 0)
(106.185 0 0)
(104.6 0 0)
(103.735 0 0)
(103.335 0 0)
(103.244 0 0)
(103.366 0 0)
(103.641 0 0)
(104.028 0 0)
(104.501 0 0)
(105.041 0 0)
(105.634 0 0)
(106.271 0 0)
(106.943 0 0)
(107.644 0 0)
(108.369 0 0)
(109.116 0 0)
(109.88 0 0)
(110.659 0 0)
(111.451 0 0)
(112.254 0 0)
(113.066 0 0)
(113.886 0 0)
(114.713 0 0)
(115.546 0 0)
(116.384 0 0)
(117.227 0 0)
(118.073 0 0)
(118.921 0 0)
(119.773 0 0)
(120.625 0 0)
(121.483 0 0)
(122.33 0 0)
(123.214 0 0)
(123.986 0 0)
(125.108 0 0)
(272.672 0 0)
(271.472 0 0)
(270.235 0 0)
(268.962 0 0)
(267.649 0 0)
(266.297 0 0)
(264.904 0 0)
(263.467 0 0)
(261.986 0 0)
(260.458 0 0)
(258.882 0 0)
(257.255 0 0)
(255.575 0 0)
(253.839 0 0)
(252.044 0 0)
(250.188 0 0)
(248.266 0 0)
(246.274 0 0)
(244.209 0 0)
(242.065 0 0)
(239.837 0 0)
(237.517 0 0)
(235.099 0 0)
(232.574 0 0)
(229.932 0 0)
(227.16 0 0)
(224.245 0 0)
(221.17 0 0)
(217.912 0 0)
(214.445 0 0)
(210.733 0 0)
(206.731 0 0)
(202.376 0 0)
(197.585 0 0)
(192.214 0 0)
(185.962 0 0)
(178.247 0 0)
(168.367 0 0)
(156.187 0 0)
(142.855 0 0)
(130.43 0 0)
(120.537 0 0)
(113.577 0 0)
(109.069 0 0)
(106.295 0 0)
(104.657 0 0)
(103.745 0 0)
(103.303 0 0)
(103.175 0 0)
(103.262 0 0)
(103.503 0 0)
(103.859 0 0)
(104.301 0 0)
(104.811 0 0)
(105.376 0 0)
(105.983 0 0)
(106.627 0 0)
(107.301 0 0)
(107.999 0 0)
(108.719 0 0)
(109.456 0 0)
(110.209 0 0)
(110.974 0 0)
(111.751 0 0)
(112.538 0 0)
(113.333 0 0)
(114.134 0 0)
(114.942 0 0)
(115.755 0 0)
(116.573 0 0)
(117.394 0 0)
(118.218 0 0)
(119.046 0 0)
(119.873 0 0)
(120.707 0 0)
(121.53 0 0)
(122.389 0 0)
(123.14 0 0)
(124.229 0 0)
(271.52 0 0)
(270.319 0 0)
(269.084 0 0)
(267.811 0 0)
(266.501 0 0)
(265.152 0 0)
(263.762 0 0)
(262.33 0 0)
(260.854 0 0)
(259.332 0 0)
(257.762 0 0)
(256.143 0 0)
(254.471 0 0)
(252.744 0 0)
(250.96 0 0)
(249.114 0 0)
(247.204 0 0)
(245.226 0 0)
(243.175 0 0)
(241.046 0 0)
(238.834 0 0)
(236.532 0 0)
(234.134 0 0)
(231.629 0 0)
(229.009 0 0)
(226.262 0 0)
(223.373 0 0)
(220.326 0 0)
(217.099 0 0)
(213.665 0 0)
(209.991 0 0)
(206.029 0 0)
(201.72 0 0)
(196.98 0 0)
(191.669 0 0)
(185.489 0 0)
(177.877 0 0)
(168.149 0 0)
(156.161 0 0)
(143.007 0 0)
(130.687 0 0)
(120.81 0 0)
(113.812 0 0)
(109.245 0 0)
(106.412 0 0)
(104.721 0 0)
(103.763 0 0)
(103.28 0 0)
(103.114 0 0)
(103.167 0 0)
(103.376 0 0)
(103.7 0 0)
(104.113 0 0)
(104.594 0 0)
(105.129 0 0)
(105.709 0 0)
(106.326 0 0)
(106.972 0 0)
(107.644 0 0)
(108.337 0 0)
(109.049 0 0)
(109.776 0 0)
(110.516 0 0)
(111.267 0 0)
(112.029 0 0)
(112.799 0 0)
(113.576 0 0)
(114.359 0 0)
(115.148 0 0)
(115.941 0 0)
(116.738 0 0)
(117.538 0 0)
(118.342 0 0)
(119.146 0 0)
(119.955 0 0)
(120.755 0 0)
(121.59 0 0)
(122.32 0 0)
(123.377 0 0)
(270.371 0 0)
(269.172 0 0)
(267.938 0 0)
(266.668 0 0)
(265.36 0 0)
(264.015 0 0)
(262.629 0 0)
(261.201 0 0)
(259.731 0 0)
(258.215 0 0)
(256.653 0 0)
(255.041 0 0)
(253.378 0 0)
(251.661 0 0)
(249.887 0 0)
(248.053 0 0)
(246.155 0 0)
(244.19 0 0)
(242.153 0 0)
(240.04 0 0)
(237.845 0 0)
(235.561 0 0)
(233.181 0 0)
(230.697 0 0)
(228.1 0 0)
(225.377 0 0)
(222.514 0 0)
(219.494 0 0)
(216.298 0 0)
(212.898 0 0)
(209.26 0 0)
(205.339 0 0)
(201.075 0 0)
(196.386 0 0)
(191.134 0 0)
(185.025 0 0)
(177.514 0 0)
(167.936 0 0)
(156.137 0 0)
(143.159 0 0)
(130.943 0 0)
(121.086 0 0)
(114.05 0 0)
(109.426 0 0)
(106.535 0 0)
(104.791 0 0)
(103.788 0 0)
(103.264 0 0)
(103.062 0 0)
(103.081 0 0)
(103.258 0 0)
(103.552 0 0)
(103.935 0 0)
(104.388 0 0)
(104.895 0 0)
(105.448 0 0)
(106.038 0 0)
(106.658 0 0)
(107.304 0 0)
(107.971 0 0)
(108.657 0 0)
(109.359 0 0)
(110.074 0 0)
(110.801 0 0)
(111.538 0 0)
(112.284 0 0)
(113.037 0 0)
(113.796 0 0)
(114.561 0 0)
(115.331 0 0)
(116.104 0 0)
(116.881 0 0)
(117.661 0 0)
(118.442 0 0)
(119.228 0 0)
(120.005 0 0)
(120.816 0 0)
(121.527 0 0)
(122.551 0 0)
(269.228 0 0)
(268.03 0 0)
(266.798 0 0)
(265.531 0 0)
(264.227 0 0)
(262.885 0 0)
(261.504 0 0)
(260.082 0 0)
(258.618 0 0)
(257.109 0 0)
(255.554 0 0)
(253.951 0 0)
(252.297 0 0)
(250.589 0 0)
(248.826 0 0)
(247.003 0 0)
(245.118 0 0)
(243.167 0 0)
(241.145 0 0)
(239.047 0 0)
(236.868 0 0)
(234.602 0 0)
(232.242 0 0)
(229.779 0 0)
(227.203 0 0)
(224.504 0 0)
(221.667 0 0)
(218.676 0 0)
(215.509 0 0)
(212.142 0 0)
(208.54 0 0)
(204.66 0 0)
(200.441 0 0)
(195.802 0 0)
(190.607 0 0)
(184.57 0 0)
(177.158 0 0)
(167.726 0 0)
(156.113 0 0)
(143.311 0 0)
(131.2 0 0)
(121.364 0 0)
(114.293 0 0)
(109.613 0 0)
(106.664 0 0)
(104.869 0 0)
(103.82 0 0)
(103.257 0 0)
(103.018 0 0)
(103.004 0 0)
(103.149 0 0)
(103.414 0 0)
(103.768 0 0)
(104.193 0 0)
(104.673 0 0)
(105.199 0 0)
(105.763 0 0)
(106.357 0 0)
(106.978 0 0)
(107.62 0 0)
(108.281 0 0)
(108.959 0 0)
(109.65 0 0)
(110.353 0 0)
(111.066 0 0)
(111.788 0 0)
(112.517 0 0)
(113.253 0 0)
(113.995 0 0)
(114.741 0 0)
(115.492 0 0)
(116.246 0 0)
(117.003 0 0)
(117.761 0 0)
(118.525 0 0)
(119.28 0 0)
(120.067 0 0)
(120.758 0 0)
(121.752 0 0)
(268.091 0 0)
(266.895 0 0)
(265.666 0 0)
(264.402 0 0)
(263.102 0 0)
(261.765 0 0)
(260.389 0 0)
(258.973 0 0)
(257.515 0 0)
(256.013 0 0)
(254.466 0 0)
(252.872 0 0)
(251.227 0 0)
(249.53 0 0)
(247.777 0 0)
(245.967 0 0)
(244.094 0 0)
(242.156 0 0)
(240.149 0 0)
(238.067 0 0)
(235.905 0 0)
(233.657 0 0)
(231.316 0 0)
(228.874 0 0)
(226.32 0 0)
(223.645 0 0)
(220.833 0 0)
(217.87 0 0)
(214.733 0 0)
(211.399 0 0)
(207.833 0 0)
(203.991 0 0)
(199.817 0 0)
(195.228 0 0)
(190.09 0 0)
(184.122 0 0)
(176.809 0 0)
(167.521 0 0)
(156.091 0 0)
(143.462 0 0)
(131.457 0 0)
(121.643 0 0)
(114.54 0 0)
(109.804 0 0)
(106.799 0 0)
(104.952 0 0)
(103.858 0 0)
(103.256 0 0)
(102.982 0 0)
(102.935 0 0)
(103.05 0 0)
(103.285 0 0)
(103.611 0 0)
(104.009 0 0)
(104.463 0 0)
(104.963 0 0)
(105.501 0 0)
(106.07 0 0)
(106.665 0 0)
(107.283 0 0)
(107.921 0 0)
(108.574 0 0)
(109.241 0 0)
(109.921 0 0)
(110.61 0 0)
(111.309 0 0)
(112.016 0 0)
(112.729 0 0)
(113.448 0 0)
(114.172 0 0)
(114.9 0 0)
(115.632 0 0)
(116.367 0 0)
(117.103 0 0)
(117.844 0 0)
(118.578 0 0)
(119.342 0 0)
(120.014 0 0)
(120.978 0 0)
(266.96 0 0)
(265.767 0 0)
(264.541 0 0)
(263.281 0 0)
(261.985 0 0)
(260.653 0 0)
(259.283 0 0)
(257.874 0 0)
(256.423 0 0)
(254.929 0 0)
(253.39 0 0)
(251.804 0 0)
(250.169 0 0)
(248.483 0 0)
(246.741 0 0)
(244.943 0 0)
(243.083 0 0)
(241.159 0 0)
(239.166 0 0)
(237.1 0 0)
(234.955 0 0)
(232.725 0 0)
(230.403 0 0)
(227.981 0 0)
(225.45 0 0)
(222.798 0 0)
(220.012 0 0)
(217.076 0 0)
(213.969 0 0)
(210.667 0 0)
(207.136 0 0)
(203.334 0 0)
(199.203 0 0)
(194.663 0 0)
(189.581 0 0)
(183.683 0 0)
(176.467 0 0)
(167.32 0 0)
(156.069 0 0)
(143.612 0 0)
(131.714 0 0)
(121.925 0 0)
(114.79 0 0)
(110 0 0)
(106.939 0 0)
(105.042 0 0)
(103.904 0 0)
(103.262 0 0)
(102.953 0 0)
(102.874 0 0)
(102.959 0 0)
(103.165 0 0)
(103.464 0 0)
(103.835 0 0)
(104.263 0 0)
(104.738 0 0)
(105.251 0 0)
(105.795 0 0)
(106.367 0 0)
(106.961 0 0)
(107.574 0 0)
(108.204 0 0)
(108.849 0 0)
(109.505 0 0)
(110.172 0 0)
(110.848 0 0)
(111.533 0 0)
(112.224 0 0)
(112.92 0 0)
(113.622 0 0)
(114.329 0 0)
(115.038 0 0)
(115.752 0 0)
(116.466 0 0)
(117.186 0 0)
(117.899 0 0)
(118.641 0 0)
(119.294 0 0)
(120.228 0 0)
(265.836 0 0)
(264.646 0 0)
(263.424 0 0)
(262.169 0 0)
(260.878 0 0)
(259.552 0 0)
(258.188 0 0)
(256.785 0 0)
(255.341 0 0)
(253.855 0 0)
(252.325 0 0)
(250.749 0 0)
(249.124 0 0)
(247.448 0 0)
(245.718 0 0)
(243.931 0 0)
(242.085 0 0)
(240.175 0 0)
(238.197 0 0)
(236.146 0 0)
(234.018 0 0)
(231.806 0 0)
(229.503 0 0)
(227.102 0 0)
(224.593 0 0)
(221.964 0 0)
(219.204 0 0)
(216.295 0 0)
(213.218 0 0)
(209.947 0 0)
(206.452 0 0)
(202.688 0 0)
(198.6 0 0)
(194.109 0 0)
(189.082 0 0)
(183.252 0 0)
(176.131 0 0)
(167.122 0 0)
(156.049 0 0)
(143.761 0 0)
(131.97 0 0)
(122.208 0 0)
(115.044 0 0)
(110.201 0 0)
(107.085 0 0)
(105.137 0 0)
(103.955 0 0)
(103.276 0 0)
(102.932 0 0)
(102.821 0 0)
(102.877 0 0)
(103.055 0 0)
(103.327 0 0)
(103.671 0 0)
(104.074 0 0)
(104.524 0 0)
(105.013 0 0)
(105.533 0 0)
(106.081 0 0)
(106.652 0 0)
(107.243 0 0)
(107.85 0 0)
(108.471 0 0)
(109.106 0 0)
(109.751 0 0)
(110.405 0 0)
(111.067 0 0)
(111.736 0 0)
(112.412 0 0)
(113.092 0 0)
(113.777 0 0)
(114.466 0 0)
(115.158 0 0)
(115.851 0 0)
(116.55 0 0)
(117.242 0 0)
(117.962 0 0)
(118.598 0 0)
(119.503 0 0)
(264.719 0 0)
(263.534 0 0)
(262.316 0 0)
(261.066 0 0)
(259.781 0 0)
(258.46 0 0)
(257.103 0 0)
(255.707 0 0)
(254.271 0 0)
(252.793 0 0)
(251.272 0 0)
(249.705 0 0)
(248.09 0 0)
(246.425 0 0)
(244.707 0 0)
(242.933 0 0)
(241.1 0 0)
(239.204 0 0)
(237.241 0 0)
(235.206 0 0)
(233.095 0 0)
(230.901 0 0)
(228.617 0 0)
(226.236 0 0)
(223.749 0 0)
(221.144 0 0)
(218.408 0 0)
(215.526 0 0)
(212.478 0 0)
(209.239 0 0)
(205.778 0 0)
(202.053 0 0)
(198.007 0 0)
(193.563 0 0)
(188.591 0 0)
(182.829 0 0)
(175.801 0 0)
(166.929 0 0)
(156.029 0 0)
(143.909 0 0)
(132.226 0 0)
(122.492 0 0)
(115.3 0 0)
(110.407 0 0)
(107.235 0 0)
(105.238 0 0)
(104.013 0 0)
(103.295 0 0)
(102.918 0 0)
(102.776 0 0)
(102.803 0 0)
(102.953 0 0)
(103.199 0 0)
(103.518 0 0)
(103.896 0 0)
(104.321 0 0)
(104.786 0 0)
(105.284 0 0)
(105.808 0 0)
(106.357 0 0)
(106.925 0 0)
(107.51 0 0)
(108.109 0 0)
(108.722 0 0)
(109.345 0 0)
(109.978 0 0)
(110.619 0 0)
(111.267 0 0)
(111.921 0 0)
(112.58 0 0)
(113.245 0 0)
(113.912 0 0)
(114.584 0 0)
(115.257 0 0)
(115.935 0 0)
(116.607 0 0)
(117.306 0 0)
(117.924 0 0)
(118.801 0 0)
(263.611 0 0)
(262.43 0 0)
(261.218 0 0)
(259.972 0 0)
(258.693 0 0)
(257.379 0 0)
(256.029 0 0)
(254.64 0 0)
(253.212 0 0)
(251.743 0 0)
(250.231 0 0)
(248.674 0 0)
(247.07 0 0)
(245.415 0 0)
(243.709 0 0)
(241.948 0 0)
(240.128 0 0)
(238.246 0 0)
(236.297 0 0)
(234.279 0 0)
(232.184 0 0)
(230.008 0 0)
(227.744 0 0)
(225.383 0 0)
(222.917 0 0)
(220.335 0 0)
(217.625 0 0)
(214.769 0 0)
(211.75 0 0)
(208.543 0 0)
(205.116 0 0)
(201.428 0 0)
(197.424 0 0)
(193.028 0 0)
(188.109 0 0)
(182.413 0 0)
(175.478 0 0)
(166.74 0 0)
(156.011 0 0)
(144.057 0 0)
(132.481 0 0)
(122.778 0 0)
(115.56 0 0)
(110.616 0 0)
(107.391 0 0)
(105.345 0 0)
(104.077 0 0)
(103.322 0 0)
(102.911 0 0)
(102.738 0 0)
(102.736 0 0)
(102.86 0 0)
(103.08 0 0)
(103.374 0 0)
(103.728 0 0)
(104.129 0 0)
(104.571 0 0)
(105.046 0 0)
(105.548 0 0)
(106.074 0 0)
(106.62 0 0)
(107.183 0 0)
(107.762 0 0)
(108.353 0 0)
(108.955 0 0)
(109.567 0 0)
(110.187 0 0)
(110.814 0 0)
(111.448 0 0)
(112.087 0 0)
(112.731 0 0)
(113.378 0 0)
(114.03 0 0)
(114.683 0 0)
(115.341 0 0)
(115.993 0 0)
(116.672 0 0)
(117.272 0 0)
(118.122 0 0)
(262.512 0 0)
(261.336 0 0)
(260.129 0 0)
(258.889 0 0)
(257.616 0 0)
(256.309 0 0)
(254.966 0 0)
(253.585 0 0)
(252.165 0 0)
(250.705 0 0)
(249.202 0 0)
(247.655 0 0)
(246.061 0 0)
(244.419 0 0)
(242.724 0 0)
(240.975 0 0)
(239.169 0 0)
(237.301 0 0)
(235.368 0 0)
(233.365 0 0)
(231.287 0 0)
(229.129 0 0)
(226.884 0 0)
(224.543 0 0)
(222.099 0 0)
(219.54 0 0)
(216.854 0 0)
(214.025 0 0)
(211.034 0 0)
(207.858 0 0)
(204.465 0 0)
(200.814 0 0)
(196.851 0 0)
(192.501 0 0)
(187.636 0 0)
(182.006 0 0)
(175.161 0 0)
(166.554 0 0)
(155.993 0 0)
(144.203 0 0)
(132.735 0 0)
(123.064 0 0)
(115.823 0 0)
(110.83 0 0)
(107.552 0 0)
(105.457 0 0)
(104.146 0 0)
(103.354 0 0)
(102.91 0 0)
(102.708 0 0)
(102.678 0 0)
(102.775 0 0)
(102.969 0 0)
(103.239 0 0)
(103.569 0 0)
(103.948 0 0)
(104.367 0 0)
(104.819 0 0)
(105.299 0 0)
(105.804 0 0)
(106.328 0 0)
(106.871 0 0)
(107.428 0 0)
(107.998 0 0)
(108.58 0 0)
(109.171 0 0)
(109.771 0 0)
(110.378 0 0)
(110.992 0 0)
(111.611 0 0)
(112.235 0 0)
(112.863 0 0)
(113.495 0 0)
(114.129 0 0)
(114.767 0 0)
(115.4 0 0)
(116.059 0 0)
(116.642 0 0)
(117.465 0 0)
(261.422 0 0)
(260.251 0 0)
(259.05 0 0)
(257.816 0 0)
(256.55 0 0)
(255.25 0 0)
(253.914 0 0)
(252.542 0 0)
(251.131 0 0)
(249.679 0 0)
(248.186 0 0)
(246.649 0 0)
(245.066 0 0)
(243.435 0 0)
(241.752 0 0)
(240.016 0 0)
(238.223 0 0)
(236.369 0 0)
(234.451 0 0)
(232.464 0 0)
(230.404 0 0)
(228.263 0 0)
(226.037 0 0)
(223.716 0 0)
(221.293 0 0)
(218.757 0 0)
(216.096 0 0)
(213.293 0 0)
(210.33 0 0)
(207.184 0 0)
(203.825 0 0)
(200.21 0 0)
(196.289 0 0)
(191.984 0 0)
(187.172 0 0)
(181.606 0 0)
(174.851 0 0)
(166.372 0 0)
(155.976 0 0)
(144.348 0 0)
(132.989 0 0)
(123.352 0 0)
(116.088 0 0)
(111.048 0 0)
(107.717 0 0)
(105.574 0 0)
(104.221 0 0)
(103.392 0 0)
(102.916 0 0)
(102.684 0 0)
(102.626 0 0)
(102.698 0 0)
(102.867 0 0)
(103.113 0 0)
(103.42 0 0)
(103.776 0 0)
(104.173 0 0)
(104.604 0 0)
(105.063 0 0)
(105.546 0 0)
(106.05 0 0)
(106.571 0 0)
(107.108 0 0)
(107.658 0 0)
(108.219 0 0)
(108.791 0 0)
(109.371 0 0)
(109.959 0 0)
(110.553 0 0)
(111.153 0 0)
(111.757 0 0)
(112.366 0 0)
(112.979 0 0)
(113.593 0 0)
(114.213 0 0)
(114.827 0 0)
(115.466 0 0)
(116.033 0 0)
(116.83 0 0)
(260.342 0 0)
(259.177 0 0)
(257.981 0 0)
(256.755 0 0)
(255.495 0 0)
(254.202 0 0)
(252.875 0 0)
(251.51 0 0)
(250.108 0 0)
(248.666 0 0)
(247.183 0 0)
(245.656 0 0)
(244.084 0 0)
(242.464 0 0)
(240.794 0 0)
(239.07 0 0)
(237.291 0 0)
(235.451 0 0)
(233.548 0 0)
(231.577 0 0)
(229.533 0 0)
(227.41 0 0)
(225.203 0 0)
(222.902 0 0)
(220.501 0 0)
(217.987 0 0)
(215.35 0 0)
(212.573 0 0)
(209.638 0 0)
(206.522 0 0)
(203.195 0 0)
(199.617 0 0)
(195.736 0 0)
(191.477 0 0)
(186.716 0 0)
(181.214 0 0)
(174.547 0 0)
(166.195 0 0)
(155.96 0 0)
(144.493 0 0)
(133.241 0 0)
(123.64 0 0)
(116.356 0 0)
(111.269 0 0)
(107.887 0 0)
(105.696 0 0)
(104.302 0 0)
(103.437 0 0)
(102.928 0 0)
(102.667 0 0)
(102.582 0 0)
(102.628 0 0)
(102.774 0 0)
(102.996 0 0)
(103.28 0 0)
(103.614 0 0)
(103.989 0 0)
(104.399 0 0)
(104.837 0 0)
(105.299 0 0)
(105.783 0 0)
(106.284 0 0)
(106.801 0 0)
(107.332 0 0)
(107.873 0 0)
(108.426 0 0)
(108.986 0 0)
(109.555 0 0)
(110.13 0 0)
(110.711 0 0)
(111.297 0 0)
(111.887 0 0)
(112.481 0 0)
(113.077 0 0)
(113.678 0 0)
(114.274 0 0)
(114.893 0 0)
(115.445 0 0)
(116.216 0 0)
(259.273 0 0)
(258.113 0 0)
(256.924 0 0)
(255.704 0 0)
(254.452 0 0)
(253.167 0 0)
(251.847 0 0)
(250.491 0 0)
(249.098 0 0)
(247.665 0 0)
(246.192 0 0)
(244.676 0 0)
(243.114 0 0)
(241.506 0 0)
(239.848 0 0)
(238.138 0 0)
(236.371 0 0)
(234.546 0 0)
(232.658 0 0)
(230.703 0 0)
(228.676 0 0)
(226.571 0 0)
(224.382 0 0)
(222.101 0 0)
(219.721 0 0)
(217.23 0 0)
(214.616 0 0)
(211.865 0 0)
(208.958 0 0)
(205.872 0 0)
(202.577 0 0)
(199.035 0 0)
(195.193 0 0)
(190.978 0 0)
(186.268 0 0)
(180.829 0 0)
(174.248 0 0)
(166.021 0 0)
(155.945 0 0)
(144.636 0 0)
(133.493 0 0)
(123.928 0 0)
(116.626 0 0)
(111.494 0 0)
(108.061 0 0)
(105.823 0 0)
(104.387 0 0)
(103.486 0 0)
(102.946 0 0)
(102.656 0 0)
(102.545 0 0)
(102.566 0 0)
(102.688 0 0)
(102.888 0 0)
(103.149 0 0)
(103.462 0 0)
(103.816 0 0)
(104.204 0 0)
(104.622 0 0)
(105.065 0 0)
(105.528 0 0)
(106.01 0 0)
(106.507 0 0)
(107.018 0 0)
(107.541 0 0)
(108.074 0 0)
(108.616 0 0)
(109.166 0 0)
(109.723 0 0)
(110.285 0 0)
(110.853 0 0)
(111.425 0 0)
(112 0 0)
(112.578 0 0)
(113.161 0 0)
(113.739 0 0)
(114.34 0 0)
(114.876 0 0)
(115.623 0 0)
(258.213 0 0)
(257.06 0 0)
(255.878 0 0)
(254.665 0 0)
(253.42 0 0)
(252.143 0 0)
(250.831 0 0)
(249.484 0 0)
(248.1 0 0)
(246.677 0 0)
(245.214 0 0)
(243.708 0 0)
(242.158 0 0)
(240.562 0 0)
(238.916 0 0)
(237.218 0 0)
(235.466 0 0)
(233.655 0 0)
(231.782 0 0)
(229.842 0 0)
(227.832 0 0)
(225.744 0 0)
(223.574 0 0)
(221.313 0 0)
(218.953 0 0)
(216.484 0 0)
(213.894 0 0)
(211.168 0 0)
(208.289 0 0)
(205.232 0 0)
(201.97 0 0)
(198.463 0 0)
(194.66 0 0)
(190.489 0 0)
(185.829 0 0)
(180.452 0 0)
(173.956 0 0)
(165.85 0 0)
(155.931 0 0)
(144.778 0 0)
(133.743 0 0)
(124.218 0 0)
(116.898 0 0)
(111.722 0 0)
(108.239 0 0)
(105.954 0 0)
(104.478 0 0)
(103.541 0 0)
(102.97 0 0)
(102.652 0 0)
(102.515 0 0)
(102.511 0 0)
(102.61 0 0)
(102.787 0 0)
(103.027 0 0)
(103.318 0 0)
(103.652 0 0)
(104.02 0 0)
(104.418 0 0)
(104.841 0 0)
(105.285 0 0)
(105.748 0 0)
(106.226 0 0)
(106.718 0 0)
(107.223 0 0)
(107.737 0 0)
(108.261 0 0)
(108.793 0 0)
(109.331 0 0)
(109.875 0 0)
(110.425 0 0)
(110.979 0 0)
(111.537 0 0)
(112.097 0 0)
(112.662 0 0)
(113.223 0 0)
(113.806 0 0)
(114.327 0 0)
(115.05 0 0)
(257.165 0 0)
(256.018 0 0)
(254.843 0 0)
(253.637 0 0)
(252.4 0 0)
(251.131 0 0)
(249.828 0 0)
(248.49 0 0)
(247.115 0 0)
(245.702 0 0)
(244.249 0 0)
(242.754 0 0)
(241.215 0 0)
(239.63 0 0)
(237.997 0 0)
(236.312 0 0)
(234.573 0 0)
(232.777 0 0)
(230.919 0 0)
(228.995 0 0)
(227.001 0 0)
(224.931 0 0)
(222.779 0 0)
(220.538 0 0)
(218.199 0 0)
(215.752 0 0)
(213.185 0 0)
(210.484 0 0)
(207.631 0 0)
(204.604 0 0)
(201.373 0 0)
(197.9 0 0)
(194.136 0 0)
(190.008 0 0)
(185.398 0 0)
(180.082 0 0)
(173.67 0 0)
(165.684 0 0)
(155.917 0 0)
(144.918 0 0)
(133.993 0 0)
(124.507 0 0)
(117.173 0 0)
(111.954 0 0)
(108.421 0 0)
(106.09 0 0)
(104.573 0 0)
(103.602 0 0)
(102.999 0 0)
(102.653 0 0)
(102.49 0 0)
(102.463 0 0)
(102.539 0 0)
(102.694 0 0)
(102.913 0 0)
(103.184 0 0)
(103.497 0 0)
(103.845 0 0)
(104.224 0 0)
(104.628 0 0)
(105.053 0 0)
(105.497 0 0)
(105.957 0 0)
(106.431 0 0)
(106.917 0 0)
(107.414 0 0)
(107.919 0 0)
(108.433 0 0)
(108.954 0 0)
(109.481 0 0)
(110.013 0 0)
(110.55 0 0)
(111.09 0 0)
(111.634 0 0)
(112.181 0 0)
(112.726 0 0)
(113.291 0 0)
(113.796 0 0)
(114.496 0 0)
(256.128 0 0)
(254.988 0 0)
(253.82 0 0)
(252.622 0 0)
(251.393 0 0)
(250.132 0 0)
(248.837 0 0)
(247.508 0 0)
(246.143 0 0)
(244.74 0 0)
(243.297 0 0)
(241.813 0 0)
(240.285 0 0)
(238.713 0 0)
(237.092 0 0)
(235.42 0 0)
(233.694 0 0)
(231.912 0 0)
(230.069 0 0)
(228.161 0 0)
(226.183 0 0)
(224.131 0 0)
(221.997 0 0)
(219.775 0 0)
(217.456 0 0)
(215.031 0 0)
(212.488 0 0)
(209.811 0 0)
(206.985 0 0)
(203.986 0 0)
(200.787 0 0)
(197.348 0 0)
(193.622 0 0)
(189.537 0 0)
(184.975 0 0)
(179.719 0 0)
(173.39 0 0)
(165.521 0 0)
(155.904 0 0)
(145.058 0 0)
(134.24 0 0)
(124.796 0 0)
(117.449 0 0)
(112.189 0 0)
(108.607 0 0)
(106.23 0 0)
(104.673 0 0)
(103.667 0 0)
(103.034 0 0)
(102.66 0 0)
(102.473 0 0)
(102.422 0 0)
(102.475 0 0)
(102.609 0 0)
(102.807 0 0)
(103.058 0 0)
(103.351 0 0)
(103.68 0 0)
(104.04 0 0)
(104.425 0 0)
(104.832 0 0)
(105.257 0 0)
(105.699 0 0)
(106.155 0 0)
(106.624 0 0)
(107.103 0 0)
(107.591 0 0)
(108.088 0 0)
(108.592 0 0)
(109.101 0 0)
(109.617 0 0)
(110.136 0 0)
(110.66 0 0)
(111.186 0 0)
(111.718 0 0)
(112.245 0 0)
(112.793 0 0)
(113.284 0 0)
(113.961 0 0)
(255.102 0 0)
(253.969 0 0)
(252.809 0 0)
(251.618 0 0)
(250.398 0 0)
(249.145 0 0)
(247.859 0 0)
(246.539 0 0)
(245.184 0 0)
(243.79 0 0)
(242.358 0 0)
(240.885 0 0)
(239.369 0 0)
(237.808 0 0)
(236.199 0 0)
(234.541 0 0)
(232.829 0 0)
(231.061 0 0)
(229.232 0 0)
(227.34 0 0)
(225.379 0 0)
(223.343 0 0)
(221.228 0 0)
(219.025 0 0)
(216.726 0 0)
(214.323 0 0)
(211.802 0 0)
(209.15 0 0)
(206.35 0 0)
(203.38 0 0)
(200.211 0 0)
(196.806 0 0)
(193.117 0 0)
(189.074 0 0)
(184.561 0 0)
(179.364 0 0)
(173.115 0 0)
(165.361 0 0)
(155.893 0 0)
(145.196 0 0)