/*--------------------------------*- C++ -*----------------------------------*\
| =========                 |                                                 |
| \\      /  F ield         | OpenFOAM: The Open Source CFD Toolbox           |
|  \\    /   O peration     | Version:  2312                                  |
|   \\  /    A nd           | Website:  www.openfoam.com                      |
|    \\/     M anipulation  |                                                 |
\*---------------------------------------------------------------------------*/
FoamFile
{
    version     2.0;
    format      ascii;
    arch        "LSB;label=32;scalar=64";
    class       volScalarField;
    location    "0.55";
    object      wave;
}
// * * * * * * * * * * * * * * * * * * * * * * * * * * * * * * * * * * * * * //

dimensions      [0 0 0 0 0 0 0];

internalField   nonuniform List<scalar> 
100
(
0.588606
0.708944
0.811471
0.893613
0.953305
0.989049
0.999945
0.98572
0.946731
0.883959
0.79898
0.693928
0.571444
0.434603
0.286845
0.13188
-0.0263981
-0.184013
-0.337005
-0.48153
-0.613959
-0.730963
-0.829604
-0.907404
-0.962408
-0.993233
-0.999107
-0.979881
-0.936038
-0.868679
-0.779498
-0.670733
-0.545119
-0.40581
-0.256306
-0.100363
0.0581016
0.215106
0.366707
0.509095
0.638694
0.752247
0.846902
0.920281
0.970541
0.996418
0.997263
0.973055
0.924401
0.852525
0.759231
0.646863
0.518245
0.376607
0.225509
0.0687444
-0.0897467
-0.245983
-0.39604
-0.536147
-0.662786
-0.772773
-0.863347
-0.932232
-0.977696
-0.998599
-0.994415
-0.965249
-0.911834
-0.835512
-0.738199
-0.622342
-0.490849
-0.347026
-0.194484
-0.037057
0.121301
0.276612
0.424974
0.56266
0.68621
0.792521
0.878923
0.943243
0.983868
0.999775
0.990566
0.956472
0.898349
0.817657
0.716424
0.597193
0.46296
0.317095
0.163264
0.00533227
-0.152734
-0.306963
-0.45348
-0.588606
)
;

boundaryField
{
    movingWall
    {
        type            calculated;
        value           uniform 0;
    }
    fixedWalls
    {
        type            calculated;
        value           uniform 0;
    }
    frontAndBack
    {
        type            empty;
    }
}


// ************************************************************************* //
