/*--------------------------------*- C++ -*----------------------------------*\
| =========                 |                                                 |
| \\      /  F ield         | OpenFOAM: The Open Source CFD Toolbox           |
|  \\    /   O peration     | Version:  2312                                  |
|   \\  /    A nd           | Website:  www.openfoam.com                      |
|    \\/     M anipulation  |                                                 |
\*---------------------------------------------------------------------------*/
FoamFile
{
    version     2.0;
    format      ascii;
    arch        "LSB;label=32;scalar=64";
    class       volVectorField;
    location    "0.117";
    object      U;
}
// * * * * * * * * * * * * * * * * * * * * * * * * * * * * * * * * * * * * * //

dimensions      [0 1 -1 0 0 0 0];

internalField   nonuniform List<vector> 
31205
(
(119.999 0 0)
(117.05 0 0)
(114.211 0 0)
(111.53 0 0)
(109.061 0 0)
(106.861 0 0)
(104.978 0 0)
(103.449 0 0)
(102.295 0 0)
(101.517 0 0)
(101.099 0 0)
(101.015 0 0)
(101.229 0 0)
(101.705 0 0)
(102.405 0 0)
(103.296 0 0)
(104.345 0 0)
(105.527 0 0)
(106.818 0 0)
(108.198 0 0)
(109.652 0 0)
(111.165 0 0)
(112.727 0 0)
(114.328 0 0)
(115.96 0 0)
(117.617 0 0)
(119.292 0 0)
(120.982 0 0)
(122.683 0 0)
(124.392 0 0)
(126.106 0 0)
(127.822 0 0)
(129.539 0 0)
(131.255 0 0)
(132.969 0 0)
(134.679 0 0)
(136.386 0 0)
(138.087 0 0)
(139.782 0 0)
(141.471 0 0)
(143.152 0 0)
(144.827 0 0)
(146.493 0 0)
(148.152 0 0)
(149.802 0 0)
(151.443 0 0)
(153.076 0 0)
(154.7 0 0)
(156.315 0 0)
(157.921 0 0)
(159.517 0 0)
(161.105 0 0)
(162.683 0 0)
(164.252 0 0)
(165.811 0 0)
(167.362 0 0)
(168.902 0 0)
(170.434 0 0)
(171.956 0 0)
(173.469 0 0)
(174.973 0 0)
(176.468 0 0)
(177.953 0 0)
(179.43 0 0)
(180.897 0 0)
(182.355 0 0)
(183.804 0 0)
(185.244 0 0)
(186.675 0 0)
(188.097 0 0)
(189.511 0 0)
(190.915 0 0)
(192.311 0 0)
(193.697 0 0)
(195.08 0 0)
(196.434 0 0)
(197.844 0 0)
(199.048 0 0)
(200.848 0 0)
(116.877 0 0)
(114.128 0 0)
(111.528 0 0)
(109.128 0 0)
(106.978 0 0)
(105.124 0 0)
(103.601 0 0)
(102.43 0 0)
(101.614 0 0)
(101.141 0 0)
(100.989 0 0)
(101.127 0 0)
(101.522 0 0)
(102.138 0 0)
(102.944 0 0)
(103.909 0 0)
(105.009 0 0)
(106.22 0 0)
(107.523 0 0)
(108.901 0 0)
(110.343 0 0)
(111.835 0 0)
(113.368 0 0)
(114.936 0 0)
(116.529 0 0)
(118.144 0 0)
(119.776 0 0)
(121.42 0 0)
(123.073 0 0)
(124.733 0 0)
(126.397 0 0)
(128.063 0 0)
(129.73 0 0)
(131.396 0 0)
(133.059 0 0)
(134.719 0 0)
(136.375 0 0)
(138.027 0 0)
(139.672 0 0)
(141.312 0 0)
(142.945 0 0)
(144.571 0 0)
(146.189 0 0)
(147.801 0 0)
(149.404 0 0)
(150.999 0 0)
(152.586 0 0)
(154.165 0 0)
(155.735 0 0)
(157.297 0 0)
(158.85 0 0)
(160.394 0 0)
(161.93 0 0)
(163.456 0 0)
(164.974 0 0)
(166.483 0 0)
(167.984 0 0)
(169.475 0 0)
(170.958 0 0)
(172.432 0 0)
(173.897 0 0)
(175.354 0 0)
(176.801 0 0)
(178.24 0 0)
(179.671 0 0)
(181.093 0 0)
(182.506 0 0)
(183.91 0 0)
(185.307 0 0)
(186.694 0 0)
(188.073 0 0)
(189.444 0 0)
(190.807 0 0)
(192.16 0 0)
(193.511 0 0)
(194.833 0 0)
(196.209 0 0)
(197.388 0 0)
(199.138 0 0)
(113.838 0 0)
(111.336 0 0)
(109.024 0 0)
(106.949 0 0)
(105.152 0 0)
(103.666 0 0)
(102.509 0 0)
(101.686 0 0)
(101.188 0 0)
(100.995 0 0)
(101.08 0 0)
(101.413 0 0)
(101.961 0 0)
(102.696 0 0)
(103.588 0 0)
(104.614 0 0)
(105.752 0 0)
(106.983 0 0)
(108.292 0 0)
(109.664 0 0)
(111.089 0 0)
(112.558 0 0)
(114.061 0 0)
(115.593 0 0)
(117.149 0 0)
(118.722 0 0)
(120.31 0 0)
(121.908 0 0)
(123.514 0 0)
(125.126 0 0)
(126.741 0 0)
(128.358 0 0)
(129.976 0 0)
(131.592 0 0)
(133.206 0 0)
(134.816 0 0)
(136.423 0 0)
(138.025 0 0)
(139.622 0 0)
(141.214 0 0)
(142.799 0 0)
(144.377 0 0)
(145.949 0 0)
(147.514 0 0)
(149.071 0 0)
(150.621 0 0)
(152.163 0 0)
(153.697 0 0)
(155.223 0 0)
(156.741 0 0)
(158.251 0 0)
(159.753 0 0)
(161.247 0 0)
(162.732 0 0)
(164.209 0 0)
(165.677 0 0)
(167.138 0 0)
(168.59 0 0)
(170.033 0 0)
(171.469 0 0)
(172.896 0 0)
(174.315 0 0)
(175.725 0 0)
(177.127 0 0)
(178.521 0 0)
(179.907 0 0)
(181.285 0 0)
(182.654 0 0)
(184.016 0 0)
(185.369 0 0)
(186.715 0 0)
(188.052 0 0)
(189.382 0 0)
(190.702 0 0)
(192.02 0 0)
(193.311 0 0)
(194.654 0 0)
(195.808 0 0)
(197.509 0 0)
(111.026 0 0)
(108.811 0 0)
(106.822 0 0)
(105.096 0 0)
(103.663 0 0)
(102.538 0 0)
(101.728 0 0)
(101.223 0 0)
(101.007 0 0)
(101.056 0 0)
(101.341 0 0)
(101.836 0 0)
(102.51 0 0)
(103.34 0 0)
(104.301 0 0)
(105.373 0 0)
(106.538 0 0)
(107.781 0 0)
(109.088 0 0)
(110.45 0 0)
(111.856 0 0)
(113.299 0 0)
(114.772 0 0)
(116.269 0 0)
(117.786 0 0)
(119.318 0 0)
(120.863 0 0)
(122.416 0 0)
(123.977 0 0)
(125.542 0 0)
(127.11 0 0)
(128.679 0 0)
(130.248 0 0)
(131.816 0 0)
(133.381 0 0)
(134.944 0 0)
(136.503 0 0)
(138.058 0 0)
(139.607 0 0)
(141.152 0 0)
(142.69 0 0)
(144.223 0 0)
(145.748 0 0)
(147.268 0 0)
(148.78 0 0)
(150.285 0 0)
(151.783 0 0)
(153.274 0 0)
(154.757 0 0)
(156.233 0 0)
(157.701 0 0)
(159.161 0 0)
(160.614 0 0)
(162.058 0 0)
(163.495 0 0)
(164.924 0 0)
(166.345 0 0)
(167.758 0 0)
(169.163 0 0)
(170.561 0 0)
(171.95 0 0)
(173.332 0 0)
(174.706 0 0)
(176.072 0 0)
(177.43 0 0)
(178.78 0 0)
(180.123 0 0)
(181.458 0 0)
(182.785 0 0)
(184.105 0 0)
(185.417 0 0)
(186.721 0 0)
(188.018 0 0)
(189.306 0 0)
(190.593 0 0)
(191.853 0 0)
(193.163 0 0)
(194.29 0 0)
(195.947 0 0)
(108.525 0 0)
(106.628 0 0)
(104.981 0 0)
(103.61 0 0)
(102.529 0 0)
(101.742 0 0)
(101.244 0 0)
(101.018 0 0)
(101.042 0 0)
(101.292 0 0)
(101.742 0 0)
(102.366 0 0)
(103.141 0 0)
(104.044 0 0)
(105.056 0 0)
(106.16 0 0)
(107.342 0 0)
(108.589 0 0)
(109.891 0 0)
(111.238 0 0)
(112.622 0 0)
(114.038 0 0)
(115.479 0 0)
(116.94 0 0)
(118.419 0 0)
(119.911 0 0)
(121.413 0 0)
(122.923 0 0)
(124.439 0 0)
(125.958 0 0)
(127.48 0 0)
(129.003 0 0)
(130.525 0 0)
(132.046 0 0)
(133.565 0 0)
(135.081 0 0)
(136.594 0 0)
(138.102 0 0)
(139.606 0 0)
(141.105 0 0)
(142.598 0 0)
(144.085 0 0)
(145.567 0 0)
(147.042 0 0)
(148.511 0 0)
(149.973 0 0)
(151.428 0 0)
(152.876 0 0)
(154.318 0 0)
(155.752 0 0)
(157.179 0 0)
(158.598 0 0)
(160.01 0 0)
(161.415 0 0)
(162.813 0 0)
(164.203 0 0)
(165.586 0 0)
(166.961 0 0)
(168.328 0 0)
(169.689 0 0)
(171.041 0 0)
(172.387 0 0)
(173.725 0 0)
(175.055 0 0)
(176.378 0 0)
(177.694 0 0)
(179.002 0 0)
(180.303 0 0)
(181.597 0 0)
(182.883 0 0)
(184.162 0 0)
(185.434 0 0)
(186.699 0 0)
(187.955 0 0)
(189.21 0 0)
(190.439 0 0)
(191.717 0 0)
(192.818 0 0)
(194.433 0 0)
(106.385 0 0)
(104.821 0 0)
(103.518 0 0)
(102.488 0 0)
(101.735 0 0)
(101.252 0 0)
(101.025 0 0)
(101.035 0 0)
(101.258 0 0)
(101.673 0 0)
(102.254 0 0)
(102.98 0 0)
(103.832 0 0)
(104.789 0 0)
(105.838 0 0)
(106.963 0 0)
(108.153 0 0)
(109.398 0 0)
(110.688 0 0)
(112.017 0 0)
(113.377 0 0)
(114.764 0 0)
(116.173 0 0)
(117.599 0 0)
(119.039 0 0)
(120.491 0 0)
(121.952 0 0)
(123.419 0 0)
(124.891 0 0)
(126.366 0 0)
(127.843 0 0)
(129.321 0 0)
(130.798 0 0)
(132.274 0 0)
(133.748 0 0)
(135.219 0 0)
(136.686 0 0)
(138.15 0 0)
(139.609 0 0)
(141.063 0 0)
(142.513 0 0)
(143.957 0 0)
(145.395 0 0)
(146.827 0 0)
(148.253 0 0)
(149.673 0 0)
(151.087 0 0)
(152.494 0 0)
(153.895 0 0)
(155.288 0 0)
(156.675 0 0)
(158.055 0 0)
(159.428 0 0)
(160.794 0 0)
(162.154 0 0)
(163.506 0 0)
(164.851 0 0)
(166.189 0 0)
(167.52 0 0)
(168.844 0 0)
(170.161 0 0)
(171.47 0 0)
(172.773 0 0)
(174.069 0 0)
(175.357 0 0)
(176.639 0 0)
(177.913 0 0)
(179.181 0 0)
(180.442 0 0)
(181.695 0 0)
(182.942 0 0)
(184.182 0 0)
(185.415 0 0)
(186.64 0 0)
(187.863 0 0)
(189.063 0 0)
(190.309 0 0)
(191.383 0 0)
(192.958 0 0)
(104.626 0 0)
(103.396 0 0)
(102.423 0 0)
(101.71 0 0)
(101.25 0 0)
(101.03 0 0)
(101.033 0 0)
(101.238 0 0)
(101.624 0 0)
(102.169 0 0)
(102.854 0 0)
(103.659 0 0)
(104.567 0 0)
(105.564 0 0)
(106.637 0 0)
(107.774 0 0)
(108.964 0 0)
(110.201 0 0)
(111.476 0 0)
(112.784 0 0)
(114.118 0 0)
(115.475 0 0)
(116.851 0 0)
(118.241 0 0)
(119.644 0 0)
(121.056 0 0)
(122.476 0 0)
(123.902 0 0)
(125.331 0 0)
(126.763 0 0)
(128.197 0 0)
(129.631 0 0)
(131.064 0 0)
(132.496 0 0)
(133.926 0 0)
(135.353 0 0)
(136.777 0 0)
(138.197 0 0)
(139.613 0 0)
(141.024 0 0)
(142.431 0 0)
(143.833 0 0)
(145.229 0 0)
(146.62 0 0)
(148.005 0 0)
(149.384 0 0)
(150.757 0 0)
(152.124 0 0)
(153.485 0 0)
(154.839 0 0)
(156.187 0 0)
(157.528 0 0)
(158.863 0 0)
(160.192 0 0)
(161.513 0 0)
(162.829 0 0)
(164.137 0 0)
(165.439 0 0)
(166.734 0 0)
(168.022 0 0)
(169.304 0 0)
(170.579 0 0)
(171.847 0 0)
(173.109 0 0)
(174.364 0 0)
(175.612 0 0)
(176.853 0 0)
(178.088 0 0)
(179.316 0 0)
(180.538 0 0)
(181.753 0 0)
(182.961 0 0)
(184.164 0 0)
(185.357 0 0)
(186.55 0 0)
(187.72 0 0)
(188.935 0 0)
(189.984 0 0)
(191.518 0 0)
(103.249 0 0)
(102.338 0 0)
(101.67 0 0)
(101.239 0 0)
(101.033 0 0)
(101.035 0 0)
(101.229 0 0)
(101.593 0 0)
(102.109 0 0)
(102.757 0 0)
(103.522 0 0)
(104.386 0 0)
(105.336 0 0)
(106.359 0 0)
(107.446 0 0)
(108.586 0 0)
(109.772 0 0)
(110.996 0 0)
(112.253 0 0)
(113.537 0 0)
(114.844 0 0)
(116.17 0 0)
(117.512 0 0)
(118.867 0 0)
(120.233 0 0)
(121.606 0 0)
(122.986 0 0)
(124.371 0 0)
(125.759 0 0)
(127.149 0 0)
(128.54 0 0)
(129.932 0 0)
(131.322 0 0)
(132.712 0 0)
(134.099 0 0)
(135.483 0 0)
(136.865 0 0)
(138.243 0 0)
(139.617 0 0)
(140.987 0 0)
(142.352 0 0)
(143.713 0 0)
(145.068 0 0)
(146.418 0 0)
(147.763 0 0)
(149.103 0 0)
(150.436 0 0)
(151.764 0 0)
(153.086 0 0)
(154.403 0 0)
(155.713 0 0)
(157.017 0 0)
(158.314 0 0)
(159.606 0 0)
(160.891 0 0)
(162.17 0 0)
(163.443 0 0)
(164.709 0 0)
(165.969 0 0)
(167.223 0 0)
(168.47 0 0)
(169.711 0 0)
(170.946 0 0)
(172.174 0 0)
(173.396 0 0)
(174.611 0 0)
(175.82 0 0)
(177.023 0 0)
(178.22 0 0)
(179.41 0 0)
(180.594 0 0)
(181.771 0 0)
(182.943 0 0)
(184.107 0 0)
(185.27 0 0)
(186.41 0 0)
(187.594 0 0)
(188.617 0 0)
(190.113 0 0)
(102.235 0 0)
(101.617 0 0)
(101.22 0 0)
(101.034 0 0)
(101.043 0 0)
(101.23 0 0)
(101.579 0 0)
(102.07 0 0)
(102.688 0 0)
(103.416 0 0)
(104.24 0 0)
(105.147 0 0)
(106.126 0 0)
(107.166 0 0)
(108.258 0 0)
(109.396 0 0)
(110.572 0 0)
(111.78 0 0)
(113.016 0 0)
(114.275 0 0)
(115.554 0 0)
(116.849 0 0)
(118.157 0 0)
(119.477 0 0)
(120.805 0 0)
(122.14 0 0)
(123.481 0 0)
(124.826 0 0)
(126.174 0 0)
(127.523 0 0)
(128.873 0 0)
(130.224 0 0)
(131.573 0 0)
(132.921 0 0)
(134.267 0 0)
(135.61 0 0)
(136.95 0 0)
(138.288 0 0)
(139.621 0 0)
(140.95 0 0)
(142.275 0 0)
(143.596 0 0)
(144.912 0 0)
(146.223 0 0)
(147.529 0 0)
(148.83 0 0)
(150.125 0 0)
(151.415 0 0)
(152.7 0 0)
(153.979 0 0)
(155.252 0 0)
(156.519 0 0)
(157.781 0 0)
(159.036 0 0)
(160.286 0 0)
(161.53 0 0)
(162.768 0 0)
(163.999 0 0)
(165.225 0 0)
(166.445 0 0)
(167.659 0 0)
(168.867 0 0)
(170.068 0 0)
(171.264 0 0)
(172.453 0 0)
(173.637 0 0)
(174.814 0 0)
(175.986 0 0)
(177.151 0 0)
(178.31 0 0)
(179.464 0 0)
(180.611 0 0)
(181.753 0 0)
(182.887 0 0)
(184.02 0 0)
(185.132 0 0)
(186.286 0 0)
(187.284 0 0)
(188.741 0 0)
(101.555 0 0)
(101.197 0 0)
(101.034 0 0)
(101.054 0 0)
(101.241 0 0)
(101.579 0 0)
(102.051 0 0)
(102.643 0 0)
(103.34 0 0)
(104.129 0 0)
(104.997 0 0)
(105.934 0 0)
(106.93 0 0)
(107.978 0 0)
(109.07 0 0)
(110.2 0 0)
(111.362 0 0)
(112.552 0 0)
(113.765 0 0)
(114.998 0 0)
(116.247 0 0)
(117.511 0 0)
(118.786 0 0)
(120.07 0 0)
(121.362 0 0)
(122.66 0 0)
(123.962 0 0)
(125.268 0 0)
(126.577 0 0)
(127.886 0 0)
(129.197 0 0)
(130.507 0 0)
(131.816 0 0)
(133.124 0 0)
(134.429 0 0)
(135.733 0 0)
(137.033 0 0)
(138.331 0 0)
(139.625 0 0)
(140.915 0 0)
(142.201 0 0)
(143.483 0 0)
(144.761 0 0)
(146.034 0 0)
(147.302 0 0)
(148.565 0 0)
(149.823 0 0)
(151.076 0 0)
(152.324 0 0)
(153.567 0 0)
(154.804 0 0)
(156.036 0 0)
(157.262 0 0)
(158.483 0 0)
(159.698 0 0)
(160.907 0 0)
(162.111 0 0)
(163.309 0 0)
(164.502 0 0)
(165.688 0 0)
(166.869 0 0)
(168.044 0 0)
(169.214 0 0)
(170.378 0 0)
(171.536 0 0)
(172.688 0 0)
(173.834 0 0)
(174.975 0 0)
(176.11 0 0)
(177.239 0 0)
(178.362 0 0)
(179.48 0 0)
(180.592 0 0)
(181.697 0 0)
(182.802 0 0)
(183.885 0 0)
(185.01 0 0)
(185.983 0 0)
(187.402 0 0)
(101.17 0 0)
(101.035 0 0)
(101.07 0 0)
(101.261 0 0)
(101.593 0 0)
(102.051 0 0)
(102.621 0 0)
(103.291 0 0)
(104.048 0 0)
(104.881 0 0)
(105.78 0 0)
(106.736 0 0)
(107.742 0 0)
(108.792 0 0)
(109.878 0 0)
(110.996 0 0)
(112.141 0 0)
(113.31 0 0)
(114.499 0 0)
(115.704 0 0)
(116.924 0 0)
(118.156 0 0)
(119.397 0 0)
(120.647 0 0)
(121.903 0 0)
(123.164 0 0)
(124.43 0 0)
(125.698 0 0)
(126.968 0 0)
(128.239 0 0)
(129.51 0 0)
(130.782 0 0)
(132.052 0 0)
(133.321 0 0)
(134.588 0 0)
(135.852 0 0)
(137.114 0 0)
(138.373 0 0)
(139.629 0 0)
(140.881 0 0)
(142.129 0 0)
(143.374 0 0)
(144.614 0 0)
(145.85 0 0)
(147.081 0 0)
(148.308 0 0)
(149.53 0 0)
(150.747 0 0)
(151.96 0 0)
(153.167 0 0)
(154.369 0 0)
(155.566 0 0)
(156.758 0 0)
(157.945 0 0)
(159.126 0 0)
(160.302 0 0)
(161.473 0 0)
(162.638 0 0)
(163.798 0 0)
(164.952 0 0)
(166.101 0 0)
(167.245 0 0)
(168.383 0 0)
(169.515 0 0)
(170.642 0 0)
(171.764 0 0)
(172.88 0 0)
(173.99 0 0)
(175.095 0 0)
(176.195 0 0)
(177.289 0 0)
(178.377 0 0)
(179.461 0 0)
(180.538 0 0)
(181.613 0 0)
(182.669 0 0)
(183.765 0 0)
(184.714 0 0)
(186.096 0 0)
(101.039 0 0)
(101.092 0 0)
(101.29 0 0)
(101.62 0 0)
(102.067 0 0)
(102.62 0 0)
(103.267 0 0)
(103.995 0 0)
(104.796 0 0)
(105.661 0 0)
(106.58 0 0)
(107.547 0 0)
(108.556 0 0)
(109.601 0 0)
(110.678 0 0)
(111.781 0 0)
(112.907 0 0)
(114.054 0 0)
(115.217 0 0)
(116.395 0 0)
(117.584 0 0)
(118.784 0 0)
(119.993 0 0)
(121.208 0 0)
(122.429 0 0)
(123.655 0 0)
(124.884 0 0)
(126.115 0 0)
(127.348 0 0)
(128.581 0 0)
(129.815 0 0)
(131.048 0 0)
(132.281 0 0)
(133.512 0 0)
(134.741 0 0)
(135.968 0 0)
(137.193 0 0)
(138.414 0 0)
(139.633 0 0)
(140.848 0 0)
(142.06 0 0)
(143.268 0 0)
(144.472 0 0)
(145.671 0 0)
(146.867 0 0)
(148.059 0 0)
(149.245 0 0)
(150.428 0 0)
(151.606 0 0)
(152.779 0 0)
(153.947 0 0)
(155.11 0 0)
(156.268 0 0)
(157.422 0 0)
(158.57 0 0)
(159.714 0 0)
(160.852 0 0)
(161.985 0 0)
(163.113 0 0)
(164.236 0 0)
(165.354 0 0)
(166.466 0 0)
(167.574 0 0)
(168.676 0 0)
(169.772 0 0)
(170.864 0 0)
(171.95 0 0)
(173.031 0 0)
(174.107 0 0)
(175.178 0 0)
(176.243 0 0)
(177.303 0 0)
(178.359 0 0)
(179.407 0 0)
(180.455 0 0)
(181.484 0 0)
(182.551 0 0)
(183.476 0 0)
(184.821 0 0)
(101.121 0 0)
(101.329 0 0)
(101.66 0 0)
(102.1 0 0)
(102.639 0 0)
(103.265 0 0)
(103.969 0 0)
(104.742 0 0)
(105.574 0 0)
(106.459 0 0)
(107.39 0 0)
(108.362 0 0)
(109.368 0 0)
(110.405 0 0)
(111.468 0 0)
(112.554 0 0)
(113.659 0 0)
(114.782 0 0)
(115.919 0 0)
(117.068 0 0)
(118.228 0 0)
(119.397 0 0)
(120.572 0 0)
(121.754 0 0)
(122.941 0 0)
(124.131 0 0)
(125.324 0 0)
(126.52 0 0)
(127.716 0 0)
(128.913 0 0)
(130.111 0 0)
(131.307 0 0)
(132.503 0 0)
(133.697 0 0)
(134.89 0 0)
(136.081 0 0)
(137.269 0 0)
(138.454 0 0)
(139.637 0 0)
(140.816 0 0)
(141.992 0 0)
(143.165 0 0)
(144.334 0 0)
(145.499 0 0)
(146.66 0 0)
(147.817 0 0)
(148.969 0 0)
(150.118 0 0)
(151.262 0 0)
(152.401 0 0)
(153.537 0 0)
(154.667 0 0)
(155.793 0 0)
(156.914 0 0)
(158.03 0 0)
(159.142 0 0)
(160.249 0 0)
(161.351 0 0)
(162.448 0 0)
(163.54 0 0)
(164.627 0 0)
(165.709 0 0)
(166.786 0 0)
(167.859 0 0)
(168.926 0 0)
(169.988 0 0)
(171.046 0 0)
(172.098 0 0)
(173.145 0 0)
(174.187 0 0)
(175.225 0 0)
(176.257 0 0)
(177.285 0 0)
(178.306 0 0)
(179.326 0 0)
(180.328 0 0)
(181.368 0 0)
(182.269 0 0)
(183.578 0 0)
(101.378 0 0)
(101.712 0 0)
(102.149 0 0)
(102.676 0 0)
(103.286 0 0)
(103.968 0 0)
(104.715 0 0)
(105.518 0 0)
(106.372 0 0)
(107.269 0 0)
(108.205 0 0)
(109.175 0 0)
(110.174 0 0)
(111.199 0 0)
(112.246 0 0)
(113.313 0 0)
(114.396 0 0)
(115.494 0 0)
(116.604 0 0)
(117.725 0 0)
(118.855 0 0)
(119.992 0 0)
(121.136 0 0)
(122.285 0 0)
(123.438 0 0)
(124.594 0 0)
(125.753 0 0)
(126.913 0 0)
(128.074 0 0)
(129.236 0 0)
(130.397 0 0)
(131.559 0 0)
(132.719 0 0)
(133.878 0 0)
(135.035 0 0)
(136.19 0 0)
(137.343 0 0)
(138.493 0 0)
(139.641 0 0)
(140.785 0 0)
(141.927 0 0)
(143.065 0 0)
(144.2 0 0)
(145.331 0 0)
(146.458 0 0)
(147.582 0 0)
(148.701 0 0)
(149.817 0 0)
(150.928 0 0)
(152.035 0 0)
(153.138 0 0)
(154.237 0 0)
(155.331 0 0)
(156.421 0 0)
(157.506 0 0)
(158.586 0 0)
(159.662 0 0)
(160.734 0 0)
(161.8 0 0)
(162.863 0 0)
(163.92 0 0)
(164.973 0 0)
(166.021 0 0)
(167.064 0 0)
(168.102 0 0)
(169.136 0 0)
(170.165 0 0)
(171.189 0 0)
(172.208 0 0)
(173.223 0 0)
(174.233 0 0)
(175.237 0 0)
(176.238 0 0)
(177.232 0 0)
(178.226 0 0)
(179.202 0 0)
(180.214 0 0)
(181.093 0 0)
(182.366 0 0)
(101.778 0 0)
(102.213 0 0)
(102.732 0 0)
(103.327 0 0)
(103.99 0 0)
(104.714 0 0)
(105.491 0 0)
(106.315 0 0)
(107.181 0 0)
(108.084 0 0)
(109.019 0 0)
(109.983 0 0)
(110.971 0 0)
(111.982 0 0)
(113.011 0 0)
(114.057 0 0)
(115.117 0 0)
(116.19 0 0)
(117.273 0 0)
(118.365 0 0)
(119.466 0 0)
(120.572 0 0)
(121.684 0 0)
(122.801 0 0)
(123.921 0 0)
(125.043 0 0)
(126.168 0 0)
(127.294 0 0)
(128.421 0 0)
(129.549 0 0)
(130.676 0 0)
(131.803 0 0)
(132.928 0 0)
(134.053 0 0)
(135.175 0 0)
(136.296 0 0)
(137.415 0 0)
(138.531 0 0)
(139.645 0 0)
(140.756 0 0)
(141.864 0 0)
(142.969 0 0)
(144.07 0 0)
(145.168 0 0)
(146.263 0 0)
(147.354 0 0)
(148.441 0 0)
(149.525 0 0)
(150.604 0 0)
(151.68 0 0)
(152.751 0 0)
(153.819 0 0)
(154.882 0 0)
(155.941 0 0)
(156.996 0 0)
(158.046 0 0)
(159.092 0 0)
(160.134 0 0)
(161.171 0 0)
(162.204 0 0)
(163.232 0 0)
(164.256 0 0)
(165.276 0 0)
(166.291 0 0)
(167.301 0 0)
(168.307 0 0)
(169.308 0 0)
(170.304 0 0)
(171.296 0 0)
(172.284 0 0)
(173.267 0 0)
(174.245 0 0)
(175.219 0 0)
(176.187 0 0)
(177.154 0 0)
(178.104 0 0)
(179.09 0 0)
(179.946 0 0)
(181.185 0 0)
(102.292 0 0)
(102.805 0 0)
(103.388 0 0)
(104.034 0 0)
(104.737 0 0)
(105.49 0 0)
(106.287 0 0)
(107.124 0 0)
(107.996 0 0)
(108.899 0 0)
(109.829 0 0)
(110.783 0 0)
(111.758 0 0)
(112.752 0 0)
(113.762 0 0)
(114.786 0 0)
(115.822 0 0)
(116.869 0 0)
(117.925 0 0)
(118.989 0 0)
(120.06 0 0)
(121.136 0 0)
(122.217 0 0)
(123.302 0 0)
(124.39 0 0)
(125.48 0 0)
(126.572 0 0)
(127.665 0 0)
(128.758 0 0)
(129.852 0 0)
(130.946 0 0)
(132.039 0 0)
(133.131 0 0)
(134.222 0 0)
(135.312 0 0)
(136.399 0 0)
(137.485 0 0)
(138.568 0 0)
(139.649 0 0)
(140.727 0 0)
(141.803 0 0)
(142.875 0 0)
(143.945 0 0)
(145.011 0 0)
(146.074 0 0)
(147.133 0 0)
(148.189 0 0)
(149.241 0 0)
(150.29 0 0)
(151.335 0 0)
(152.376 0 0)
(153.413 0 0)
(154.446 0 0)
(155.475 0 0)
(156.501 0 0)
(157.522 0 0)
(158.538 0 0)
(159.551 0 0)
(160.56 0 0)
(161.564 0 0)
(162.564 0 0)
(163.56 0 0)
(164.551 0 0)
(165.538 0 0)
(166.521 0 0)
(167.499 0 0)
(168.473 0 0)
(169.443 0 0)
(170.408 0 0)
(171.369 0 0)
(172.326 0 0)
(173.278 0 0)
(174.226 0 0)
(175.168 0 0)
(176.11 0 0)
(177.034 0 0)
(177.994 0 0)
(178.828 0 0)
(180.033 0 0)
(102.895 0 0)
(103.468 0 0)
(104.099 0 0)
(104.783 0 0)
(105.514 0 0)
(106.286 0 0)
(107.096 0 0)
(107.939 0 0)
(108.811 0 0)
(109.71 0 0)
(110.631 0 0)
(111.573 0 0)
(112.532 0 0)
(113.508 0 0)
(114.497 0 0)
(115.498 0 0)
(116.51 0 0)
(117.531 0 0)
(118.56 0 0)
(119.596 0 0)
(120.638 0 0)
(121.684 0 0)
(122.735 0 0)
(123.788 0 0)
(124.845 0 0)
(125.903 0 0)
(126.963 0 0)
(128.024 0 0)
(129.086 0 0)
(130.147 0 0)
(131.208 0 0)
(132.269 0 0)
(133.329 0 0)
(134.387 0 0)
(135.444 0 0)
(136.5 0 0)
(137.553 0 0)
(138.604 0 0)
(139.653 0 0)
(140.7 0 0)
(141.744 0 0)
(142.785 0 0)
(143.823 0 0)
(144.858 0 0)
(145.89 0 0)
(146.919 0 0)
(147.944 0 0)
(148.966 0 0)
(149.985 0 0)
(151 0 0)
(152.011 0 0)
(153.019 0 0)
(154.023 0 0)
(155.023 0 0)
(156.019 0 0)
(157.012 0 0)
(158 0 0)
(158.985 0 0)
(159.965 0 0)
(160.942 0 0)
(161.914 0 0)
(162.882 0 0)
(163.846 0 0)
(164.807 0 0)
(165.762 0 0)
(166.714 0 0)
(167.662 0 0)
(168.605 0 0)
(169.544 0 0)
(170.479 0 0)
(171.41 0 0)
(172.336 0 0)
(173.259 0 0)
(174.176 0 0)
(175.092 0 0)
(175.993 0 0)
(176.926 0 0)
(177.739 0 0)
(178.91 0 0)
(103.567 0 0)
(104.185 0 0)
(104.852 0 0)
(105.562 0 0)
(106.312 0 0)
(107.096 0 0)
(107.912 0 0)
(108.755 0 0)
(109.623 0 0)
(110.514 0 0)
(111.423 0 0)
(112.35 0 0)
(113.293 0 0)
(114.249 0 0)
(115.216 0 0)
(116.195 0 0)
(117.182 0 0)
(118.177 0 0)
(119.179 0 0)
(120.187 0 0)
(121.2 0 0)
(122.217 0 0)
(123.238 0 0)
(124.261 0 0)
(125.287 0 0)
(126.315 0 0)
(127.343 0 0)
(128.373 0 0)
(129.403 0 0)
(130.433 0 0)
(131.463 0 0)
(132.492 0 0)
(133.52 0 0)
(134.547 0 0)
(135.573 0 0)
(136.597 0 0)
(137.619 0 0)
(138.639 0 0)
(139.657 0 0)
(140.673 0 0)
(141.686 0 0)
(142.697 0 0)
(143.705 0 0)
(144.71 0 0)
(145.712 0 0)
(146.711 0 0)
(147.707 0 0)
(148.699 0 0)
(149.689 0 0)
(150.675 0 0)
(151.657 0 0)
(152.636 0 0)
(153.612 0 0)
(154.584 0 0)
(155.552 0 0)
(156.516 0 0)
(157.477 0 0)
(158.434 0 0)
(159.387 0 0)
(160.337 0 0)
(161.282 0 0)
(162.224 0 0)
(163.161 0 0)
(164.095 0 0)
(165.024 0 0)
(165.95 0 0)
(166.872 0 0)
(167.789 0 0)
(168.703 0 0)
(169.613 0 0)
(170.518 0 0)
(171.419 0 0)
(172.317 0 0)
(173.209 0 0)
(174.101 0 0)
(174.978 0 0)
(175.886 0 0)
(176.677 0 0)
(177.816 0 0)
(104.29 0 0)
(104.941 0 0)
(105.633 0 0)
(106.361 0 0)
(107.122 0 0)
(107.912 0 0)
(108.728 0 0)
(109.568 0 0)
(110.429 0 0)
(111.308 0 0)
(112.204 0 0)
(113.115 0 0)
(114.038 0 0)
(114.974 0 0)
(115.919 0 0)
(116.874 0 0)
(117.837 0 0)
(118.806 0 0)
(119.781 0 0)
(120.762 0 0)
(121.746 0 0)
(122.735 0 0)
(123.726 0 0)
(124.72 0 0)
(125.716 0 0)
(126.714 0 0)
(127.712 0 0)
(128.712 0 0)
(129.711 0 0)
(130.711 0 0)
(131.71 0 0)
(132.708 0 0)
(133.706 0 0)
(134.703 0 0)
(135.698 0 0)
(136.691 0 0)
(137.683 0 0)
(138.673 0 0)
(139.661 0 0)
(140.647 0 0)
(141.631 0 0)
(142.612 0 0)
(143.59 0 0)
(144.566 0 0)
(145.539 0 0)
(146.509 0 0)
(147.476 0 0)
(148.44 0 0)
(149.401 0 0)
(150.359 0 0)
(151.314 0 0)
(152.265 0 0)
(153.212 0 0)
(154.157 0 0)
(155.098 0 0)
(156.035 0 0)
(156.969 0 0)
(157.899 0 0)
(158.826 0 0)
(159.749 0 0)
(160.668 0 0)
(161.583 0 0)
(162.495 0 0)
(163.403 0 0)
(164.307 0 0)
(165.207 0 0)
(166.103 0 0)
(166.996 0 0)
(167.885 0 0)
(168.769 0 0)
(169.65 0 0)
(170.527 0 0)
(171.4 0 0)
(172.268 0 0)
(173.136 0 0)
(173.989 0 0)
(174.873 0 0)
(175.643 0 0)
(176.75 0 0)
(105.051 0 0)
(105.726 0 0)
(106.434 0 0)
(107.172 0 0)
(107.938 0 0)
(108.729 0 0)
(109.542 0 0)
(110.374 0 0)
(111.225 0 0)
(112.091 0 0)
(112.971 0 0)
(113.864 0 0)
(114.769 0 0)
(115.683 0 0)
(116.606 0 0)
(117.537 0 0)
(118.475 0 0)
(119.418 0 0)
(120.367 0 0)
(121.32 0 0)
(122.278 0 0)
(123.238 0 0)
(124.201 0 0)
(125.166 0 0)
(126.133 0 0)
(127.101 0 0)
(128.07 0 0)
(129.04 0 0)
(130.01 0 0)
(130.98 0 0)
(131.949 0 0)
(132.918 0 0)
(133.886 0 0)
(134.853 0 0)
(135.819 0 0)
(136.783 0 0)
(137.746 0 0)
(138.707 0 0)
(139.666 0 0)
(140.622 0 0)
(141.577 0 0)
(142.529 0 0)
(143.479 0 0)
(144.427 0 0)
(145.371 0 0)
(146.313 0 0)
(147.253 0 0)
(148.189 0 0)
(149.122 0 0)
(150.053 0 0)
(150.98 0 0)
(151.904 0 0)
(152.825 0 0)
(153.742 0 0)
(154.657 0 0)
(155.568 0 0)
(156.475 0 0)
(157.379 0 0)
(158.28 0 0)
(159.177 0 0)
(160.07 0 0)
(160.96 0 0)
(161.847 0 0)
(162.73 0 0)
(163.609 0 0)
(164.484 0 0)
(165.356 0 0)
(166.224 0 0)
(167.088 0 0)
(167.949 0 0)
(168.806 0 0)
(169.658 0 0)
(170.508 0 0)
(171.352 0 0)
(172.197 0 0)
(173.026 0 0)
(173.886 0 0)
(174.636 0 0)
(175.711 0 0)
(105.84 0 0)
(106.529 0 0)
(107.247 0 0)
(107.99 0 0)
(108.756 0 0)
(109.543 0 0)
(110.349 0 0)
(111.171 0 0)
(112.009 0 0)
(112.861 0 0)
(113.724 0 0)
(114.598 0 0)
(115.483 0 0)
(116.375 0 0)
(117.276 0 0)
(118.183 0 0)
(119.096 0 0)
(120.014 0 0)
(120.937 0 0)
(121.864 0 0)
(122.794 0 0)
(123.727 0 0)
(124.662 0 0)
(125.599 0 0)
(126.538 0 0)
(127.477 0 0)
(128.418 0 0)
(129.359 0 0)
(130.3 0 0)
(131.241 0 0)
(132.182 0 0)
(133.122 0 0)
(134.061 0 0)
(135 0 0)
(135.937 0 0)
(136.872 0 0)
(137.807 0 0)
(138.739 0 0)
(139.67 0 0)
(140.598 0 0)
(141.525 0 0)
(142.45 0 0)
(143.372 0 0)
(144.292 0 0)
(145.209 0 0)
(146.124 0 0)
(147.036 0 0)
(147.945 0 0)
(148.851 0 0)
(149.755 0 0)
(150.656 0 0)
(151.554 0 0)
(152.448 0 0)
(153.34 0 0)
(154.228 0 0)
(155.113 0 0)
(155.995 0 0)
(156.874 0 0)
(157.749 0 0)
(158.621 0 0)
(159.49 0 0)
(160.355 0 0)
(161.217 0 0)
(162.075 0 0)
(162.93 0 0)
(163.781 0 0)
(164.629 0 0)
(165.473 0 0)
(166.313 0 0)
(167.15 0 0)
(167.984 0 0)
(168.813 0 0)
(169.639 0 0)
(170.461 0 0)
(171.282 0 0)
(172.089 0 0)
(172.925 0 0)
(173.655 0 0)
(174.7 0 0)
(106.645 0 0)
(107.343 0 0)
(108.065 0 0)
(108.808 0 0)
(109.57 0 0)
(110.351 0 0)
(111.147 0 0)
(111.957 0 0)
(112.781 0 0)
(113.616 0 0)
(114.462 0 0)
(115.317 0 0)
(116.18 0 0)
(117.051 0 0)
(117.928 0 0)
(118.812 0 0)
(119.701 0 0)
(120.594 0 0)
(121.491 0 0)
(122.392 0 0)
(123.295 0 0)
(124.201 0 0)
(125.109 0 0)
(126.019 0 0)
(126.93 0 0)
(127.842 0 0)
(128.755 0 0)
(129.668 0 0)
(130.582 0 0)
(131.495 0 0)
(132.407 0 0)
(133.32 0 0)
(134.231 0 0)
(135.142 0 0)
(136.051 0 0)
(136.959 0 0)
(137.865 0 0)
(138.771 0 0)
(139.674 0 0)
(140.575 0 0)
(141.475 0 0)
(142.372 0 0)
(143.268 0 0)
(144.161 0 0)
(145.051 0 0)
(145.939 0 0)
(146.825 0 0)
(147.708 0 0)
(148.589 0 0)
(149.466 0 0)
(150.341 0 0)
(151.213 0 0)
(152.083 0 0)
(152.949 0 0)
(153.812 0 0)
(154.672 0 0)
(155.529 0 0)
(156.383 0 0)
(157.234 0 0)
(158.082 0 0)
(158.926 0 0)
(159.767 0 0)
(160.605 0 0)
(161.439 0 0)
(162.27 0 0)
(163.097 0 0)
(163.922 0 0)
(164.742 0 0)
(165.56 0 0)
(166.373 0 0)
(167.184 0 0)
(167.99 0 0)
(168.794 0 0)
(169.593 0 0)
(170.391 0 0)
(171.176 0 0)
(171.989 0 0)
(172.7 0 0)
(173.715 0 0)
(107.461 0 0)
(108.162 0 0)
(108.883 0 0)
(109.623 0 0)
(110.378 0 0)
(111.149 0 0)
(111.934 0 0)
(112.73 0 0)
(113.538 0 0)
(114.356 0 0)
(115.183 0 0)
(116.018 0 0)
(116.861 0 0)
(117.71 0 0)
(118.564 0 0)
(119.424 0 0)
(120.289 0 0)
(121.157 0 0)
(122.029 0 0)
(122.905 0 0)
(123.782 0 0)
(124.662 0 0)
(125.544 0 0)
(126.427 0 0)
(127.311 0 0)
(128.197 0 0)
(129.082 0 0)
(129.968 0 0)
(130.855 0 0)
(131.741 0 0)
(132.626 0 0)
(133.511 0 0)
(134.396 0 0)
(135.279 0 0)
(136.162 0 0)
(137.043 0 0)
(137.923 0 0)
(138.801 0 0)
(139.678 0 0)
(140.553 0 0)
(141.426 0 0)
(142.297 0 0)
(143.166 0 0)
(144.033 0 0)
(144.898 0 0)
(145.761 0 0)
(146.621 0 0)
(147.479 0 0)
(148.334 0 0)
(149.186 0 0)
(150.036 0 0)
(150.883 0 0)
(151.728 0 0)
(152.569 0 0)
(153.408 0 0)
(154.244 0 0)
(155.077 0 0)
(155.906 0 0)
(156.733 0 0)
(157.557 0 0)
(158.378 0 0)
(159.195 0 0)
(160.009 0 0)
(160.82 0 0)
(161.628 0 0)
(162.433 0 0)
(163.234 0 0)
(164.032 0 0)
(164.826 0 0)
(165.618 0 0)
(166.405 0 0)
(167.19 0 0)
(167.971 0 0)
(168.748 0 0)
(169.524 0 0)
(170.288 0 0)
(171.078 0 0)
(171.77 0 0)
(172.755 0 0)
(108.281 0 0)
(108.981 0 0)
(109.698 0 0)
(110.431 0 0)
(111.177 0 0)
(111.937 0 0)
(112.708 0 0)
(113.489 0 0)
(114.281 0 0)
(115.08 0 0)
(115.888 0 0)
(116.703 0 0)
(117.525 0 0)
(118.352 0 0)
(119.184 0 0)
(120.02 0 0)
(120.861 0 0)
(121.705 0 0)
(122.553 0 0)
(123.403 0 0)
(124.255 0 0)
(125.11 0 0)
(125.966 0 0)
(126.823 0 0)
(127.681 0 0)
(128.54 0 0)
(129.4 0 0)
(130.26 0 0)
(131.12 0 0)
(131.979 0 0)
(132.839 0 0)
(133.698 0 0)
(134.556 0 0)
(135.413 0 0)
(136.269 0 0)
(137.125 0 0)
(137.978 0 0)
(138.831 0 0)
(139.682 0 0)
(140.531 0 0)
(141.379 0 0)
(142.225 0 0)
(143.068 0 0)
(143.91 0 0)
(144.75 0 0)
(145.587 0 0)
(146.423 0 0)
(147.256 0 0)
(148.086 0 0)
(148.914 0 0)
(149.74 0 0)
(150.563 0 0)
(151.383 0 0)
(152.201 0 0)
(153.016 0 0)
(153.828 0 0)
(154.637 0 0)
(155.443 0 0)
(156.247 0 0)
(157.047 0 0)
(157.845 0 0)
(158.639 0 0)
(159.431 0 0)
(160.219 0 0)
(161.004 0 0)
(161.786 0 0)
(162.565 0 0)
(163.341 0 0)
(164.113 0 0)
(164.882 0 0)
(165.648 0 0)
(166.411 0 0)
(167.171 0 0)
(167.926 0 0)
(168.681 0 0)
(169.423 0 0)
(170.191 0 0)
(170.865 0 0)
(171.821 0 0)
(109.101 0 0)
(109.796 0 0)
(110.506 0 0)
(111.229 0 0)
(111.965 0 0)
(112.711 0 0)
(113.467 0 0)
(114.233 0 0)
(115.007 0 0)
(115.788 0 0)
(116.577 0 0)
(117.371 0 0)
(118.172 0 0)
(118.977 0 0)
(119.786 0 0)
(120.6 0 0)
(121.418 0 0)
(122.238 0 0)
(123.061 0 0)
(123.887 0 0)
(124.715 0 0)
(125.544 0 0)
(126.375 0 0)
(127.207 0 0)
(128.04 0 0)
(128.874 0 0)
(129.708 0 0)
(130.542 0 0)
(131.377 0 0)
(132.211 0 0)
(133.045 0 0)
(133.878 0 0)
(134.711 0 0)
(135.543 0 0)
(136.374 0 0)
(137.204 0 0)
(138.033 0 0)
(138.86 0 0)
(139.686 0 0)
(140.51 0 0)
(141.333 0 0)
(142.154 0 0)
(142.973 0 0)
(143.791 0 0)
(144.606 0 0)
(145.419 0 0)
(146.231 0 0)
(147.039 0 0)
(147.846 0 0)
(148.65 0 0)
(149.452 0 0)
(150.252 0 0)
(151.048 0 0)
(151.843 0 0)
(152.634 0 0)
(153.423 0 0)
(154.21 0 0)
(154.993 0 0)
(155.774 0 0)
(156.552 0 0)
(157.327 0 0)
(158.099 0 0)
(158.868 0 0)
(159.634 0 0)
(160.398 0 0)
(161.158 0 0)
(161.915 0 0)
(162.669 0 0)
(163.42 0 0)
(164.167 0 0)
(164.912 0 0)
(165.653 0 0)
(166.392 0 0)
(167.126 0 0)
(167.86 0 0)
(168.582 0 0)
(169.328 0 0)
(169.983 0 0)
(170.912 0 0)
(109.916 0 0)
(110.604 0 0)
(111.305 0 0)
(112.017 0 0)
(112.739 0 0)
(113.472 0 0)
(114.212 0 0)
(114.961 0 0)
(115.717 0 0)
(116.48 0 0)
(117.248 0 0)
(118.023 0 0)
(118.802 0 0)
(119.585 0 0)
(120.373 0 0)
(121.164 0 0)
(121.958 0 0)
(122.755 0 0)
(123.555 0 0)
(124.357 0 0)
(125.161 0 0)
(125.966 0 0)
(126.772 0 0)
(127.58 0 0)
(128.388 0 0)
(129.197 0 0)
(130.007 0 0)
(130.816 0 0)
(131.626 0 0)
(132.436 0 0)
(133.245 0 0)
(134.053 0 0)
(134.862 0 0)
(135.669 0 0)
(136.475 0 0)
(137.281 0 0)
(138.085 0 0)
(138.888 0 0)
(139.69 0 0)
(140.49 0 0)
(141.289 0 0)
(142.086 0 0)
(142.881 0 0)
(143.675 0 0)
(144.467 0 0)
(145.256 0 0)
(146.044 0 0)
(146.83 0 0)
(147.613 0 0)
(148.394 0 0)
(149.173 0 0)
(149.95 0 0)
(150.724 0 0)
(151.495 0 0)
(152.264 0 0)
(153.031 0 0)
(153.795 0 0)
(154.556 0 0)
(155.315 0 0)
(156.071 0 0)
(156.824 0 0)
(157.574 0 0)
(158.322 0 0)
(159.066 0 0)
(159.808 0 0)
(160.547 0 0)
(161.283 0 0)
(162.015 0 0)
(162.745 0 0)
(163.472 0 0)
(164.196 0 0)
(164.916 0 0)
(165.634 0 0)
(166.348 0 0)
(167.061 0 0)
(167.763 0 0)
(168.488 0 0)
(169.125 0 0)
(170.026 0 0)
(110.723 0 0)
(111.402 0 0)
(112.092 0 0)
(112.791 0 0)
(113.5 0 0)
(114.217 0 0)
(114.941 0 0)
(115.673 0 0)
(116.411 0 0)
(117.154 0 0)
(117.903 0 0)
(118.657 0 0)
(119.415 0 0)
(120.177 0 0)
(120.943 0 0)
(121.712 0 0)
(122.484 0 0)
(123.258 0 0)
(124.035 0 0)
(124.813 0 0)
(125.593 0 0)
(126.375 0 0)
(127.158 0 0)
(127.942 0 0)
(128.726 0 0)
(129.511 0 0)
(130.297 0 0)
(131.082 0 0)
(131.868 0 0)
(132.653 0 0)
(133.439 0 0)
(134.223 0 0)
(135.008 0 0)
(135.791 0 0)
(136.574 0 0)
(137.356 0 0)
(138.136 0 0)
(138.916 0 0)
(139.694 0 0)
(140.471 0 0)
(141.246 0 0)