/*--------------------------------*- C++ -*----------------------------------*\
| =========                 |                                                 |
| \\      /  F ield         | OpenFOAM: The Open Source CFD Toolbox           |
|  \\    /   O peration     | Version:  2312                                  |
|   \\  /    A nd           | Website:  www.openfoam.com                      |
|    \\/     M anipulation  |                                                 |
\*---------------------------------------------------------------------------*/
FoamFile
{
    version     2.0;
    format      ascii;
    arch        "LSB;label=32;scalar=64";
    class       volVectorField;
    location    "0.827";
    object      U;
}
// * * * * * * * * * * * * * * * * * * * * * * * * * * * * * * * * * * * * * //

dimensions      [0 1 -1 0 0 0 0];

internalField   nonuniform List<vector> 
31205
(
(265.688 0 0)
(263.986 0 0)
(262.228 0 0)
(260.412 0 0)
(258.536 0 0)
(256.597 0 0)
(254.593 0 0)
(252.519 0 0)
(250.373 0 0)
(248.151 0 0)
(245.848 0 0)
(243.46 0 0)
(240.981 0 0)
(238.406 0 0)
(235.726 0 0)
(232.935 0 0)
(230.023 0 0)
(226.98 0 0)
(223.793 0 0)
(220.447 0 0)
(216.925 0 0)
(213.206 0 0)
(209.262 0 0)
(205.061 0 0)
(200.561 0 0)
(195.704 0 0)
(190.417 0 0)
(184.592 0 0)
(178.055 0 0)
(170.542 0 0)
(161.771 0 0)
(151.726 0 0)
(140.975 0 0)
(130.621 0 0)
(121.764 0 0)
(114.967 0 0)
(110.187 0 0)
(107.05 0 0)
(105.122 0 0)
(104.042 0 0)
(103.55 0 0)
(103.466 0 0)
(103.671 0 0)
(104.087 0 0)
(104.657 0 0)
(105.346 0 0)
(106.125 0 0)
(106.976 0 0)
(107.884 0 0)
(108.838 0 0)
(109.829 0 0)
(110.851 0 0)
(111.898 0 0)
(112.966 0 0)
(114.052 0 0)
(115.153 0 0)
(116.266 0 0)
(117.389 0 0)
(118.521 0 0)
(119.661 0 0)
(120.805 0 0)
(121.955 0 0)
(123.109 0 0)
(124.266 0 0)
(125.425 0 0)
(126.586 0 0)
(127.748 0 0)
(128.91 0 0)
(130.073 0 0)
(131.236 0 0)
(132.399 0 0)
(133.561 0 0)
(134.722 0 0)
(135.88 0 0)
(137.043 0 0)
(138.186 0 0)
(139.382 0 0)
(140.407 0 0)
(141.952 0 0)
(264.149 0 0)
(262.444 0 0)
(260.685 0 0)
(258.869 0 0)
(256.993 0 0)
(255.055 0 0)
(253.053 0 0)
(250.983 0 0)
(248.841 0 0)
(246.624 0 0)
(244.327 0 0)
(241.946 0 0)
(239.476 0 0)
(236.909 0 0)
(234.24 0 0)
(231.46 0 0)
(228.561 0 0)
(225.53 0 0)
(222.357 0 0)
(219.026 0 0)
(215.52 0 0)
(211.817 0 0)
(207.891 0 0)
(203.707 0 0)
(199.223 0 0)
(194.384 0 0)
(189.112 0 0)
(183.297 0 0)
(176.763 0 0)
(169.247 0 0)
(160.491 0 0)
(150.52 0 0)
(139.937 0 0)
(129.827 0 0)
(121.226 0 0)
(114.639 0 0)
(110.001 0 0)
(106.944 0 0)
(105.053 0 0)
(103.982 0 0)
(103.48 0 0)
(103.377 0 0)
(103.557 0 0)
(103.943 0 0)
(104.482 0 0)
(105.138 0 0)
(105.884 0 0)
(106.701 0 0)
(107.575 0 0)
(108.494 0 0)
(109.451 0 0)
(110.439 0 0)
(111.452 0 0)
(112.487 0 0)
(113.54 0 0)
(114.607 0 0)
(115.687 0 0)
(116.777 0 0)
(117.877 0 0)
(118.983 0 0)
(120.096 0 0)
(121.214 0 0)
(122.335 0 0)
(123.46 0 0)
(124.588 0 0)
(125.717 0 0)
(126.848 0 0)
(127.98 0 0)
(129.112 0 0)
(130.245 0 0)
(131.377 0 0)
(132.508 0 0)
(133.639 0 0)
(134.767 0 0)
(135.9 0 0)
(137.013 0 0)
(138.178 0 0)
(139.179 0 0)
(140.677 0 0)
(262.527 0 0)
(260.82 0 0)
(259.058 0 0)
(257.241 0 0)
(255.365 0 0)
(253.428 0 0)
(251.427 0 0)
(249.359 0 0)
(247.22 0 0)
(245.007 0 0)
(242.715 0 0)
(240.34 0 0)
(237.875 0 0)
(235.316 0 0)
(232.654 0 0)
(229.883 0 0)
(226.992 0 0)
(223.972 0 0)
(220.809 0 0)
(217.489 0 0)
(213.993 0 0)
(210.301 0 0)
(206.385 0 0)
(202.211 0 0)
(197.735 0 0)
(192.901 0 0)
(187.63 0 0)
(181.809 0 0)
(175.255 0 0)
(167.708 0 0)
(158.942 0 0)
(149.038 0 0)
(138.641 0 0)
(128.815 0 0)
(120.523 0 0)
(114.196 0 0)
(109.74 0 0)
(106.794 0 0)
(104.961 0 0)
(103.913 0 0)
(103.412 0 0)
(103.297 0 0)
(103.456 0 0)
(103.817 0 0)
(104.328 0 0)
(104.954 0 0)
(105.668 0 0)
(106.453 0 0)
(107.294 0 0)
(108.181 0 0)
(109.105 0 0)
(110.06 0 0)
(111.04 0 0)
(112.042 0 0)
(113.062 0 0)
(114.097 0 0)
(115.145 0 0)
(116.203 0 0)
(117.271 0 0)
(118.346 0 0)
(119.427 0 0)
(120.514 0 0)
(121.604 0 0)
(122.698 0 0)
(123.795 0 0)
(124.894 0 0)
(125.995 0 0)
(127.096 0 0)
(128.199 0 0)
(129.301 0 0)
(130.403 0 0)
(131.505 0 0)
(132.607 0 0)
(133.706 0 0)
(134.809 0 0)
(135.894 0 0)
(137.028 0 0)
(138.006 0 0)
(139.458 0 0)
(260.868 0 0)
(259.157 0 0)
(257.394 0 0)
(255.575 0 0)
(253.698 0 0)
(251.761 0 0)
(249.761 0 0)
(247.695 0 0)
(245.558 0 0)
(243.348 0 0)
(241.06 0 0)
(238.688 0 0)
(236.229 0 0)
(233.675 0 0)
(231.019 0 0)
(228.254 0 0)
(225.37 0 0)
(222.356 0 0)
(219.2 0 0)
(215.887 0 0)
(212.398 0 0)
(208.712 0 0)
(204.801 0 0)
(200.63 0 0)
(196.155 0 0)
(191.317 0 0)
(186.036 0 0)
(180.192 0 0)
(173.597 0 0)
(165.997 0 0)
(157.203 0 0)
(147.361 0 0)
(137.163 0 0)
(127.651 0 0)
(119.701 0 0)
(113.666 0 0)
(109.421 0 0)
(106.608 0 0)
(104.848 0 0)
(103.835 0 0)
(103.344 0 0)
(103.224 0 0)
(103.368 0 0)
(103.708 0 0)
(104.194 0 0)
(104.792 0 0)
(105.477 0 0)
(106.232 0 0)
(107.042 0 0)
(107.898 0 0)
(108.791 0 0)
(109.714 0 0)
(110.663 0 0)
(111.633 0 0)
(112.622 0 0)
(113.626 0 0)
(114.642 0 0)
(115.67 0 0)
(116.706 0 0)
(117.75 0 0)
(118.801 0 0)
(119.857 0 0)
(120.918 0 0)
(121.982 0 0)
(123.049 0 0)
(124.118 0 0)
(125.189 0 0)
(126.261 0 0)
(127.334 0 0)
(128.407 0 0)
(129.481 0 0)
(130.554 0 0)
(131.627 0 0)
(132.697 0 0)
(133.771 0 0)
(134.829 0 0)
(135.933 0 0)
(136.887 0 0)
(138.297 0 0)
(259.194 0 0)
(257.481 0 0)
(255.716 0 0)
(253.896 0 0)
(252.018 0 0)
(250.082 0 0)
(248.082 0 0)
(246.017 0 0)
(243.883 0 0)
(241.675 0 0)
(239.39 0 0)
(237.022 0 0)
(234.567 0 0)
(232.017 0 0)
(229.367 0 0)
(226.607 0 0)
(223.728 0 0)
(220.72 0 0)
(217.569 0 0)
(214.261 0 0)
(210.776 0 0)
(207.093 0 0)
(203.184 0 0)
(199.012 0 0)
(194.532 0 0)
(189.684 0 0)
(184.385 0 0)
(178.508 0 0)
(171.86 0 0)
(164.196 0 0)
(155.369 0 0)
(145.597 0 0)
(135.617 0 0)
(126.434 0 0)
(118.839 0 0)
(113.107 0 0)
(109.079 0 0)
(106.405 0 0)
(104.726 0 0)
(103.753 0 0)
(103.277 0 0)
(103.154 0 0)
(103.287 0 0)
(103.608 0 0)
(104.071 0 0)
(104.644 0 0)
(105.302 0 0)
(106.028 0 0)
(106.809 0 0)
(107.635 0 0)
(108.498 0 0)
(109.391 0 0)
(110.309 0 0)
(111.249 0 0)
(112.207 0 0)
(113.181 0 0)
(114.167 0 0)
(115.164 0 0)
(116.171 0 0)
(117.185 0 0)
(118.206 0 0)
(119.233 0 0)
(120.264 0 0)
(121.299 0 0)
(122.337 0 0)
(123.377 0 0)
(124.419 0 0)
(125.463 0 0)
(126.507 0 0)
(127.552 0 0)
(128.597 0 0)
(129.641 0 0)
(130.686 0 0)
(131.729 0 0)
(132.775 0 0)
(133.805 0 0)
(134.881 0 0)
(135.811 0 0)
(137.181 0 0)
(257.517 0 0)
(255.802 0 0)
(254.036 0 0)
(252.215 0 0)
(250.338 0 0)
(248.401 0 0)
(246.403 0 0)
(244.34 0 0)
(242.207 0 0)
(240.002 0 0)
(237.72 0 0)
(235.356 0 0)
(232.905 0 0)
(230.359 0 0)
(227.713 0 0)
(224.958 0 0)
(222.084 0 0)
(219.081 0 0)
(215.934 0 0)
(212.63 0 0)
(209.148 0 0)
(205.467 0 0)
(201.557 0 0)
(197.382 0 0)
(192.894 0 0)
(188.033 0 0)
(182.71 0 0)
(176.793 0 0)
(170.083 0 0)
(162.351 0 0)
(153.497 0 0)
(143.811 0 0)
(134.064 0 0)
(125.222 0 0)
(117.983 0 0)
(112.549 0 0)
(108.736 0 0)
(106.2 0 0)
(104.601 0 0)
(103.669 0 0)
(103.209 0 0)
(103.087 0 0)
(103.209 0 0)
(103.514 0 0)
(103.956 0 0)
(104.505 0 0)
(105.137 0 0)
(105.836 0 0)
(106.589 0 0)
(107.386 0 0)
(108.219 0 0)
(109.083 0 0)
(109.972 0 0)
(110.883 0 0)
(111.812 0 0)
(112.756 0 0)
(113.713 0 0)
(114.681 0 0)
(115.658 0 0)
(116.644 0 0)
(117.636 0 0)
(118.633 0 0)
(119.636 0 0)
(120.642 0 0)
(121.652 0 0)
(122.664 0 0)
(123.677 0 0)
(124.693 0 0)
(125.709 0 0)
(126.726 0 0)
(127.744 0 0)
(128.761 0 0)
(129.778 0 0)
(130.793 0 0)
(131.812 0 0)
(132.816 0 0)
(133.863 0 0)
(134.77 0 0)
(136.102 0 0)
(255.843 0 0)
(254.126 0 0)
(252.359 0 0)
(250.538 0 0)
(248.662 0 0)
(246.726 0 0)
(244.729 0 0)
(242.668 0 0)
(240.538 0 0)
(238.336 0 0)
(236.057 0 0)
(233.697 0 0)
(231.249 0 0)
(228.708 0 0)
(226.067 0 0)
(223.316 0 0)
(220.446 0 0)
(217.447 0 0)
(214.304 0 0)
(211.003 0 0)
(207.524 0 0)
(203.843 0 0)
(199.931 0 0)
(195.75 0 0)
(191.254 0 0)
(186.375 0 0)
(181.024 0 0)
(175.062 0 0)
(168.287 0 0)
(160.487 0 0)
(151.617 0 0)
(142.036 0 0)
(132.539 0 0)
(124.041 0 0)
(117.153 0 0)
(112.009 0 0)
(108.403 0 0)
(105.999 0 0)
(104.478 0 0)
(103.586 0 0)
(103.143 0 0)
(103.021 0 0)
(103.135 0 0)
(103.423 0 0)
(103.846 0 0)
(104.372 0 0)
(104.979 0 0)
(105.652 0 0)
(106.378 0 0)
(107.147 0 0)
(107.953 0 0)
(108.789 0 0)
(109.649 0 0)
(110.531 0 0)
(111.431 0 0)
(112.347 0 0)
(113.275 0 0)
(114.215 0 0)
(115.164 0 0)
(116.121 0 0)
(117.085 0 0)
(118.055 0 0)
(119.029 0 0)
(120.008 0 0)
(120.99 0 0)
(121.974 0 0)
(122.961 0 0)
(123.949 0 0)
(124.938 0 0)
(125.928 0 0)
(126.918 0 0)
(127.908 0 0)
(128.899 0 0)
(129.887 0 0)
(130.879 0 0)
(131.857 0 0)
(132.876 0 0)
(133.76 0 0)
(135.055 0 0)
(254.172 0 0)
(252.455 0 0)
(250.688 0 0)
(248.868 0 0)
(246.992 0 0)
(245.058 0 0)
(243.064 0 0)
(241.005 0 0)
(238.878 0 0)
(236.679 0 0)
(234.404 0 0)
(232.047 0 0)
(229.604 0 0)
(227.067 0 0)
(224.429 0 0)
(221.683 0 0)
(218.818 0 0)
(215.822 0 0)
(212.683 0 0)
(209.384 0 0)
(205.906 0 0)
(202.225 0 0)
(198.31 0 0)
(194.123 0 0)
(189.614 0 0)
(184.717 0 0)
(179.334 0 0)
(173.321 0 0)
(166.478 0 0)
(158.614 0 0)
(149.743 0 0)
(140.287 0 0)
(131.055 0 0)
(122.904 0 0)
(116.358 0 0)
(111.491 0 0)
(108.082 0 0)
(105.805 0 0)
(104.358 0 0)
(103.506 0 0)
(103.078 0 0)
(102.958 0 0)
(103.063 0 0)
(103.337 0 0)
(103.74 0 0)
(104.244 0 0)
(104.828 0 0)
(105.476 0 0)
(106.176 0 0)
(106.918 0 0)
(107.697 0 0)
(108.505 0 0)
(109.338 0 0)
(110.193 0 0)
(111.065 0 0)
(111.953 0 0)
(112.854 0 0)
(113.765 0 0)
(114.687 0 0)
(115.617 0 0)
(116.553 0 0)
(117.496 0 0)
(118.443 0 0)
(119.394 0 0)
(120.349 0 0)
(121.307 0 0)
(122.266 0 0)
(123.228 0 0)
(124.19 0 0)
(125.154 0 0)
(126.118 0 0)
(127.082 0 0)
(128.046 0 0)
(129.008 0 0)
(129.974 0 0)
(130.926 0 0)
(131.918 0 0)
(132.781 0 0)
(134.039 0 0)
(252.507 0 0)
(250.79 0 0)
(249.024 0 0)
(247.205 0 0)
(245.331 0 0)
(243.399 0 0)
(241.406 0 0)
(239.35 0 0)
(237.226 0 0)
(235.031 0 0)
(232.76 0 0)
(230.407 0 0)
(227.968 0 0)
(225.436 0 0)
(222.803 0 0)
(220.06 0 0)
(217.199 0 0)
(214.207 0 0)
(211.071 0 0)
(207.774 0 0)
(204.297 0 0)
(200.614 0 0)
(196.695 0 0)
(192.5 0 0)
(187.978 0 0)
(183.059 0 0)
(177.641 0 0)
(171.574 0 0)
(164.66 0 0)
(156.739 0 0)
(147.884 0 0)
(138.573 0 0)
(129.619 0 0)
(121.815 0 0)
(115.6 0 0)
(110.999 0 0)
(107.777 0 0)
(105.619 0 0)
(104.243 0 0)
(103.428 0 0)
(103.016 0 0)
(102.897 0 0)
(102.994 0 0)
(103.254 0 0)
(103.639 0 0)
(104.122 0 0)
(104.683 0 0)
(105.307 0 0)
(105.981 0 0)
(106.698 0 0)
(107.45 0 0)
(108.232 0 0)
(109.039 0 0)
(109.866 0 0)
(110.712 0 0)
(111.572 0 0)
(112.446 0 0)
(113.331 0 0)
(114.226 0 0)
(115.129 0 0)
(116.039 0 0)
(116.955 0 0)
(117.875 0 0)
(118.8 0 0)
(119.729 0 0)
(120.66 0 0)
(121.594 0 0)
(122.529 0 0)
(123.466 0 0)
(124.404 0 0)
(125.342 0 0)
(126.28 0 0)
(127.219 0 0)
(128.156 0 0)
(129.096 0 0)
(130.023 0 0)
(130.989 0 0)
(131.83 0 0)
(133.052 0 0)
(250.847 0 0)
(249.132 0 0)
(247.366 0 0)
(245.549 0 0)
(243.677 0 0)
(241.748 0 0)
(239.758 0 0)
(237.705 0 0)
(235.585 0 0)
(233.393 0 0)
(231.126 0 0)
(228.778 0 0)
(226.343 0 0)
(223.815 0 0)
(221.186 0 0)
(218.448 0 0)
(215.591 0 0)
(212.603 0 0)
(209.469 0 0)
(206.174 0 0)
(202.696 0 0)
(199.011 0 0)
(195.087 0 0)
(190.883 0 0)
(186.345 0 0)
(181.401 0 0)
(175.944 0 0)
(169.819 0 0)
(162.835 0 0)
(154.866 0 0)
(146.044 0 0)
(136.899 0 0)
(128.234 0 0)
(120.773 0 0)
(114.88 0 0)
(110.532 0 0)
(107.486 0 0)
(105.442 0 0)
(104.133 0 0)
(103.353 0 0)
(102.956 0 0)
(102.838 0 0)
(102.928 0 0)
(103.174 0 0)
(103.542 0 0)
(104.005 0 0)
(104.544 0 0)
(105.144 0 0)
(105.795 0 0)
(106.487 0 0)
(107.213 0 0)
(107.969 0 0)
(108.75 0 0)
(109.551 0 0)
(110.371 0 0)
(111.205 0 0)
(112.053 0 0)
(112.912 0 0)
(113.781 0 0)
(114.658 0 0)
(115.541 0 0)
(116.431 0 0)
(117.326 0 0)
(118.226 0 0)
(119.129 0 0)
(120.035 0 0)
(120.943 0 0)
(121.853 0 0)
(122.764 0 0)
(123.677 0 0)
(124.59 0 0)
(125.503 0 0)
(126.417 0 0)
(127.329 0 0)
(128.245 0 0)
(129.147 0 0)
(130.087 0 0)
(130.906 0 0)
(132.095 0 0)
(249.194 0 0)
(247.48 0 0)
(245.717 0 0)
(243.902 0 0)
(242.032 0 0)
(240.106 0 0)
(238.12 0 0)
(236.07 0 0)
(233.954 0 0)
(231.766 0 0)
(229.503 0 0)
(227.159 0 0)
(224.729 0 0)
(222.205 0 0)
(219.58 0 0)
(216.847 0 0)
(213.993 0 0)
(211.008 0 0)
(207.876 0 0)
(204.582 0 0)
(201.104 0 0)
(197.415 0 0)
(193.485 0 0)
(189.269 0 0)
(184.714 0 0)
(179.742 0 0)
(174.243 0 0)
(168.057 0 0)
(161.003 0 0)
(152.996 0 0)
(144.227 0 0)
(135.267 0 0)
(126.9 0 0)
(119.78 0 0)
(114.196 0 0)
(110.089 0 0)
(107.21 0 0)
(105.273 0 0)
(104.027 0 0)
(103.281 0 0)
(102.899 0 0)
(102.782 0 0)
(102.864 0 0)
(103.098 0 0)
(103.449 0 0)
(103.893 0 0)
(104.41 0 0)
(104.988 0 0)
(105.615 0 0)
(106.283 0 0)
(106.985 0 0)
(107.716 0 0)
(108.472 0 0)
(109.248 0 0)
(110.042 0 0)
(110.851 0 0)
(111.673 0 0)
(112.507 0 0)
(113.35 0 0)
(114.202 0 0)
(115.061 0 0)
(115.925 0 0)
(116.795 0 0)
(117.67 0 0)
(118.548 0 0)
(119.429 0 0)
(120.312 0 0)
(121.197 0 0)
(122.084 0 0)
(122.972 0 0)
(123.861 0 0)
(124.75 0 0)
(125.639 0 0)
(126.527 0 0)
(127.419 0 0)
(128.297 0 0)
(129.212 0 0)
(130.011 0 0)
(131.165 0 0)
(247.548 0 0)
(245.836 0 0)
(244.075 0 0)
(242.263 0 0)
(240.396 0 0)
(238.473 0 0)
(236.491 0 0)
(234.445 0 0)
(232.333 0 0)
(230.149 0 0)
(227.89 0 0)
(225.551 0 0)
(223.125 0 0)
(220.605 0 0)
(217.985 0 0)
(215.255 0 0)
(212.405 0 0)
(209.422 0 0)
(206.293 0 0)
(202.999 0 0)
(199.519 0 0)
(195.826 0 0)
(191.888 0 0)
(187.66 0 0)
(183.084 0 0)
(178.082 0 0)
(172.536 0 0)
(166.286 0 0)
(159.167 0 0)
(151.133 0 0)
(142.437 0 0)
(133.681 0 0)
(125.619 0 0)
(118.834 0 0)
(113.548 0 0)
(109.669 0 0)
(106.948 0 0)
(105.112 0 0)
(103.926 0 0)
(103.213 0 0)
(102.843 0 0)
(102.728 0 0)
(102.804 0 0)
(103.025 0 0)
(103.36 0 0)
(103.785 0 0)
(104.282 0 0)
(104.838 0 0)
(105.443 0 0)
(106.087 0 0)
(106.766 0 0)
(107.473 0 0)
(108.204 0 0)
(108.955 0 0)
(109.725 0 0)
(110.51 0 0)
(111.307 0 0)
(112.116 0 0)
(112.935 0 0)
(113.762 0 0)
(114.596 0 0)
(115.436 0 0)
(116.282 0 0)
(117.132 0 0)
(117.985 0 0)
(118.842 0 0)
(119.702 0 0)
(120.563 0 0)
(121.426 0 0)
(122.29 0 0)
(123.155 0 0)
(124.02 0 0)
(124.885 0 0)
(125.75 0 0)
(126.617 0 0)
(127.473 0 0)
(128.363 0 0)
(129.141 0 0)
(130.263 0 0)
(245.91 0 0)
(244.201 0 0)
(242.442 0 0)
(240.633 0 0)
(238.77 0 0)
(236.851 0 0)
(234.872 0 0)
(232.83 0 0)
(230.722 0 0)
(228.543 0 0)
(226.288 0 0)
(223.953 0 0)
(221.532 0 0)
(219.017 0 0)
(216.4 0 0)
(213.674 0 0)
(210.827 0 0)
(207.846 0 0)
(204.718 0 0)
(201.424 0 0)
(197.941 0 0)
(194.244 0 0)
(190.296 0 0)
(186.053 0 0)
(181.456 0 0)
(176.419 0 0)
(170.823 0 0)
(164.508 0 0)
(157.326 0 0)
(149.28 0 0)
(140.677 0 0)
(132.141 0 0)
(124.39 0 0)
(117.933 0 0)
(112.933 0 0)
(109.271 0 0)
(106.7 0 0)
(104.959 0 0)
(103.83 0 0)
(103.147 0 0)
(102.79 0 0)
(102.677 0 0)
(102.746 0 0)
(102.956 0 0)
(103.275 0 0)
(103.682 0 0)
(104.16 0 0)
(104.695 0 0)
(105.277 0 0)
(105.9 0 0)
(106.555 0 0)
(107.238 0 0)
(107.946 0 0)
(108.674 0 0)
(109.419 0 0)
(110.18 0 0)
(110.954 0 0)
(111.739 0 0)
(112.534 0 0)
(113.337 0 0)
(114.147 0 0)
(114.963 0 0)
(115.785 0 0)
(116.612 0 0)
(117.442 0 0)
(118.275 0 0)
(119.111 0 0)
(119.948 0 0)
(120.788 0 0)
(121.629 0 0)
(122.47 0 0)
(123.312 0 0)
(124.155 0 0)
(124.996 0 0)
(125.841 0 0)
(126.673 0 0)
(127.54 0 0)
(128.298 0 0)
(129.388 0 0)
(244.281 0 0)
(242.574 0 0)
(240.819 0 0)
(239.013 0 0)
(237.153 0 0)
(235.238 0 0)
(233.263 0 0)
(231.226 0 0)
(229.122 0 0)
(226.947 0 0)
(224.697 0 0)
(222.367 0 0)
(219.949 0 0)
(217.439 0 0)
(214.826 0 0)
(212.103 0 0)
(209.259 0 0)
(206.28 0 0)
(203.152 0 0)
(199.857 0 0)
(196.371 0 0)
(192.667 0 0)
(188.708 0 0)
(184.449 0 0)
(179.827 0 0)
(174.753 0 0)
(169.103 0 0)
(162.721 0 0)
(155.484 0 0)
(147.441 0 0)
(138.952 0 0)
(130.652 0 0)
(123.214 0 0)
(117.077 0 0)
(112.35 0 0)
(108.894 0 0)
(106.463 0 0)
(104.813 0 0)
(103.737 0 0)
(103.083 0 0)
(102.74 0 0)
(102.627 0 0)
(102.69 0 0)
(102.889 0 0)
(103.194 0 0)
(103.584 0 0)
(104.043 0 0)
(104.557 0 0)
(105.119 0 0)
(105.719 0 0)
(106.352 0 0)
(107.013 0 0)
(107.698 0 0)
(108.403 0 0)
(109.125 0 0)
(109.863 0 0)
(110.613 0 0)
(111.375 0 0)
(112.146 0 0)
(112.926 0 0)
(113.713 0 0)
(114.506 0 0)
(115.305 0 0)
(116.108 0 0)
(116.915 0 0)
(117.726 0 0)
(118.539 0 0)
(119.354 0 0)
(120.17 0 0)
(120.988 0 0)
(121.807 0 0)
(122.627 0 0)
(123.447 0 0)
(124.266 0 0)
(125.088 0 0)
(125.898 0 0)
(126.742 0 0)
(127.481 0 0)
(128.539 0 0)
(242.66 0 0)
(240.956 0 0)
(239.204 0 0)
(237.402 0 0)
(235.547 0 0)
(233.635 0 0)
(231.665 0 0)
(229.632 0 0)
(227.532 0 0)
(225.362 0 0)
(223.117 0 0)
(220.791 0 0)
(218.378 0 0)
(215.871 0 0)
(213.262 0 0)
(210.542 0 0)
(207.7 0 0)
(204.723 0 0)
(201.595 0 0)
(198.298 0 0)
(194.808 0 0)
(191.096 0 0)
(187.125 0 0)
(182.847 0 0)
(178.197 0 0)
(173.083 0 0)
(167.376 0 0)
(160.928 0 0)
(153.642 0 0)
(145.62 0 0)
(137.264 0 0)
(129.213 0 0)
(122.089 0 0)
(116.265 0 0)
(111.799 0 0)
(108.537 0 0)
(106.239 0 0)
(104.673 0 0)
(103.649 0 0)
(103.023 0 0)
(102.691 0 0)
(102.58 0 0)
(102.637 0 0)
(102.825 0 0)
(103.116 0 0)
(103.49 0 0)
(103.93 0 0)
(104.425 0 0)
(104.966 0 0)
(105.546 0 0)
(106.157 0 0)
(106.796 0 0)
(107.459 0 0)
(108.141 0 0)
(108.841 0 0)
(109.556 0 0)
(110.284 0 0)
(111.023 0 0)
(111.772 0 0)
(112.53 0 0)
(113.294 0 0)
(114.065 0 0)
(114.841 0 0)
(115.622 0 0)
(116.407 0 0)
(117.195 0 0)
(117.985 0 0)
(118.778 0 0)
(119.573 0 0)
(120.369 0 0)
(121.165 0 0)
(121.963 0 0)
(122.761 0 0)
(123.558 0 0)
(124.358 0 0)
(125.147 0 0)
(125.967 0 0)
(126.688 0 0)
(127.716 0 0)
(241.048 0 0)
(239.348 0 0)
(237.6 0 0)
(235.802 0 0)
(233.951 0 0)
(232.044 0 0)
(230.078 0 0)
(228.049 0 0)
(225.954 0 0)
(223.789 0 0)
(221.548 0 0)
(219.226 0 0)
(216.817 0 0)
(214.314 0 0)
(211.709 0 0)
(208.992 0 0)
(206.151 0 0)
(203.175 0 0)
(200.046 0 0)
(196.746 0 0)
(193.251 0 0)
(189.53 0 0)
(185.545 0 0)
(181.247 0 0)
(176.567 0 0)
(171.408 0 0)
(165.642 0 0)
(159.128 0 0)
(151.804 0 0)
(143.82 0 0)
(135.618 0 0)
(127.827 0 0)
(121.017 0 0)
(115.494 0 0)
(111.277 0 0)
(108.198 0 0)
(106.026 0 0)
(104.541 0 0)
(103.565 0 0)
(102.964 0 0)
(102.644 0 0)
(102.535 0 0)
(102.587 0 0)
(102.764 0 0)
(103.042 0 0)
(103.4 0 0)
(103.822 0 0)
(104.299 0 0)
(104.82 0 0)
(105.379 0 0)
(105.97 0 0)
(106.588 0 0)
(107.229 0 0)
(107.89 0 0)
(108.568 0 0)
(109.261 0 0)
(109.967 0 0)
(110.684 0 0)
(111.411 0 0)
(112.147 0 0)
(112.889 0 0)
(113.638 0 0)
(114.393 0 0)
(115.152 0 0)
(115.915 0 0)
(116.681 0 0)
(117.45 0 0)
(118.221 0 0)
(118.994 0 0)
(119.768 0 0)
(120.544 0 0)
(121.32 0 0)
(122.096 0 0)
(122.872 0 0)
(123.65 0 0)
(124.419 0 0)
(125.217 0 0)
(125.919 0 0)
(126.918 0 0)
(239.446 0 0)
(237.75 0 0)
(236.006 0 0)
(234.212 0 0)
(232.366 0 0)
(230.463 0 0)
(228.501 0 0)
(226.477 0 0)
(224.387 0 0)
(222.226 0 0)
(219.99 0 0)
(217.672 0 0)
(215.268 0 0)
(212.768 0 0)
(210.166 0 0)
(207.451 0 0)
(204.612 0 0)
(201.636 0 0)
(198.506 0 0)
(195.202 0 0)
(191.7 0 0)
(187.969 0 0)
(183.969 0 0)
(179.648 0 0)
(174.934 0 0)
(169.728 0 0)
(163.9 0 0)
(157.324 0 0)
(149.972 0 0)
(142.046 0 0)
(134.016 0 0)
(126.495 0 0)
(119.995 0 0)
(114.765 0 0)
(110.784 0 0)
(107.878 0 0)
(105.824 0 0)
(104.414 0 0)
(103.484 0 0)
(102.909 0 0)
(102.599 0 0)
(102.491 0 0)
(102.538 0 0)
(102.706 0 0)
(102.971 0 0)
(103.313 0 0)
(103.719 0 0)
(104.178 0 0)
(104.68 0 0)
(105.22 0 0)
(105.79 0 0)
(106.388 0 0)
(107.008 0 0)
(107.648 0 0)
(108.305 0 0)
(108.977 0 0)
(109.662 0 0)
(110.358 0 0)
(111.063 0 0)
(111.777 0 0)
(112.498 0 0)
(113.226 0 0)
(113.959 0 0)
(114.697 0 0)
(115.439 0 0)
(116.184 0 0)
(116.932 0 0)
(117.682 0 0)
(118.434 0 0)
(119.187 0 0)
(119.942 0 0)
(120.697 0 0)
(121.453 0 0)
(122.207 0 0)
(122.965 0 0)
(123.713 0 0)
(124.49 0 0)
(125.174 0 0)
(126.143 0 0)
(237.854 0 0)
(236.162 0 0)
(234.423 0 0)
(232.634 0 0)
(230.791 0 0)
(228.893 0 0)
(226.937 0 0)
(224.917 0 0)
(222.832 0 0)
(220.675 0 0)
(218.443 0 0)
(216.13 0 0)
(213.729 0 0)
(211.233 0 0)
(208.633 0 0)
(205.921 0 0)
(203.083 0 0)
(200.106 0 0)
(196.974 0 0)
(193.665 0 0)
(190.156 0 0)
(186.412 0 0)
(182.395 0 0)
(178.048 0 0)
(173.298 0 0)
(168.041 0 0)
(162.15 0 0)
(155.516 0 0)
(148.151 0 0)
(140.301 0 0)
(132.461 0 0)
(125.217 0 0)
(119.024 0 0)
(114.074 0 0)
(110.318 0 0)
(107.576 0 0)
(105.632 0 0)
(104.294 0 0)
(103.406 0 0)
(102.855 0 0)
(102.556 0 0)
(102.449 0 0)
(102.492 0 0)
(102.651 0 0)
(102.903 0 0)
(103.231 0 0)
(103.621 0 0)
(104.062 0 0)
(104.546 0 0)
(105.066 0 0)
(105.617 0 0)
(106.195 0 0)
(106.795 0 0)
(107.415 0 0)
(108.052 0 0)
(108.703 0 0)
(109.367 0 0)
(110.042 0 0)
(110.727 0 0)
(111.42 0 0)
(112.121 0 0)
(112.828 0 0)
(113.541 0 0)
(114.258 0 0)
(114.979 0 0)
(115.703 0 0)
(116.431 0 0)
(117.16 0 0)
(117.892 0 0)
(118.625 0 0)
(119.359 0 0)
(120.094 0 0)
(120.829 0 0)
(121.564 0 0)
(122.301 0 0)
(123.029 0 0)
(123.785 0 0)
(124.451 0 0)
(125.393 0 0)
(236.273 0 0)
(234.586 0 0)
(232.851 0 0)
(231.066 0 0)
(229.228 0 0)
(227.335 0 0)
(225.383 0 0)
(223.369 0 0)
(221.288 0 0)
(219.136 0 0)
(216.908 0 0)
(214.599 0 0)
(212.201 0 0)
(209.708 0 0)
(207.111 0 0)
(204.4 0 0)
(201.562 0 0)
(198.585 0 0)
(195.449 0 0)
(192.135 0 0)
(188.617 0 0)
(184.86 0 0)
(180.823 0 0)
(176.449 0 0)
(171.659 0 0)
(166.349 0 0)
(160.394 0 0)
(153.709 0 0)
(146.345 0 0)
(138.591 0 0)
(130.955 0 0)
(123.993 0 0)
(118.102 0 0)
(113.421 0 0)
(109.878 0 0)
(107.289 0 0)
(105.45 0 0)
(104.179 0 0)
(103.333 0 0)
(102.804 0 0)
(102.515 0 0)
(102.41 0 0)
(102.447 0 0)
(102.597 0 0)
(102.838 0 0)
(103.152 0 0)
(103.526 0 0)
(103.95 0 0)
(104.417 0 0)
(104.919 0 0)
(105.451 0 0)
(106.01 0 0)
(106.591 0 0)
(107.191 0 0)
(107.807 0 0)
(108.439 0 0)
(109.083 0 0)
(109.738 0 0)
(110.403 0 0)
(111.076 0 0)
(111.757 0 0)
(112.444 0 0)
(113.136 0 0)
(113.833 0 0)
(114.534 0 0)
(115.239 0 0)
(115.946 0 0)
(116.656 0 0)
(117.368 0 0)
(118.081 0 0)
(118.795 0 0)
(119.51 0 0)
(120.225 0 0)
(120.94 0 0)
(121.658 0 0)
(122.367 0 0)
(123.102 0 0)
(123.751 0 0)
(124.665 0 0)
(234.703 0 0)
(233.02 0 0)
(231.29 0 0)
(229.51 0 0)
(227.677 0 0)
(225.789 0 0)
(223.841 0 0)
(221.831 0 0)
(219.755 0 0)
(217.608 0 0)
(215.384 0 0)
(213.079 0 0)
(210.685 0 0)
(208.194 0 0)
(205.599 0 0)
(202.889 0 0)
(200.051 0 0)
(197.072 0 0)
(193.933 0 0)
(190.612 0 0)
(187.083 0 0)
(183.312 0 0)
(179.253 0 0)
(174.848 0 0)
(170.016 0 0)
(164.649 0 0)
(158.633 0 0)
(151.904 0 0)
(144.557 0 0)
(136.919 0 0)
(129.502 0 0)
(122.825 0 0)
(117.227 0 0)
(112.804 0 0)
(109.462 0 0)
(107.018 0 0)
(105.278 0 0)
(104.07 0 0)
(103.262 0 0)
(102.755 0 0)
(102.475 0 0)
(102.371 0 0)
(102.405 0 0)
(102.546 0 0)
(102.776 0 0)
(103.076 0 0)
(103.435 0 0)
(103.844 0 0)
(104.293 0 0)
(104.778 0 0)
(105.292 0 0)
(105.832 0 0)
(106.394 0 0)
(106.975 0 0)
(107.572 0 0)
(108.185 0 0)
(108.809 0 0)
(109.445 0 0)
(110.09 0 0)
(110.744 0 0)
(111.405 0 0)
(112.073 0 0)
(112.745 0 0)
(113.423 0 0)
(114.105 0 0)
(114.79 0 0)
(115.478 0 0)
(116.168 0 0)
(116.86 0 0)
(117.554 0 0)
(118.249 0 0)
(118.945 0 0)
(119.641 0 0)
(120.337 0 0)
(121.035 0 0)
(121.725 0 0)
(122.44 0 0)
(123.073 0 0)
(123.96 0 0)
(233.144 0 0)
(231.466 0 0)
(229.74 0 0)
(227.965 0 0)
(226.137 0 0)
(224.254 0 0)
(222.311 0 0)
(220.306 0 0)
(218.234 0 0)
(216.091 0 0)
(213.872 0 0)
(211.57 0 0)
(209.179 0 0)
(206.691 0 0)
(204.098 0 0)
(201.388 0 0)
(198.55 0 0)
(195.567 0 0)
(192.423 0 0)
(189.095 0 0)
(185.554 0 0)
(181.766 0 0)
(177.684 0 0)
(173.246 0 0)
(168.368 0 0)
(162.943 0 0)
(156.867 0 0)
(150.104 0 0)
(142.791 0 0)
(135.287 0 0)
(128.102 0 0)
(121.711 0 0)
(116.399 0 0)
(112.222 0 0)
(109.07 0 0)
(106.762 0 0)
(105.114 0 0)
(103.966 0 0)
(103.194 0 0)
(102.707 0 0)
(102.437 0 0)
(102.335 0 0)
(102.364 0 0)
(102.498 0 0)
(102.716 0 0)
(103.004 0 0)
(103.349 0 0)
(103.742 0 0)
(104.175 0 0)
(104.642 0 0)
(105.139 0 0)
(105.661 0 0)
(106.205 0 0)
(106.767 0 0)
(107.346 0 0)
(107.94 0 0)
(108.546 0 0)
(109.163 0 0)
(109.789 0 0)
(110.424 0 0)
(111.066 0 0)
(111.714 0 0)
(112.368 0 0)
(113.027 0 0)
(113.689 0 0)
(114.356 0 0)
(115.025 0 0)
(115.696 0 0)
(116.37 0 0)
(117.045 0 0)
(117.721 0 0)
(118.398 0 0)
(119.075 0 0)
(119.752 0 0)
(120.432 0 0)
(121.103 0 0)
(121.799 0 0)
(122.415 0 0)
(123.277 0 0)
(231.596 0 0)
(229.923 0 0)
(228.203 0 0)
(226.432 0 0)
(224.61 0 0)
(222.731 0 0)
(220.793 0 0)
(218.793 0 0)
(216.725 0 0)
(214.586 0 0)
(212.371 0 0)
(210.072 0 0)
(207.684 0 0)
(205.198 0 0)
(202.606 0 0)
(199.897 0 0)
(197.057 0 0)
(194.071 0 0)
(190.921 0 0)
(187.584 0 0)
(184.03 0 0)
(180.224 0 0)
(176.116 0 0)
(171.641 0 0)
(166.715 0 0)
(161.231 0 0)
(155.098 0 0)
(148.313 0 0)
(141.052 0 0)
(133.701 0 0)
(126.757 0 0)
(120.65 0 0)
(115.616 0 0)
(111.672 0 0)
(108.7 0 0)
(106.52 0 0)
(104.959 0 0)
(103.867 0 0)
(103.13 0 0)
(102.662 0 0)
(102.401 0 0)
(102.3 0 0)
(102.325 0 0)
(102.451 0 0)
(102.659 0 0)
(102.935 0 0)
(103.266 0 0)
(103.644 0 0)
(104.061 0 0)
(104.512 0 0)
(104.992 0 0)
(105.497 0 0)
(106.023 0 0)
(106.568 0 0)
(107.129 0 0)
(107.704 0 0)
(108.292 0 0)
(108.89 0 0)
(109.498 0 0)
(110.115 0 0)
(110.738 0 0)
(111.368 0 0)
(112.004 0 0)
(112.644 0 0)
(113.288 0 0)
(113.936 0 0)
(114.587 0 0)
(115.24 0 0)
(115.895 0 0)
(116.552 0 0)
(117.21 0 0)
(117.868 0 0)
(118.528 0 0)
(119.187 0 0)
(119.848 0 0)
(120.501 0 0)
(121.178 0 0)
(121.779 0 0)
(122.615 0 0)
(230.06 0 0)
(228.392 0 0)
(226.677 0 0)
(224.912 0 0)
(223.094 0 0)
(221.22 0 0)
(219.287 0 0)
(217.291 0 0)
(215.228 0 0)
(213.093 0 0)
(210.881 0 0)
(208.586 0 0)
(206.2 0 0)
(203.716 0 0)
(201.125 0 0)
(198.414 0 0)
(195.572 0 0)
(192.583 0 0)
(189.426 0 0)
(186.079 0 0)
(182.511 0 0)
(178.683 0 0)
(174.547 0 0)
(170.034 0 0)
(165.056 0 0)
(159.513 0 0)
(153.329 0 0)
(146.534 0 0)
(139.344 0 0)
(132.162 0 0)
(125.467 0 0)
(119.643 0 0)
(114.875 0 0)
(111.155 0 0)
(108.351 0 0)
(106.291 0 0)
(104.811 0 0)
(103.772 0 0)
(103.068 0 0)
(102.619 0 0)
(102.366 0 0)
(102.266 0 0)
(102.288 0 0)
(102.407 0 0)
(102.605 0 0)
(102.869 0 0)
(103.187 0 0)
(103.55 0 0)
(103.952 0 0)
(104.387 0 0)
(104.851 0 0)
(105.339 0 0)
(105.848 0 0)
(106.375 0 0)
(106.919 0 0)
(107.477 0 0)
(108.047 0 0)
(108.628 0 0)
(109.218 0 0)
(109.817 0 0)
(110.422 0 0)
(111.034 0 0)
(111.652 0 0)
(112.274 0 0)
(112.901 0 0)
(113.531 0 0)
(114.164 0 0)
(114.799 0 0)
(115.436 0 0)
(116.075 0 0)
(116.715 0 0)
(117.356 0 0)
(117.998 0 0)
(118.639 0 0)
(119.282 0 0)
(119.918 0 0)
(120.576 0 0)
(121.162 0 0)
(121.973 0 0)
(228.536 0 0)
(226.873 0 0)
(225.163 0 0)
(223.403 0 0)
(221.59 0 0)
(219.721 0 0)
(217.793 0 0)
(215.801 0 0)
(213.743 0 0)
(211.611 0 0)
(209.403 0 0)
(207.11 0 0)
(204.727 0 0)
(202.244 0 0)
(199.653 0 0)
(196.942 0 0)
(194.097 0 0)
(191.102 0 0)
(187.938 0 0)
(184.579 0 0)
(180.994 0 0)
(177.145 0 0)
(172.978 0 0)
(168.423 0 0)
(163.392 0 0)
(157.79 0 0)
(151.562 0 0)
(144.772 0 0)
(137.671 0 0)
(130.674 0 0)
(124.233 0 0)
(118.687 0 0)
(114.177 0 0)
(110.666 0 0)
(108.022 0 0)
(106.075 0 0)
(104.672 0 0)
(103.683 0 0)
(103.009 0 0)
(102.577 0 0)
(102.332 0 0)
(102.234 0 0)
(102.252 0 0)
(102.365 0 0)
(102.553 0 0)
(102.806 0 0)
(103.111 0 0)
(103.46 0 0)
(103.848 0 0)
(104.268 0 0)
(104.715 0 0)
(105.187 0 0)
(105.68 0 0)
(106.191 0 0)
(106.717 0 0)
(107.258 0 0)
(107.811 0 0)
(108.375 0 0)
(108.948 0 0)
(109.529 0 0)
(110.118 0 0)
(110.712 0 0)
(111.313 0 0)
(111.918 0 0)
(112.527 0 0)
(113.139 0 0)
(113.755 0 0)
(114.373 0 0)
(114.993 0 0)
(115.614 0 0)
(116.237 0 0)
(116.861 0 0)
(117.485 0 0)
(118.109 0 0)
(118.735 0 0)
(119.354 0 0)
(119.994 0 0)
(120.565 0 0)
(121.352 0 0)
(227.024 0 0)
(225.366 0 0)
(223.662 0 0)
(221.907 0 0)
(220.099 0 0)
(218.234 0 0)
(216.311 0 0)
(214.324 0 0)
(212.269 0 0)
(210.142 0 0)
(207.936 0 0)
(205.646 0 0)
(203.264 0 0)
(200.783 0 0)
(198.191 0 0)
(195.478 0 0)
(192.629 0 0)
(189.629 0 0)
(186.455 0 0)
(183.084 0 0)
(179.482 0 0)
(175.608 0 0)
(171.407 0 0)
(166.809 0 0)
(161.723 0 0)
(156.064 0 0)
(149.8 0 0)
(143.031 0 0)
(136.037 0 0)
(129.238 0 0)
(123.056 0 0)
(117.782 0 0)
(113.518 0 0)
(110.207 0 0)
(107.711 0 0)
(105.871 0 0)
(104.539 0 0)
(103.597 0 0)
(102.953 0 0)
(102.538 0 0)
(102.3 0 0)
(102.203 0 0)
(102.218 0 0)
(102.324 0 0)
(102.504 0 0)
(102.745 0 0)
(103.038 0 0)
(103.374 0 0)
(103.748 0 0)
(104.153 0 0)
(104.585 0 0)
(105.042 0 0)
(105.518 0 0)
(106.013 0 0)
(106.523 0 0)
(107.048 0 0)
(107.584 0 0)
(108.131 0 0)
(108.687 0 0)
(109.252 0 0)
(109.823 0 0)
(110.401 0 0)
(110.985 0 0)
(111.573 0 0)
(112.165 0 0)
(112.761 0 0)
(113.36 0 0)
(113.961 0 0)
(114.564 0 0)
(115.168 0 0)
(115.774 0 0)
(116.381 0 0)
(116.989 0 0)
(117.596 0 0)
(118.205 0 0)
(118.807 0 0)
(119.43 0 0)
(119.986 0 0)
(120.751 0 0)
(225.525 0 0)
(223.872 0 0)
(222.172 0 0)
(220.423 0 0)
(218.619 0 0)
(216.76 0 0)
(214.841 0 0)
(212.858 0 0)
(210.807 0 0)
(208.683 0 0)
(206.481 0 0)
(204.193 0 0)
(201.813 0 0)
(199.331 0 0)
(196.739 0 0)
(194.023 0 0)
(191.17 0 0)
(188.163 0 0)
(184.979 0 0)
(181.593 0 0)
(177.972 0 0)
(174.071 0 0)
(169.835 0 0)
(165.19 0 0)
(160.048 0 0)
(154.336 0 0)
(148.046 0 0)
(141.314 0 0)
(134.446 0 0)
(127.856 0 0)
(121.934 0 0)
(116.926 0 0)
(112.896 0 0)
(109.774 0 0)
(107.419 0 0)
(105.677 0 0)
(104.413 0 0)
(103.516 0 0)
(102.899 0 0)
(102.5 0 0)
(102.27 0 0)
(102.174 0 0)
(102.186 0 0)
(102.285 0 0)
(102.456 0 0)
(102.687 0 0)
(102.969 0 0)
(103.292 0 0)
(103.652 0 0)
(104.043 0 0)
(104.461 0 0)
(104.902 0 0)
(105.363 0 0)
(105.842 0 0)
(106.337 0 0)
(106.845 0 0)
(107.365 0 0)
(107.896 0 0)
(108.436 0 0)
(108.985 0 0)
(109.54 0 0)
(110.101 0 0)
(110.668 0 0)
(111.24 0 0)
(111.816 0 0)
(112.395 0 0)
(112.978 0 0)
(113.562 0 0)
(114.149 0 0)
(114.738 0 0)
(115.327 0 0)
(115.918 0 0)
(116.509 0 0)
(117.1 0 0)
(117.692 0 0)
(118.279 0 0)
(118.885 0 0)
(119.426 0 0)
(120.168 0 0)
(224.037 0 0)
(222.39 0 0)
(220.696 0 0)
(218.951 0 0)
(217.153 0 0)
(215.298 0 0)
(213.383 0 0)
(211.405 0 0)
(209.357 0 0)
(207.237 0 0)
(205.037 0 0)
(202.751 0 0)
(200.371 0 0)
(197.89 0 0)
(195.296 0 0)
(192.577 0 0)
(189.719 0 0)
(186.704 0 0)
(183.509 0 0)
(180.107 0 0)
(176.464 0 0)
(172.535 0 0)
(168.261 0 0)
(163.567 0 0)
(158.369 0 0)
(152.608 0 0)
(146.305 0 0)
(139.627 0 0)
(132.9 0 0)
(126.529 0 0)
(120.868 0 0)
(116.117 0 0)
(112.312 0 0)
(109.366 0 0)
(107.143 0 0)
(105.495 0 0)
(104.294 0 0)
(103.438 0 0)
(102.848 0 0)