/*--------------------------------*- C++ -*----------------------------------*\
| =========                 |                                                 |
| \\      /  F ield         | OpenFOAM: The Open Source CFD Toolbox           |
|  \\    /   O peration     | Version:  2312                                  |
|   \\  /    A nd           | Website:  www.openfoam.com                      |
|    \\/     M anipulation  |                                                 |
\*---------------------------------------------------------------------------*/
FoamFile
{
    version     2.0;
    format      ascii;
    arch        "LSB;label=32;scalar=64";
    class       surfaceScalarField;
    location    "1";
    object      phi;
}
// * * * * * * * * * * * * * * * * * * * * * * * * * * * * * * * * * * * * * //

dimensions      [0 3 -1 0 0 0 0];

oriented        oriented;

internalField   nonuniform List<scalar> 
62015
(
68.0269
0.357743
-67.9376
68.1058
0.352614
68.1753
0.347191
68.2361
0.341479
68.2891
0.335485
68.335
0.329216
68.3745
0.322677
68.4084
0.315875
68.4372
0.308817
68.4616
0.301509
68.4822
0.293957
68.4996
0.286167
68.5142
0.278146
68.5266
0.269902
68.5373
0.26144
68.5467
0.252767
68.5553
0.24389
68.5635
0.234816
68.5716
0.225552
68.5801
0.216104
68.5893
0.20648
68.5996
0.196686
68.6111
0.186731
68.6243
0.176621
68.6394
0.166363
68.6567
0.155966
68.6763
0.145435
68.6986
0.13478
68.7237
0.124008
68.7517
0.113125
68.7829
0.102141
68.8173
0.0910618
68.8552
0.0798972
68.8965
0.0686535
68.9414
0.05734
68.99
0.0459637
69.0422
0.0345338
69.0981
0.0230573
69.1578
0.0115433
69.2211
0
69.288
-0.0115646
69.3585
-0.023141
69.4325
-0.0347224
69.5099
-0.0462984
69.5905
-0.0578618
69.6742
-0.0694029
69.7607
-0.0809136
69.85
-0.0923842
69.9416
-0.103807
70.0354
-0.115172
70.131
-0.12647
70.2282
-0.137692
70.3264
-0.148829
70.4254
-0.159871
70.5245
-0.170809
70.6234
-0.181633
70.7215
-0.192334
70.8181
-0.2029
70.9125
-0.213322
71.0041
-0.223589
71.0919
-0.233692
71.1752
-0.243617
71.2528
-0.253355
71.3237
-0.262892
71.3867
-0.272218
71.4402
-0.281318
71.4828
-0.290179
71.5129
-0.298787
71.5281
-0.307127
71.5248
-0.315179
71.502
-0.322922
71.4638
-0.330341
71.4068
-0.33744
71.2728
-0.344227
71.058
-0.350293
70.7322
-0.356172
71.6173
-0.35962
70.9501
-0.373131
-0.368541
69.7701
66.3612
0.708865
-66.2997
66.4143
0.698449
66.4594
0.68747
66.4973
0.67594
66.5286
0.663871
66.5541
0.651276
66.5745
0.638164
66.5902
0.624549
66.6019
0.610442
66.6102
0.595855
66.6156
0.5808
66.6185
0.565289
66.6195
0.549336
66.6191
0.532951
66.6176
0.516149
66.6155
0.49894
66.6132
0.48134
66.6111
0.463359
66.6095
0.445013
66.6087
0.426313
66.6091
0.407274
66.6111
0.387909
66.6147
0.368232
66.6205
0.348257
66.6285
0.327997
66.639
0.307468
66.6523
0.286683
66.6685
0.265657
66.6878
0.244405
66.7104
0.222941
66.7365
0.20128
66.7661
0.179437
66.7993
0.157428
66.8364
0.135267
66.8772
0.112971
66.922
0.0905542
66.9707
0.0680329
67.0234
0.0454227
67.08
0.0227399
67.1406
0
67.2052
-0.0227807
67.2735
-0.0455855
67.3457
-0.0683989
67.4215
-0.091204
67.5009
-0.113983
67.5838
-0.136721
67.6699
-0.159401
67.759
-0.182004
67.851
-0.204515
67.9456
-0.226916
68.0426
-0.249189
68.1415
-0.271317
68.2422
-0.293282
68.3442
-0.315067
68.447
-0.336652
68.5504
-0.35802
68.6537
-0.379152
68.7565
-0.400028
68.8581
-0.42063
68.9579
-0.440939
69.0552
-0.460932
69.1492
-0.480592
69.2391
-0.499895
69.3239
-0.51882
69.4025
-0.537345
69.4738
-0.555446
69.5365
-0.573098
69.5892
-0.590276
69.6303
-0.606951
69.6577
-0.623097
69.6684
-0.638677
69.6596
-0.653654
69.6399
-0.667966
69.5889
-0.681767
69.5378
-0.694491
69.2021
-0.707601
69.2393
-0.715185
69.3776
-0.730516
-0.738787
69.3911
64.7319
1.05338
-64.6955
64.7612
1.03754
64.784
1.0209
64.8007
1.00347
64.8122
0.985261
64.819
0.966299
64.8216
0.946595
64.8206
0.926167
64.8166
0.905031
64.81
0.883205
64.8012
0.860704
64.7909
0.837548
64.7793
0.813752
64.7669
0.789335
64.7542
0.764315
64.7414
0.73871
64.729
0.712538
64.7172
0.685818
64.7065
0.65857
64.6971
0.630811
64.6893
0.602562
64.6835
0.573842
64.6797
0.544671
64.6784
0.515069
64.6797
0.485056
64.6839
0.454653
64.6911
0.423881
64.7016
0.39276
64.7154
0.361311
64.7329
0.329556
64.7539
0.297516
64.7788
0.265214
64.8077
0.23267
64.8405
0.199908
64.8774
0.166949
64.9184
0.133816
64.9635
0.100532
65.0129
0.067119
65.0665
0.0336011
65.1243
0
65.1862
-0.0336601
65.2522
-0.0673554
65.3223
-0.101063
65.3963
-0.134758
65.4741
-0.168418
65.5557
-0.202017
65.6409
-0.235533
65.7294
-0.268939
65.8212
-0.302212
65.916
-0.335327
66.0135
-0.368258
66.1135
-0.400981
66.2157
-0.433469
66.3197
-0.465699
66.4252
-0.497642
66.5319
-0.529273
66.6392
-0.560565
66.7467
-0.591493
66.8538
-0.622028
66.9601
-0.652142
67.0649
-0.681807
67.1675
-0.710995
67.2672
-0.739675
67.3632
-0.767819
67.4546
-0.795393
67.5403
-0.822366
67.6194
-0.848705
67.6905
-0.874374
67.7525
-0.899337
67.8037
-0.923554
67.8427
-0.946983
67.8648
-0.969595
67.8743
-0.991255
67.8535
-1.01216
67.8597
-1.03157
67.7519
-1.05145
67.5879
-1.06736
67.4987
-1.08403
-1.09791
67.6076
63.1289
1.39115
-63.115
63.137
1.36979
63.1398
1.34741
63.1377
1.32402
63.1313
1.29964
63.1213
1.2743
63.108
1.248
63.0921
1.22078
63.0738
1.19265
63.0538
1.16364
63.0324
1.13377
63.01
1.10305
62.9871
1.07151
62.964
1.03918
62.941
1.00607
62.9185
0.97221
62.8969
0.937624
62.8765
0.902334
62.8575
0.866364
62.8402
0.82974
62.825
0.792485
62.812
0.754625
62.8015
0.716185
62.7938
0.677191
62.7889
0.637668
62.7872
0.597645
62.7889
0.557145
62.794
0.516197
62.8028
0.474829
62.8153
0.433067
62.8318
0.390938
62.8522
0.348471
62.8768
0.305695
62.9056
0.262637
62.9387
0.219326
62.9761
0.175791
63.0179
0.132062
63.064
0.0881671
63.1145
0.0441366
63.1694
0
63.2287
-0.0442127
63.2923
-0.088471
63.3601
-0.132745
63.4322
-0.177003
63.5083
-0.221216
63.5883
-0.265352
63.6723
-0.30938
63.7599
-0.353268
63.851
-0.396985
63.9455
-0.4405
64.043
-0.483779
64.1434
-0.526791
64.2465
-0.569504
64.3518
-0.611885
64.4591
-0.6539
64.5681
-0.695517
64.6783
-0.736702
64.7894
-0.77742
64.9008
-0.817638
65.0121
-0.85732
65.1228
-0.896432
65.2323
-0.934935
65.3399
-0.972795
65.4449
-1.00997
65.5466
-1.04643
65.6442
-1.08213
65.7366
-1.11703
65.8229
-1.15108
65.902
-1.18425
65.9724
-1.21649
66.0335
-1.24773
66.0816
-1.27797
66.1196
-1.30704
66.1323
-1.33514
66.1432
-1.36158
66.138
-1.38748
66.0801
-1.41143
65.927
-1.43437
-1.4519
65.9813
61.5487
1.72203
-61.5547
61.5381
1.69509
61.5231
1.66692
61.5043
1.63755
61.4822
1.60698
61.4573
1.57526
61.43
1.5424
61.4007
1.50842
61.3699
1.47335
61.3379
1.43722
61.3052
1.40005
61.2722
1.36187
61.2391
1.3227
61.2064
1.28258
61.1744
1.24152
61.1433
1.19955
61.1135
1.15671
61.0853
1.11303
61.0589
1.06852
61.0346
1.02322
61.0126
0.977165
60.9932
0.930379
60.9766
0.882893
60.9631
0.834739
60.9527
0.785948
60.9457
0.736552
60.9423
0.686582
60.9425
0.636072
60.9466
0.585054
60.9547
0.533561
60.9669
0.481626
60.9833
0.429283
61.004
0.376566
61.0291
0.32351
61.0586
0.270149
61.0925
0.216517
61.131
0.162652
61.1741
0.108586
61.2217
0.0543568
61.2738
0
61.3305
-0.0544484
61.3916
-0.108952
61.4572
-0.163475
61.5272
-0.217979
61.6015
-0.272428
61.6799
-0.326784
61.7624
-0.381009
61.8488
-0.435067
61.939
-0.48892
62.0328
-0.542527
62.1301
-0.595853
62.2305
-0.648858
62.3338
-0.701502
62.4399
-0.753748
62.5484
-0.805555
62.659
-0.856884
62.7713
-0.907695
62.885
-0.957947
62.9998
-1.0076
63.115
-1.05661
63.2304
-1.10494
63.3454
-1.15254
63.4593
-1.19938
63.5717
-1.2454
63.6819
-1.29057
63.789
-1.33484
63.8924
-1.37815
63.9912
-1.42047
64.0845
-1.46173
64.1709
-1.5019
64.2499
-1.54091
64.319
-1.57872
64.3793
-1.61521
64.4248
-1.65046
64.455
-1.68413
64.473
-1.71647
64.4926
-1.74698
64.4078
-1.77734
-1.8005
64.476
59.9909
2.0459
-60.0143
59.9638
2.01334
59.9332
1.97937
59.8998
1.944
59.8638
1.90726
59.8257
1.86918
59.786
1.82979
59.745
1.78911
59.7031
1.74717
59.6606
1.70401
59.618
1.65964
59.5755
1.6141
59.5335
1.56742
59.4924
1.51963
59.4523
1.47076
59.4136
1.42085
59.3765
1.36992
59.3414
1.31801
59.3084
1.26515
59.2779
1.21137
59.2499
1.15672
59.2249
1.10122
59.2028
1.04491
59.1841
0.987827
59.1687
0.930004
59.157
0.871481
59.149
0.812293
59.1448
0.752478
59.1447
0.692075
59.1488
0.631121
59.1571
0.569655
59.1698
0.507717
59.1869
0.445346
59.2085
0.382581
59.2347
0.319463
59.2654
0.256032
59.3009
0.192329
59.341
0.128395
59.3858
0.0642714
59.4353
0
59.4895
-0.0643773
59.5483
-0.128819
59.6116
-0.193281
59.6795
-0.257722
59.7519
-0.322099
59.8286
-0.386369
59.9095
-0.450488
59.9946
-0.514412
60.0837
-0.578098
60.1766
-0.641502
60.2732
-0.70458
60.3733
-0.767286
60.4766
-0.829577
60.583
-0.891407
60.6921
-0.952731
60.8037
-1.0135
60.9175
-1.07368
61.0332
-1.13321
61.1504
-1.19205
61.2687
-1.25016
61.3878
-1.30748
61.5071
-1.36396
61.6262
-1.41957
61.7445
-1.47424
61.8615
-1.52794
61.9766
-1.5806
62.089
-1.63217
62.1981
-1.68261
62.303
-1.73186
62.4028
-1.77986
62.4967
-1.82654
62.5832
-1.87186
62.6616
-1.91572
62.7305
-1.95811
62.7883
-1.99888
62.8262
-2.03812
62.8736
-2.07502
62.8479
-2.11207
-2.14172
62.9501
58.4562
2.36268
-58.4948
58.4146
2.32449
58.3705
2.28471
58.3241
2.24336
58.276
2.20048
58.2264
2.15609
58.1758
2.11022
58.1245
2.06291
58.0728
2.01418
58.0212
1.96407
57.9698
1.91261
57.9191
1.85982
57.8693
1.80576
57.8207
1.75045
57.7735
1.69392
57.7281
1.63621
57.6846
1.57736
57.6434
1.5174
57.6047
1.45637
57.5686
1.39432
57.5354
1.33127
57.5053
1.26727
57.4785
1.20235
57.4551
1.13656
57.4353
1.06995
57.4193
1.00253
57.4072
0.934375
57.3991
0.865509
57.3953
0.79598
57.3957
0.725829
57.4005
0.655102
57.4097
0.583842
57.4235
0.512093
57.442
0.439901
57.4651
0.367311
57.4929
0.294369
57.5256
0.22112
57.5629
0.147611
57.6051
0.0738891
57.6521
0
57.7038
-0.0740083
57.7603
-0.148088
57.8215
-0.222191
57.8873
-0.296271
57.9578
-0.370277
58.0327
-0.444163
58.112
-0.517878
58.1957
-0.591375
58.2835
-0.664603
58.3753
-0.737513
58.4711
-0.810056
58.5705
-0.882182
58.6735
-0.95384
58.7797
-1.02498
58.8891
-1.09555
59.0013
-1.1655
59.116
-1.23479
59.233
-1.30335
59.352
-1.37113
59.4726
-1.43809
59.5945
-1.50418
59.7172
-1.56933
59.8403
-1.63349
59.9634
-1.69662
60.086
-1.75865
60.2074
-1.81954
60.3273
-1.87921
60.4448
-1.93763
60.5594
-1.99471
60.6701
-2.05042
60.7764
-2.10467
60.8771
-2.15742
60.9713
-2.20857
61.0576
-2.2581
61.1373
-2.30584
61.1997
-2.35199
61.267
-2.39556
61.2761
-2.43906
-2.47508
61.4003
56.9458
2.67234
-56.9978
56.8916
2.62852
56.8356
2.58295
56.778
2.53565
56.7192
2.48667
56.6596
2.43602
56.5995
2.38375
56.5392
2.32988
56.479
2.27445
56.4193
2.21749
56.3603
2.15905
56.3024
2.09914
56.2457
2.03783
56.1905
1.97513
56.1372
1.91109
56.0859
1.84575
56.0369
1.77914
55.9904
1.71132
55.9465
1.64231
55.9056
1.57217
55.8678
1.50093
55.8332
1.42863
55.8021
1.35533
55.7747
1.28106
55.751
1.20588
55.7312
1.12981
55.7154
1.05293
55.7039
0.975256
55.6966
0.896853
55.6937
0.817764
55.6953
0.738038
55.7015
0.657722
55.7124
0.576867
55.7279
0.495523
55.7482
0.413738
55.7733
0.331565
55.8033
0.249052
55.8381
0.166253
55.8778
0.0832183
55.9224
0
55.9718
-0.0833496
56.026
-0.166778
56.0851
-0.250232
56.1489
-0.33366
56.2174
-0.417006
56.2906
-0.500219
56.3682
-0.583243
56.4503
-0.666025
56.5368
-0.748512
56.6274
-0.830647
56.7221
-0.912376
56.8207
-0.993645
56.923
-1.0744
57.0289
-1.15458
57.1381
-1.23414
57.2504
-1.31301
57.3656
-1.39115
57.4834
-1.46849
57.6036
-1.54498
57.7258
-1.62057
57.8497
-1.69519
57.975
-1.76878
58.1012
-1.8413
58.2281
-1.91268
58.355
-1.98286
58.4817
-2.05178
58.6075
-2.11939
58.7319
-2.18562
58.8543
-2.2504
58.974
-2.31368
59.0905
-2.37538
59.2028
-2.43545
59.3103
-2.4938
59.4113
-2.55039
59.5073
-2.60505
59.5904
-2.65801
59.6777
-2.70829
59.7143
-2.75831
-2.80068
59.8531
55.4609
2.97486
-55.5245
55.3958
2.92544
55.3293
2.87411
55.2619
2.82091
55.1939
2.76588
55.1255
2.70904
55.0571
2.65043
54.989
2.5901
54.9214
2.52806
54.8547
2.46437
54.7891
2.39906
54.7249
2.33217
54.6622
2.26373
54.6014
2.1938
54.5427
2.1224
54.4863
2.04959
54.4324
1.9754
54.3812
1.89989
54.3329
1.82309
54.2878
1.74505
54.2459
1.66581
54.2075
1.58544
54.1726
1.50396
54.1416
1.42143
54.1144
1.3379
54.0913
1.25342
54.0723
1.16804
54.0576
1.08181
54.0473
0.99478
54.0415
0.907004
54.0402
0.818534
54.0436
0.729423
54.0517
0.639725
54.0646
0.549494
54.0824
0.458784
54.105
0.367651
54.1325
0.27615
54.1649
0.184337
54.2022
0.0922684
54.2445
0
54.2917
-0.0924109
54.3439
-0.184907
54.4009
-0.277431
54.4627
-0.369924
54.5293
-0.46233
54.6006
-0.554589
54.6765
-0.646643
54.757
-0.738433
54.842
-0.829901
54.9312
-0.920987
55.0247
-1.01163
55.1223
-1.10178
55.2237
-1.19136
55.3289
-1.28032
55.4377
-1.36861
55.5498
-1.45615
55.6651
-1.54289
55.7832
-1.62877
55.9041
-1.71373
56.0273
-1.79771
56.1526
-1.88064
56.2797
-1.96247
56.4083
-2.04313
56.538
-2.12256
56.6684
-2.20069
56.7991
-2.27747
56.9296
-2.35283
57.0595
-2.42671
57.1883
-2.49903
57.3153
-2.56974
57.4401
-2.63876
57.5619
-2.70603
57.6802
-2.77147
57.7936
-2.83503
57.903
-2.89654
58.0022
-2.95622
58.1062
-3.01312
58.1667
-3.06966
-3.11842
58.3175
54.0024
3.27025
-54.0762
53.9278
3.21526
53.8523
3.15822
53.7764
3.09918
53.7004
3.03817
53.6244
2.97522
53.5489
2.91037
53.474
2.84366
53.4
2.77513
53.3272
2.70481
53.2559
2.63276
53.1862
2.559
53.1184
2.48359
53.0527
2.40656
52.9893
2.32797
52.9285
2.24785
52.8703
2.16625
52.8151
2.08322
52.763
1.99882
52.7142
1.91307
52.6687
1.82605
52.6269
1.73779
52.5888
1.64835
52.5546
1.55778
52.5244
1.46613
52.4983
1.37346
52.4765
1.27981
52.459
1.18526
52.446
1.08984
52.4375
0.993625
52.4337
0.896661
52.4346
0.799007
52.4402
0.700722
52.4507
0.601863
52.4661
0.50249
52.4864
0.402662
52.5116
0.302439
52.5417
0.201881
52.5769
0.101047
52.617
0
52.6621
-0.1012
52.7122
-0.202491
52.7672
-0.303811
52.827
-0.405098
52.8918
-0.50629
52.9612
-0.607323
53.0354
-0.708136
53.1143
-0.808665
53.1976
-0.908846
53.2855
-1.00862
53.3776
-1.10791
53.4739
-1.20667
53.5743
-1.30483
53.6786
-1.40231
53.7867
-1.49907
53.8982
-1.59504
54.0132
-1.69014
54.1313
-1.78433
54.2524
-1.87752
54.3761
-1.96966
54.5023
-2.06068
54.6306
-2.15052
54.7608
-2.23912
54.8926
-2.32639
55.0255
-2.41229
55.1593
-2.49674
55.2935
-2.57967
55.4277
-2.66103
55.5615
-2.74073
55.6945
-2.81872
55.826
-2.89492
55.9554
-2.96926
56.0825
-3.04166
56.2059
-3.11208
56.3265
-3.18034
56.4388
-3.24665
56.5561
-3.3101
56.6362
-3.37305
-3.4282
56.7966
52.5713
3.55855
-52.6537
52.4884
3.49804
52.4051
3.43535
52.3219
3.37053
52.2389
3.30361
52.1564
3.23464
52.0747
3.16364
51.994
3.09066
51.9145
3.01574
51.8365
2.93892
51.7602
2.86025
51.6858
2.77977
51.6136
2.69752
51.5437
2.61355
51.4763
2.52792
51.4116
2.44065
51.3499
2.35182
51.2912
2.26145
51.2357
2.16962
51.1837
2.07636
51.1352
1.98174
51.0905
1.8858
51.0495
1.7886
51.0126
1.6902
50.9797
1.59065
50.951
1.49001
50.9267
1.38834
50.9068
1.28569
50.8913
1.18212
50.8805
1.0777
50.8744
0.972485
50.873
0.866535
50.8764
0.759911
50.8847
0.652678
50.8979
0.544896
50.916
0.43663
50.9391
0.327943
50.9672
0.218899
51.0003
0.109563
51.0384
0
51.0814
-0.109725
51.1295
-0.219546
51.1825
-0.329398
51.2405
-0.439214
51.3033
-0.548927
51.371
-0.658471
51.4434
-0.767779
51.5206
-0.876784
51.6023
-0.985418
51.6886
-1.09361
51.7792
-1.2013
51.8742
-1.30842
51.9734
-1.4149
52.0766
-1.52066
52.1836
-1.62565
52.2945
-1.7298
52.4088
-1.83303
52.5265
-1.93528
52.6474
-2.03648
52.7712
-2.13656
52.8978
-2.23545
53.0268
-2.33309
53.158
-2.42941
53.2911
-2.52433
53.4258
-2.61779
53.5618
-2.70972
53.6988
-2.80006
53.8364
-2.88872
53.9741
-2.97563
54.1116
-3.06074
54.2484
-3.14397
54.3841
-3.22524
54.5181
-3.30447
54.6496
-3.38162
54.7793
-3.45652
54.9023
-3.52937
55.0304
-3.59927
55.1266
-3.66854
-3.73001
55.2942
51.1679
3.83981
-51.2579
51.078
3.77383
50.9881
3.70556
50.8985
3.63504
50.8096
3.56231
50.7215
3.48739
50.6345
3.41035
50.5488
3.33121
50.4646
3.25001
50.3821
3.16682
50.3016
3.08166
50.2233
2.99459
50.1472
2.90565
50.0737
2.81489
50.0029
2.72236
49.935
2.62812
49.8702
2.53222
49.8085
2.4347
49.7502
2.33562
49.6955
2.23504
49.6444
2.13301
49.5971
2.02959
49.5537
1.92484
49.5143
1.81882
49.4791
1.71158
49.4482
1.60318
49.4217
1.4937
49.3996
1.38318
49.382
1.2717
49.3691
1.15931
49.3609
1.04607
49.3575
0.932066
49.3589
0.817347
49.3652
0.701983
49.3764
0.586039
49.3925
0.469584
49.4136
0.352685
49.4397
0.235408
49.4709
0.117824
49.507
0
49.5482
-0.117994
49.5944
-0.23609
49.6455
-0.354216
49.7016
-0.472304
49.7626
-0.590282
49.8284
-0.70808
49.8991
-0.825628
49.9745
-0.942855
50.0545
-1.05969
50.1392
-1.17606
50.2283
-1.29189
50.3218
-1.40712
50.4196
-1.52167
50.5215
-1.63547
50.6274
-1.74845
50.7372
-1.86054
50.8507
-1.97166
50.9677
-2.08175
51.088
-2.19073
51.2116
-2.29853
51.338
-2.40508
51.4672
-2.51031
51.5989
-2.61415
51.7328
-2.71652
51.8687
-2.81735
52.0062
-2.91657
52.1452
-3.01412
52.2851
-3.10991
52.4258
-3.20387
52.5668
-3.29594
52.7078
-3.38603
52.8483
-3.47409
52.9879
-3.56001
53.1258
-3.64377
53.2628
-3.72518
53.3945
-3.80444
53.5312
-3.88069
53.6406
-3.95617
-4.0239
53.8136
49.7929
4.11408
-49.8893
49.6969
4.04271
49.6013
3.96894
49.5064
3.8928
49.4124
3.81434
49.3196
3.73359
49.2281
3.65059
49.1382
3.5654
49.05
3.47806
48.9638
3.38861
48.8797
3.2971
48.798
3.20357
48.7188
3.10809
48.6422
3.01069
48.5685
2.91144
48.4979
2.81038
48.4304
2.70757
48.3662
2.60307
48.3055
2.49693
48.2485
2.38921
48.1951
2.27997
48.1456
2.16927
48.1002
2.05716
48.0588
1.94372
48.0216
1.829
47.9887
1.71307
47.9602
1.59599
47.9362
1.47782
47.9168
1.35864
47.9021
1.23851
47.892
1.11749
47.8868
0.995658
47.8863
0.873079
47.8908
0.749822
47.9001
0.625957
47.9144
0.501555
47.9337
0.376687
47.958
0.251424
47.9873
0.125837
48.0216
0
48.061
-0.126015
48.1053
-0.252136
48.1546
-0.378287
48.2089
-0.504397
48.268
-0.630392
48.3321
-0.756196
48.401
-0.881736
48.4746
-1.00694
48.5529
-1.13173
48.6359
-1.25602
48.7234
-1.37976
48.8153
-1.50286
48.9116
-1.62525
49.0121
-1.74685
49.1167
-1.86758
49.2252
-1.98738
49.3376
-2.10617
49.4536
-2.22387
49.5732
-2.34041
49.6961
-2.45572
49.8221
-2.56971
49.9511
-2.68232
50.0828
-2.79347
50.2169
-2.90309
50.3534
-3.0111
50.4918
-3.11743
50.632
-3.222
50.7737
-3.32475
50.9164
-3.42559
51.06
-3.52445
51.2041
-3.62126
51.3483
-3.71594
51.4922
-3.80841
51.6352
-3.89863
51.7779
-3.98642
51.9165
-4.07198
52.0601
-4.15445
52.1802
-4.23602
-4.30992
52.3572
48.4466
4.38144
-48.5483
48.3454
4.30476
48.245
4.22557
48.1456
4.1439
48.0474
4.0598
47.9505
3.97332
47.8553
3.88449
47.7618
3.79337
47.6703
3.69999
47.5809
3.60442
47.4939
3.50669
47.4093
3.40685
47.3275
3.30497
47.2484
3.20109
47.1723
3.09526
47.0994
2.98755
47.0297
2.87801
46.9634
2.7667
46.9007
2.65367
46.8417
2.53899
46.7865
2.42273
46.7352
2.30493
46.6879
2.18567
46.6448
2.06501
46.6059
1.94301
46.5713
1.81975
46.5412
1.69529
46.5155
1.56969
46.4945
1.44303
46.4781
1.31538
46.4664
1.1868
46.4595
1.05737
46.4574
0.927158
46.4602
0.79624
46.4679
0.664687
46.4805
0.532573
46.4981
0.399972
46.5207
0.266959
46.5483
0.13361
46.5808
0
46.6184
-0.133795
46.661
-0.2677
46.7085
-0.401635
46.761
-0.535526
46.8183
-0.669295
46.8806
-0.802864
46.9477
-0.936155
47.0196
-1.06909
47.0962
-1.20159
47.1774
-1.33359
47.2632
-1.46499
47.3535
-1.59573
47.4481
-1.72572
47.5471
-1.85488
47.6502
-1.98315
47.7573
-2.11044
47.8684
-2.23667
47.9833
-2.36177
48.1018
-2.48565
48.2237
-2.60825
48.349
-2.72947
48.4774
-2.84926
48.6087
-2.96753
48.7427
-3.0842
48.8792
-3.19919
49.018
-3.31244
49.1589
-3.42386
49.3015
-3.53338
49.4456
-3.64093
49.591
-3.74642
49.7373
-3.84978
49.8841
-3.95094
50.0313
-4.04981
50.1782
-4.14634
50.3253
-4.24038
50.4693
-4.33209
50.6183
-4.42066
50.747
-4.5082
-4.58815
50.9267
47.129
4.64199
-47.2354
47.0236
4.56008
46.9192
4.47555
46.816
4.38845
46.7142
4.29882
46.6141
4.20671
46.5157
4.11216
46.4193
4.01522
46.325
3.91594
46.2331
3.81436
46.1436
3.71055
46.0567
3.60455
45.9727
3.49641
45.8916
3.38619
45.8135
3.27395
45.7387
3.15975
45.6672
3.04364
45.5992
2.92569
45.5348
2.80596
45.4742
2.6845
45.4174
2.56139
45.3646
2.43669
45.3158
2.31047
45.2712
2.18279
45.2309
2.05372
45.1949
1.92333
45.1633
1.79168
45.1363
1.65887
45.1138
1.52494
45.0959
1.38998
45.0828
1.25406
45.0744
1.11725
45.0708
0.979632
45.0721
0.841277
45.0783
0.702262
45.0894
0.562664
45.1054
0.422562
45.1264
0.28203
45.1523
0.141151
45.1832
0
45.2191
-0.141342
45.26
-0.282796
45.3058
-0.424281
45.3565
-0.565718
45.4122
-0.707027
45.4727
-0.848126
45.538
-0.988936
45.6081
-1.12937
45.6829
-1.26936
45.7624
-1.40881
45.8464
-1.54765
45.935
-1.6858
46.028
-1.82317
46.1252
-1.95968
46.2268
-2.09525
46.3324
-2.22981
46.442
-2.36327
46.5555
-2.49554
46.6727
-2.62656
46.7935
-2.75624
46.9177
-2.8845
47.0452
-3.01126
47.1757
-3.13645
47.3092
-3.25998
47.4454
-3.38177
47.5841
-3.50175
47.7251
-3.61984
47.8681
-3.73596
48.013
-3.85004
48.1594
-3.96199
48.3071
-4.07174
48.4559
-4.17921
48.6053
-4.28433
48.755
-4.38703
48.9054
-4.48717
49.0535
-4.5849
49.2066
-4.67944
49.3423
-4.77281
-4.85871
49.5236
45.8404
4.89581
-45.9505
45.7314
4.80875
45.6237
4.71898
45.5174
4.62654
45.4128
4.53149
45.3099
4.43386
45.209
4.33371
45.1102
4.23107
45.0138
4.12601
44.9197
4.01857
44.8283
3.90881
44.7396
3.79678
44.6537
3.68254
44.5709
3.56613
44.4913
3.44764
44.415
3.3271
44.3421
3.20459
44.2727
3.08017
44.207
2.9539
44.145
2.82585
44.087
2.69608
44.0329
2.56466
43.9829
2.43166
43.9371
2.29715
43.8955
2.16119
43.8583
2.02387
43.8255
1.88526
43.7972
1.74542
43.7735
1.60444
43.7544
1.46238
43.74
1.31933
43.7303
1.17536
43.7254
1.03055
43.7253
0.884974
43.7301
0.738718
43.7397
0.591858
43.7543
0.444475
43.7738
0.296651
43.7982
0.148465
43.8276
-2.98474e-07
43.8619
-0.148662
43.9011
-0.297438
43.9452
-0.446246
43.9943
-0.595002
44.0482
-0.743624
44.107
-0.892027
44.1705
-1.04013
44.2389
-1.18784
44.3119
-1.33509
44.3896
-1.48178
44.4718
-1.62783
44.5586
-1.77317
44.6498
-1.91769
44.7454
-2.06133
44.8452
-2.204
44.9492
-2.34561
45.0572
-2.48608
45.1691
-2.62533
45.2848
-2.76327
45.4042
-2.89983
45.5272
-3.03492
45.6535
-3.16846
45.783
-3.30037
45.9156
-3.43057
46.0511
-3.55897
46.1893
-3.6855
46.3299
-3.81008
46.4729
-3.93263
46.6179
-4.05306
46.7648
-4.17131
46.9134
-4.28729
47.0632
-4.40092
47.2142
-4.51213
47.3658
-4.62086
47.5185
-4.72695
47.6697
-4.83056
47.8258
-4.93093
47.9669
-5.03
-5.12172
48.149
44.5807
5.143
-44.6939
44.4689
5.05089
44.3585
4.95598
44.2497
4.85831
44.1428
4.75794
44.0377
4.65491
43.9348
4.54926
43.8342
4.44106
43.7359
4.33034
43.6402
4.21717
43.5472
4.1016
43.4571
3.98368
43.3699
3.86347
43.2858
3.74104
43.205
3.61643
43.1275
3.48973
43.0534
3.36098
42.983
3.23025
42.9162
3.09762
42.8532
2.96314
42.7942
2.82688
42.7391
2.68893
42.6881
2.54933
42.6413
2.40818
42.5987
2.26554
42.5605
2.12148
42.5267
1.97609
42.4974
1.82943
42.4726
1.68159
42.4524
1.53264
42.4368
1.38267
42.426
1.23174
42.4199
1.07995
42.4186
0.927371
42.4221
0.774087
42.4304
0.62018
42.4436
0.465735
42.4617
0.310833
42.4847
0.15556
42.5126
0
42.5453
-0.155762
42.583
-0.311641
42.6255
-0.46755
42.6729
-0.623405
42.7252
-0.779119
42.7822
-0.934606
42.8441
-1.08978
42.9106
-1.24455
42.9819
-1.39884
43.0578
-1.55255
43.1382
-1.7056
43.2232
-1.85791
43.3126
-2.00938
43.4063
-2.15993
43.5044
-2.30948
43.6065
-2.45793
43.7128
-2.60521
43.8231
-2.75123
43.9372
-2.8959
44.055
-3.03914
44.1765
-3.18087
44.3014
-3.32099
44.4296
-3.45944
44.5611
-3.59611
44.6955
-3.73094
44.8328
-3.86384
44.9728
-3.99473
45.1152
-4.12353
45.26
-4.25016
45.4068
-4.37453
45.5555
-4.49658
45.7059
-4.61621
45.8577
-4.73336
46.0105
-4.84795
46.1647
-4.95985
46.3181
-5.0692
46.4761
-5.17526
46.6214
-5.27989
-5.37729
46.8035
43.3499
5.38368
-43.4656
43.2358
5.28661
43.1233
5.18666
43.0126
5.08386
42.9038
4.97828
42.7971
4.86996
42.6927
4.75894
42.5906
4.64529
42.491
4.52905
42.3941
4.41027
42.2999
4.28903
42.2087
4.16536
42.1205
4.03934
42.0355
3.91102
41.9537
3.78046
41.8753
3.64774
41.8004
3.51291
41.7292
3.37605
41.6616
3.23721
41.5979
3.09648
41.538
2.95392
41.4822
2.8096
41.4304
2.66359
41.3828
2.51598
41.3395
2.36684
41.3004
2.21624
41.2658
2.06426
41.2356
1.91098
41.2099
1.75647
41.1887
1.60083
41.1722
1.44413
41.1603
1.28646
41.1532
1.12789
41.1507
0.968506
41.1531
0.808401
41.1602
0.647657
41.1722
0.486358
41.1889
0.324591
41.2106
0.162442
41.237
0
41.2683
-0.162649
41.3045
-0.325417
41.3455
-0.488214
41.3913
-0.650954
41.4419
-0.813546
41.4973
-0.975902
41.5574
-1.13793
41.6222
-1.29955
41.6917
-1.46066
41.7657
-1.62119
41.8444
-1.78103
41.9275
-1.94009
42.015
-2.0983
42.1069
-2.25557
42.2031
-2.41179
42.3034
-2.56689
42.4079
-2.72078
42.5163
-2.87337
42.6287
-3.02457
42.7448
-3.17429
42.8646
-3.32246
42.9879
-3.46898
43.1146
-3.61377
43.2447
-3.75675
43.3778
-3.89782
43.5139
-4.03691
43.6529
-4.17394
43.7944
-4.30882
43.9385
-4.44147
44.0848
-4.57181
44.2333
-4.69976
44.3836
-4.82524
44.5356
-4.94816
44.689
-5.06848
44.844
-5.18604
44.9987
-5.30097
45.1579
-5.41258
45.3063
-5.52263
-5.62559
45.4878
42.1478
5.61796
-42.2654
42.032
5.51603
41.9179
5.41113
41.8057
5.30332
41.6956
5.19264
41.5877
5.07914
41.4821
4.96288
41.379
4.8439
41.2784
4.72226
41.1806
4.59801
41.0857
4.47123
40.9937
4.34195
40.9048
4.21026
40.8191
4.0762
40.7367
3.93984
40.6577
3.80126
40.5823
3.66051
40.5104
3.51766
40.4423
3.3728
40.378
3.22597
40.3176
3.07727
40.2612
2.92677
40.2089
2.77453
40.1607
2.62064
40.1167
2.46517
40.077
2.30821
40.0416
2.14983
40.0107
1.99012
39.9842
1.82915
39.9623
1.667
39.9449
1.50378
39.9322
1.33954
39.9241
1.1744
39.9206
1.00842
39.9219
0.841693
39.9279
0.674313
39.9387
0.506364
39.9543
0.337937
39.9746
0.169119
39.9998
0
40.0297
-0.169329
40.0644
-0.338778
40.1039
-0.508257
40.1482
-0.677673
40.1972
-0.846937
40.2509
-1.01596
40.3093
-1.18464
40.3724
-1.35289
40.4401
-1.52063
40.5123
-1.68776
40.5891
-1.85418
40.6704
-2.01981
40.756
-2.18456
40.846
-2.34832
40.9403
-2.51103
41.0387
-2.67257
41.1412
-2.83287
41.2478
-2.99184
41.3582
-3.14938
41.4725
-3.3054
41.5905
-3.45982
41.7121
-3.61255
41.8371
-3.76351
41.9655
-3.9126
42.0971
-4.05975
42.2318
-4.20486
42.3694
-4.34785
42.5098
-4.48864
42.6528
-4.62715
42.7983
-4.76329
42.946
-4.89698
43.0958
-5.02814
43.2476
-5.1567
43.4009
-5.28258
43.5561
-5.40565
43.7114
-5.52603
43.8712
-5.64305
44.0217
-5.75838
-5.86676
44.2022
40.9743
5.84595
-41.0932
40.8572
5.73927
40.7419
5.62953
40.6287
5.51681
40.5177
5.40114
40.4089
5.28258
40.3026
5.16119
40.1988
5.037
40.0976
4.91009
39.9993
4.78051
39.9038
4.64832
39.8114
4.51358
39.722
4.37635
39.6359
4.2367
39.5532
4.09469
39.4739
3.95039
39.3981
3.80388
39.3259
3.65521
39.2574
3.50447
39.1928
3.35173
39.132
3.19706
39.0752
3.04054
39.0225
2.88224
38.9738
2.72224
38.9294
2.56063
38.8892
2.39749
38.8533
2.23289
38.8218
2.06692
38.7947
1.89967
38.7721
1.73122
38.754
1.56165
38.7404
1.39106
38.7315
1.21952
38.7271
1.04714
38.7275
0.873991
38.7325
0.700173
38.7422
0.525773
38.7566
0.350883
38.7757
0.175595
38.7996
0
38.8282
-0.175809
38.8615
-0.351739
38.8996
-0.527697
38.9423
-0.70359
38.9898
-0.879323
39.0419
-1.0548
39.0987
-1.22994
39.16
-1.40463
39.2259
-1.57879
39.2964
-1.75232
39.3713
-1.92513
39.4507
-2.09713
39.5344
-2.26821
39.6225
-2.43829
39.7148
-2.60728
39.8113
-2.77508
39.9118
-2.9416
40.0164
-3.10676
40.1249
-3.27044
40.2372
-3.43258
40.3533
-3.59308
40.473
-3.75184
40.5962
-3.90878
40.7228
-4.06381
40.8527
-4.21685
40.9857
-4.36781
41.1217
-4.5166
41.2607
-4.66314
41.4023
-4.80734
41.5466
-4.94912
41.6932
-5.08839
41.8421
-5.22509
41.9932
-5.35912
42.146
-5.49042
42.3009
-5.61886
42.4562
-5.74453
42.616
-5.86682
42.7679
-5.98729
-6.10094
42.9467
39.829
6.06778
-39.9489
39.711
5.95644
39.5951
5.84198
39.4812
5.72445
39.3696
5.60391
39.2604
5.48041
39.1536
5.354
39.0494
5.22474
38.948
5.09268
38.8494
4.95789
38.7537
4.82043
38.661
4.68035
38.5716
4.53773
38.4853
4.39263
38.4024
4.24512
38.3229
4.09526
38.247
3.94313
38.1747
3.7888
38.1061
3.63235
38.0413
3.47384
37.9803
3.31337
37.9233
3.15099
37.8703
2.9868
37.8214
2.82087
37.7766
2.65329
37.736
2.48414
37.6997
2.3135
37.6678
2.14147
37.6401
1.96811
37.617
1.79353
37.5982
1.61781
37.584
1.44104
37.5743
1.26331
37.5692
1.08471
37.5686
0.905326
37.5727
0.72526
37.5814
0.544601
37.5948
0.363442
37.6128
0.181877
37.6355
-2.98477e-07
37.6628
-0.182094
37.6948
-0.36431
37.7315
-0.546552
37.7728
-0.728726
37.8187
-0.910734
37.8692
-1.09248
37.9243
-1.27387
37.984
-1.45481
38.0482
-1.6352
38.1168
-1.81494
38.1899
-1.99395
38.2674
-2.17211
38.3492
-2.34935
38.4353
-2.52555
38.5257
-2.70064
38.6201
-2.87451
38.7187
-3.04707
38.8212
-3.21822
38.9277
-3.38788
39.0379
-3.55595
39.152
-3.72234
39.2696
-3.88695
39.3909
-4.04971
39.5155
-4.21051
39.6435
-4.36928
39.7747
-4.52591
39.909
-4.68033
40.0462
-4.83245
40.1862
-4.98218
40.329
-5.12944
40.4743
-5.27415
40.6219
-5.41623
40.7719
-5.55558
40.9238
-5.69215
41.0779
-5.8258
41.2328
-5.95663
41.392
-6.08404
41.5446
-6.20952
-6.32831
41.7215
38.7117
6.28358
-38.8322
38.5933
6.16768
38.477
6.04859
38.3628
5.92637
38.2509
5.80107
38.1415
5.67274
38.0346
5.54144
37.9304
5.40722
37.8289
5.27015
37.7303
5.13028
37.6346
4.98768
37.542
4.8424
37.4526
4.69453
37.3664
4.54412
37.2836
4.39125
37.2042
4.23597
37.1283
4.07838
37.056
3.91854
36.9874
3.75653
36.9226
3.59242
36.8616
3.42629
36.8045
3.25823
36.7514
3.08831
36.7023
2.91662
36.6573
2.74324
36.6165
2.56825
36.58
2.39174
36.5476
2.21381
36.5196
2.03453
36.496
1.854
36.4767
1.6723
36.4619
1.48954
36.4516
1.30579
36.4457
1.12115
36.4444
0.935725
36.4476
0.749597
36.4554
0.562866
36.4678
0.375625
36.4847
0.187971
36.5063
0
36.5324
-0.18819
36.5631
-0.376503
36.5984
-0.564841
36.6383
-0.753106
36.6828
-0.9412
36.7318
-1.12903
36.7853
-1.31648
36.8433
-1.50348
36.9057
-1.68991
36.9726
-1.87568
37.0439
-2.06069
37.1195
-2.24484
37.1994
-2.42804
37.2835
-2.61019
37.3718
-2.79119
37.4642
-2.97094
37.5607
-3.14936
37.6611
-3.32634
37.7655
-3.50179
37.8737
-3.67561
37.9856
-3.84772
38.1012
-4.01802
38.2203
-4.18642
38.3429
-4.35282
38.4688
-4.51714
38.598
-4.67929
38.7303
-4.83918
38.8657
-4.99672
39.0039
-5.15183
39.1449
-5.30442
39.2886
-5.4544
39.4347
-5.60171
39.5832
-5.74623
39.7339
-5.88793
39.8868
-6.02665
40.0409
-6.1625
40.1991
-6.29489
40.3517
-6.42523
-6.54901
40.5264
37.6221
6.49346
-37.7427
37.5036
6.3731
37.3872
6.2495