/*--------------------------------*- C++ -*----------------------------------*\
| =========                 |                                                 |
| \\      /  F ield         | OpenFOAM: The Open Source CFD Toolbox           |
|  \\    /   O peration     | Version:  2312                                  |
|   \\  /    A nd           | Website:  www.openfoam.com                      |
|    \\/     M anipulation  |                                                 |
\*---------------------------------------------------------------------------*/
FoamFile
{
    version     2.0;
    format      ascii;
    arch        "LSB;label=32;scalar=64";
    class       volVectorField;
    location    "1";
    object      U;
}
// * * * * * * * * * * * * * * * * * * * * * * * * * * * * * * * * * * * * * //

dimensions      [0 1 -1 0 0 0 0];

internalField   nonuniform List<vector> 
31205
(
(261.684 0 0)
(263.376 0 0)
(265.017 0 0)
(266.609 0 0)
(268.155 0 0)
(269.655 0 0)
(271.111 0 0)
(272.523 0 0)
(273.893 0 0)
(275.222 0 0)
(276.51 0 0)
(277.759 0 0)
(278.968 0 0)
(280.14 0 0)
(281.274 0 0)
(282.371 0 0)
(283.432 0 0)
(284.457 0 0)
(285.447 0 0)
(286.401 0 0)
(287.322 0 0)
(288.207 0 0)
(289.059 0 0)
(289.878 0 0)
(290.662 0 0)
(291.414 0 0)
(292.133 0 0)
(292.818 0 0)
(293.471 0 0)
(294.091 0 0)
(294.679 0 0)
(295.234 0 0)
(295.756 0 0)
(296.245 0 0)
(296.702 0 0)
(297.126 0 0)
(297.516 0 0)
(297.874 0 0)
(298.198 0 0)
(298.488 0 0)
(298.744 0 0)
(298.966 0 0)
(299.153 0 0)
(299.304 0 0)
(299.42 0 0)
(299.5 0 0)
(299.543 0 0)
(299.549 0 0)
(299.516 0 0)
(299.444 0 0)
(299.333 0 0)
(299.181 0 0)
(298.988 0 0)
(298.751 0 0)
(298.471 0 0)
(298.145 0 0)
(297.772 0 0)
(297.351 0 0)
(296.879 0 0)
(296.356 0 0)
(295.778 0 0)
(295.143 0 0)
(294.449 0 0)
(293.692 0 0)
(292.869 0 0)
(291.976 0 0)
(291.009 0 0)
(289.964 0 0)
(288.834 0 0)
(287.61 0 0)
(286.278 0 0)
(284.848 0 0)
(283.348 0 0)
(281.727 0 0)
(279.581 0 0)
(277.298 0 0)
(274.266 0 0)
(281.377 0 0)
(266.234 0 0)
(263.221 0 0)
(264.824 0 0)
(266.381 0 0)
(267.893 0 0)
(269.362 0 0)
(270.788 0 0)
(272.174 0 0)
(273.519 0 0)
(274.825 0 0)
(276.092 0 0)
(277.322 0 0)
(278.514 0 0)
(279.67 0 0)
(280.791 0 0)
(281.876 0 0)
(282.926 0 0)
(283.943 0 0)
(284.925 0 0)
(285.874 0 0)
(286.791 0 0)
(287.674 0 0)
(288.525 0 0)
(289.344 0 0)
(290.131 0 0)
(290.887 0 0)
(291.611 0 0)
(292.304 0 0)
(292.965 0 0)
(293.596 0 0)
(294.195 0 0)
(294.763 0 0)
(295.3 0 0)
(295.807 0 0)
(296.282 0 0)
(296.726 0 0)
(297.138 0 0)
(297.519 0 0)
(297.869 0 0)
(298.187 0 0)
(298.472 0 0)
(298.726 0 0)
(298.946 0 0)
(299.134 0 0)
(299.288 0 0)
(299.409 0 0)
(299.495 0 0)
(299.546 0 0)
(299.562 0 0)
(299.542 0 0)
(299.486 0 0)
(299.391 0 0)
(299.259 0 0)
(299.087 0 0)
(298.875 0 0)
(298.622 0 0)
(298.327 0 0)
(297.987 0 0)
(297.603 0 0)
(297.172 0 0)
(296.693 0 0)
(296.163 0 0)
(295.581 0 0)
(294.944 0 0)
(294.25 0 0)
(293.496 0 0)
(292.679 0 0)
(291.795 0 0)
(290.839 0 0)
(289.808 0 0)
(288.697 0 0)
(287.496 0 0)
(286.194 0 0)
(284.786 0 0)
(283.35 0 0)
(281.646 0 0)
(280.173 0 0)
(276.147 0 0)
(277.655 0 0)
(274.39 0 0)
(264.747 0 0)
(266.264 0 0)
(267.739 0 0)
(269.173 0 0)
(270.567 0 0)
(271.922 0 0)
(273.239 0 0)
(274.519 0 0)
(275.762 0 0)
(276.969 0 0)
(278.141 0 0)
(279.279 0 0)
(280.382 0 0)
(281.452 0 0)
(282.489 0 0)
(283.494 0 0)
(284.466 0 0)
(285.407 0 0)
(286.316 0 0)
(287.194 0 0)
(288.041 0 0)
(288.858 0 0)
(289.644 0 0)
(290.4 0 0)
(291.127 0 0)
(291.823 0 0)
(292.49 0 0)
(293.127 0 0)
(293.735 0 0)
(294.313 0 0)
(294.861 0 0)
(295.381 0 0)
(295.87 0 0)
(296.331 0 0)
(296.761 0 0)
(297.162 0 0)
(297.533 0 0)
(297.874 0 0)
(298.184 0 0)
(298.464 0 0)
(298.714 0 0)
(298.932 0 0)
(299.119 0 0)
(299.275 0 0)
(299.398 0 0)
(299.489 0 0)
(299.547 0 0)
(299.572 0 0)
(299.562 0 0)
(299.518 0 0)
(299.438 0 0)
(299.323 0 0)
(299.17 0 0)
(298.98 0 0)
(298.751 0 0)
(298.482 0 0)
(298.173 0 0)
(297.821 0 0)
(297.426 0 0)
(296.985 0 0)
(296.499 0 0)
(295.964 0 0)
(295.378 0 0)
(294.74 0 0)
(294.047 0 0)
(293.296 0 0)
(292.485 0 0)
(291.609 0 0)
(290.665 0 0)
(289.648 0 0)
(288.555 0 0)
(287.38 0 0)
(286.093 0 0)
(284.765 0 0)
(283.18 0 0)
(282.039 0 0)
(279.47 0 0)
(277.841 0 0)
(275.866 0 0)
(266.221 0 0)
(267.657 0 0)
(269.055 0 0)
(270.415 0 0)
(271.738 0 0)
(273.025 0 0)
(274.277 0 0)
(275.494 0 0)
(276.677 0 0)
(277.827 0 0)
(278.944 0 0)
(280.029 0 0)
(281.082 0 0)
(282.104 0 0)
(283.095 0 0)
(284.055 0 0)
(284.985 0 0)
(285.885 0 0)
(286.755 0 0)
(287.597 0 0)
(288.409 0 0)
(289.192 0 0)
(289.947 0 0)
(290.673 0 0)
(291.37 0 0)
(292.04 0 0)
(292.681 0 0)
(293.295 0 0)
(293.88 0 0)
(294.437 0 0)
(294.966 0 0)
(295.468 0 0)
(295.941 0 0)
(296.386 0 0)
(296.803 0 0)
(297.192 0 0)
(297.552 0 0)
(297.884 0 0)
(298.187 0 0)
(298.461 0 0)
(298.706 0 0)
(298.922 0 0)
(299.108 0 0)
(299.264 0 0)
(299.389 0 0)
(299.483 0 0)
(299.547 0 0)
(299.578 0 0)
(299.578 0 0)
(299.544 0 0)
(299.477 0 0)
(299.377 0 0)
(299.241 0 0)
(299.07 0 0)
(298.862 0 0)
(298.618 0 0)
(298.335 0 0)
(298.012 0 0)
(297.649 0 0)
(297.244 0 0)
(296.796 0 0)
(296.303 0 0)
(295.763 0 0)
(295.175 0 0)
(294.537 0 0)
(293.845 0 0)
(293.098 0 0)
(292.293 0 0)
(291.426 0 0)
(290.495 0 0)
(289.492 0 0)
(288.422 0 0)
(287.253 0 0)
(286.046 0 0)
(284.612 0 0)
(283.348 0 0)
(281.738 0 0)
(279.992 0 0)
(277.548 0 0)
(267.626 0 0)
(268.987 0 0)
(270.312 0 0)
(271.602 0 0)
(272.859 0 0)
(274.082 0 0)
(275.272 0 0)
(276.431 0 0)
(277.557 0 0)
(278.653 0 0)
(279.718 0 0)
(280.753 0 0)
(281.758 0 0)
(282.734 0 0)
(283.68 0 0)
(284.598 0 0)
(285.488 0 0)
(286.35 0 0)
(287.183 0 0)
(287.989 0 0)
(288.768 0 0)
(289.519 0 0)
(290.243 0 0)
(290.94 0 0)
(291.611 0 0)
(292.254 0 0)
(292.871 0 0)
(293.461 0 0)
(294.025 0 0)
(294.562 0 0)
(295.073 0 0)
(295.556 0 0)
(296.014 0 0)
(296.444 0 0)
(296.848 0 0)
(297.225 0 0)
(297.575 0 0)
(297.898 0 0)
(298.193 0 0)
(298.461 0 0)
(298.701 0 0)
(298.914 0 0)
(299.098 0 0)
(299.253 0 0)
(299.38 0 0)
(299.477 0 0)
(299.545 0 0)
(299.583 0 0)
(299.59 0 0)
(299.566 0 0)
(299.511 0 0)
(299.423 0 0)
(299.303 0 0)
(299.149 0 0)
(298.962 0 0)
(298.739 0 0)
(298.48 0 0)
(298.184 0 0)
(297.85 0 0)
(297.477 0 0)
(297.064 0 0)
(296.61 0 0)
(296.112 0 0)
(295.569 0 0)
(294.98 0 0)
(294.342 0 0)
(293.654 0 0)
(292.912 0 0)
(292.115 0 0)
(291.259 0 0)
(290.338 0 0)
(289.357 0 0)
(288.292 0 0)
(287.182 0 0)
(285.936 0 0)
(284.646 0 0)
(283.251 0 0)
(281.939 0 0)
(279.599 0 0)
(268.958 0 0)
(270.249 0 0)
(271.506 0 0)
(272.731 0 0)
(273.925 0 0)
(275.088 0 0)
(276.221 0 0)
(277.324 0 0)
(278.397 0 0)
(279.442 0 0)
(280.458 0 0)
(281.445 0 0)
(282.405 0 0)
(283.337 0 0)
(284.242 0 0)
(285.12 0 0)
(285.972 0 0)
(286.796 0 0)
(287.595 0 0)
(288.367 0 0)
(289.114 0 0)
(289.835 0 0)
(290.53 0 0)
(291.199 0 0)
(291.843 0 0)
(292.462 0 0)
(293.055 0 0)
(293.624 0 0)
(294.167 0 0)
(294.684 0 0)
(295.177 0 0)
(295.644 0 0)
(296.086 0 0)
(296.502 0 0)
(296.893 0 0)
(297.259 0 0)
(297.598 0 0)
(297.912 0 0)
(298.2 0 0)
(298.462 0 0)
(298.698 0 0)
(298.907 0 0)
(299.089 0 0)
(299.243 0 0)
(299.371 0 0)
(299.471 0 0)
(299.542 0 0)
(299.586 0 0)
(299.6 0 0)
(299.585 0 0)
(299.54 0 0)
(299.465 0 0)
(299.358 0 0)
(299.221 0 0)
(299.051 0 0)
(298.848 0 0)
(298.611 0 0)
(298.34 0 0)
(298.033 0 0)
(297.69 0 0)
(297.31 0 0)
(296.89 0 0)
(296.431 0 0)
(295.93 0 0)
(295.386 0 0)
(294.797 0 0)
(294.162 0 0)
(293.478 0 0)
(292.743 0 0)
(291.955 0 0)
(291.109 0 0)
(290.207 0 0)
(289.236 0 0)
(288.207 0 0)
(287.098 0 0)
(285.92 0 0)
(284.587 0 0)
(283.457 0 0)
(281.429 0 0)
(270.219 0 0)
(271.443 0 0)
(272.638 0 0)
(273.802 0 0)
(274.937 0 0)
(276.044 0 0)
(277.122 0 0)
(278.173 0 0)
(279.196 0 0)
(280.192 0 0)
(281.162 0 0)
(282.105 0 0)
(283.022 0 0)
(283.913 0 0)
(284.778 0 0)
(285.619 0 0)
(286.434 0 0)
(287.224 0 0)
(287.989 0 0)
(288.729 0 0)
(289.446 0 0)
(290.137 0 0)
(290.805 0 0)
(291.448 0 0)
(292.067 0 0)
(292.662 0 0)
(293.233 0 0)
(293.78 0 0)
(294.303 0 0)
(294.803 0 0)
(295.278 0 0)
(295.729 0 0)
(296.156 0 0)
(296.559 0 0)
(296.938 0 0)
(297.292 0 0)
(297.622 0 0)
(297.927 0 0)
(298.208 0 0)
(298.464 0 0)
(298.694 0 0)
(298.9 0 0)
(299.08 0 0)
(299.234 0 0)
(299.362 0 0)
(299.464 0 0)
(299.539 0 0)
(299.587 0 0)
(299.608 0 0)
(299.601 0 0)
(299.565 0 0)
(299.501 0 0)
(299.408 0 0)
(299.285 0 0)
(299.132 0 0)
(298.947 0 0)
(298.731 0 0)
(298.483 0 0)
(298.201 0 0)
(297.885 0 0)
(297.534 0 0)
(297.147 0 0)
(296.723 0 0)
(296.26 0 0)
(295.758 0 0)
(295.214 0 0)
(294.628 0 0)
(293.996 0 0)
(293.319 0 0)
(292.593 0 0)
(291.815 0 0)
(290.984 0 0)
(290.095 0 0)
(289.149 0 0)
(288.132 0 0)
(287.075 0 0)
(285.851 0 0)
(284.797 0 0)
(282.995 0 0)
(271.412 0 0)
(272.575 0 0)
(273.709 0 0)
(274.817 0 0)
(275.897 0 0)
(276.951 0 0)
(277.978 0 0)
(278.98 0 0)
(279.956 0 0)
(280.906 0 0)
(281.832 0 0)
(282.733 0 0)
(283.609 0 0)
(284.461 0 0)
(285.29 0 0)
(286.094 0 0)
(286.874 0 0)
(287.631 0 0)
(288.365 0 0)
(289.075 0 0)
(289.763 0 0)
(290.427 0 0)
(291.068 0 0)
(291.686 0 0)
(292.282 0 0)
(292.854 0 0)
(293.404 0 0)
(293.931 0 0)
(294.435 0 0)
(294.916 0 0)
(295.375 0 0)
(295.811 0 0)
(296.224 0 0)
(296.614 0 0)
(296.98 0 0)
(297.324 0 0)
(297.645 0 0)
(297.942 0 0)
(298.215 0 0)
(298.465 0 0)
(298.691 0 0)
(298.893 0 0)
(299.071 0 0)
(299.224 0 0)
(299.353 0 0)
(299.456 0 0)
(299.534 0 0)
(299.587 0 0)
(299.613 0 0)
(299.614 0 0)
(299.587 0 0)
(299.534 0 0)
(299.452 0 0)
(299.343 0 0)
(299.205 0 0)
(299.038 0 0)
(298.841 0 0)
(298.613 0 0)
(298.355 0 0)
(298.064 0 0)
(297.741 0 0)
(297.384 0 0)
(296.992 0 0)
(296.565 0 0)
(296.1 0 0)
(295.598 0 0)
(295.056 0 0)
(294.473 0 0)
(293.848 0 0)
(293.178 0 0)
(292.461 0 0)
(291.696 0 0)
(290.88 0 0)
(290.011 0 0)
(289.077 0 0)
(288.11 0 0)
(287.003 0 0)
(286.033 0 0)
(284.4 0 0)
(272.541 0 0)
(273.646 0 0)
(274.725 0 0)
(275.779 0 0)
(276.808 0 0)
(277.811 0 0)
(278.791 0 0)
(279.746 0 0)
(280.677 0 0)
(281.585 0 0)
(282.469 0 0)
(283.331 0 0)
(284.169 0 0)
(284.984 0 0)
(285.777 0 0)
(286.547 0 0)
(287.295 0 0)
(288.021 0 0)
(288.724 0 0)
(289.406 0 0)
(290.066 0 0)
(290.704 0 0)
(291.32 0 0)
(291.914 0 0)
(292.487 0 0)
(293.038 0 0)
(293.567 0 0)
(294.075 0 0)
(294.561 0 0)
(295.026 0 0)
(295.469 0 0)
(295.89 0 0)
(296.289 0 0)
(296.666 0 0)
(297.022 0 0)
(297.355 0 0)
(297.667 0 0)
(297.956 0 0)
(298.222 0 0)
(298.467 0 0)
(298.688 0 0)
(298.887 0 0)
(299.062 0 0)
(299.214 0 0)
(299.343 0 0)
(299.448 0 0)
(299.529 0 0)
(299.585 0 0)
(299.617 0 0)
(299.624 0 0)
(299.606 0 0)
(299.562 0 0)
(299.492 0 0)
(299.395 0 0)
(299.271 0 0)
(299.12 0 0)
(298.941 0 0)
(298.733 0 0)
(298.496 0 0)
(298.229 0 0)
(297.931 0 0)
(297.601 0 0)
(297.24 0 0)
(296.845 0 0)
(296.416 0 0)
(295.952 0 0)
(295.451 0 0)
(294.912 0 0)
(294.334 0 0)
(293.716 0 0)
(293.055 0 0)
(292.35 0 0)
(291.598 0 0)
(290.8 0 0)
(289.942 0 0)
(289.054 0 0)
(288.044 0 0)
(287.159 0 0)
(285.675 0 0)
(273.611 0 0)
(274.662 0 0)
(275.689 0 0)
(276.692 0 0)
(277.672 0 0)
(278.629 0 0)
(279.563 0 0)
(280.474 0 0)
(281.364 0 0)
(282.231 0 0)
(283.076 0 0)
(283.9 0 0)
(284.701 0 0)
(285.482 0 0)
(286.241 0 0)
(286.979 0 0)
(287.696 0 0)
(288.392 0 0)
(289.067 0 0)
(289.722 0 0)
(290.355 0 0)
(290.968 0 0)
(291.561 0 0)
(292.132 0 0)
(292.683 0 0)
(293.214 0 0)
(293.724 0 0)
(294.214 0 0)
(294.683 0 0)
(295.131 0 0)
(295.559 0 0)
(295.966 0 0)
(296.352 0 0)
(296.717 0 0)
(297.062 0 0)
(297.385 0 0)
(297.688 0 0)
(297.969 0 0)
(298.229 0 0)
(298.468 0 0)
(298.685 0 0)
(298.88 0 0)
(299.053 0 0)
(299.204 0 0)
(299.333 0 0)
(299.439 0 0)
(299.522 0 0)
(299.583 0 0)
(299.619 0 0)
(299.633 0 0)
(299.622 0 0)
(299.587 0 0)
(299.527 0 0)
(299.442 0 0)
(299.331 0 0)
(299.195 0 0)
(299.032 0 0)
(298.842 0 0)
(298.625 0 0)
(298.379 0 0)
(298.105 0 0)
(297.802 0 0)
(297.468 0 0)
(297.103 0 0)
(296.706 0 0)
(296.277 0 0)
(295.814 0 0)
(295.316 0 0)
(294.782 0 0)
(294.21 0 0)
(293.6 0 0)
(292.95 0 0)
(292.257 0 0)
(291.522 0 0)
(290.734 0 0)
(289.918 0 0)
(288.993 0 0)
(288.181 0 0)
(286.832 0 0)
(274.625 0 0)
(275.625 0 0)
(276.603 0 0)
(277.558 0 0)
(278.492 0 0)
(279.405 0 0)
(280.296 0 0)
(281.167 0 0)
(282.016 0 0)
(282.845 0 0)
(283.654 0 0)
(284.441 0 0)
(285.209 0 0)
(285.957 0 0)
(286.684 0 0)
(287.391 0 0)
(288.079 0 0)
(288.747 0 0)
(289.395 0 0)
(290.023 0 0)
(290.632 0 0)
(291.221 0 0)
(291.791 0 0)
(292.341 0 0)
(292.872 0 0)
(293.383 0 0)
(293.874 0 0)
(294.346 0 0)
(294.799 0 0)
(295.232 0 0)
(295.645 0 0)
(296.038 0 0)
(296.412 0 0)
(296.766 0 0)
(297.1 0 0)
(297.415 0 0)
(297.709 0 0)
(297.982 0 0)
(298.236 0 0)
(298.469 0 0)
(298.682 0 0)
(298.873 0 0)
(299.044 0 0)
(299.194 0 0)
(299.323 0 0)
(299.43 0 0)
(299.515 0 0)
(299.579 0 0)
(299.62 0 0)
(299.639 0 0)
(299.635 0 0)
(299.608 0 0)
(299.557 0 0)
(299.483 0 0)
(299.385 0 0)
(299.263 0 0)
(299.115 0 0)
(298.942 0 0)
(298.743 0 0)
(298.518 0 0)
(298.265 0 0)
(297.986 0 0)
(297.678 0 0)
(297.341 0 0)
(296.974 0 0)
(296.577 0 0)
(296.149 0 0)
(295.688 0 0)
(295.194 0 0)
(294.666 0 0)
(294.102 0 0)
(293.501 0 0)
(292.862 0 0)
(292.184 0 0)
(291.459 0 0)
(290.708 0 0)
(289.859 0 0)
(289.113 0 0)
(287.883 0 0)
(275.587 0 0)
(276.539 0 0)
(277.47 0 0)
(278.381 0 0)
(279.272 0 0)
(280.143 0 0)
(280.994 0 0)
(281.826 0 0)
(282.638 0 0)
(283.43 0 0)
(284.204 0 0)
(284.958 0 0)
(285.693 0 0)
(286.409 0 0)
(287.106 0 0)
(287.785 0 0)
(288.444 0 0)
(289.085 0 0)
(289.708 0 0)
(290.312 0 0)
(290.897 0 0)
(291.463 0 0)
(292.011 0 0)
(292.541 0 0)
(293.052 0 0)
(293.544 0 0)
(294.018 0 0)
(294.474 0 0)
(294.91 0 0)
(295.329 0 0)
(295.728 0 0)
(296.109 0 0)
(296.47 0 0)
(296.813 0 0)
(297.138 0 0)
(297.443 0 0)
(297.728 0 0)
(297.995 0 0)
(298.242 0 0)
(298.47 0 0)
(298.678 0 0)
(298.867 0 0)
(299.036 0 0)
(299.184 0 0)
(299.312 0 0)
(299.42 0 0)
(299.507 0 0)
(299.574 0 0)
(299.619 0 0)
(299.643 0 0)
(299.646 0 0)
(299.626 0 0)
(299.585 0 0)
(299.52 0 0)
(299.434 0 0)
(299.324 0 0)
(299.19 0 0)
(299.033 0 0)
(298.851 0 0)
(298.644 0 0)
(298.412 0 0)
(298.155 0 0)
(297.87 0 0)
(297.559 0 0)
(297.22 0 0)
(296.853 0 0)
(296.457 0 0)
(296.031 0 0)
(295.574 0 0)
(295.085 0 0)
(294.564 0 0)
(294.009 0 0)
(293.418 0 0)
(292.793 0 0)
(292.124 0 0)
(291.433 0 0)
(290.653 0 0)
(289.966 0 0)
(288.841 0 0)
(276.499 0 0)
(277.406 0 0)
(278.294 0 0)
(279.163 0 0)
(280.013 0 0)
(280.845 0 0)
(281.658 0 0)
(282.453 0 0)
(283.229 0 0)
(283.988 0 0)
(284.728 0 0)
(285.45 0 0)
(286.154 0 0)
(286.841 0 0)
(287.509 0 0)
(288.16 0 0)
(288.793 0 0)
(289.409 0 0)
(290.007 0 0)
(290.587 0 0)
(291.15 0 0)
(291.695 0 0)
(292.222 0 0)
(292.732 0 0)
(293.225 0 0)
(293.699 0 0)
(294.156 0 0)
(294.596 0 0)
(295.018 0 0)
(295.422 0 0)
(295.808 0 0)
(296.176 0 0)
(296.527 0 0)
(296.859 0 0)
(297.173 0 0)
(297.47 0 0)
(297.748 0 0)
(298.007 0 0)
(298.249 0 0)
(298.471 0 0)
(298.675 0 0)
(298.86 0 0)
(299.027 0 0)
(299.174 0 0)
(299.302 0 0)
(299.41 0 0)
(299.499 0 0)
(299.568 0 0)
(299.617 0 0)
(299.646 0 0)
(299.654 0 0)
(299.641 0 0)
(299.608 0 0)
(299.553 0 0)
(299.477 0 0)
(299.379 0 0)
(299.258 0 0)
(299.115 0 0)
(298.95 0 0)
(298.76 0 0)
(298.547 0 0)
(298.31 0 0)
(298.048 0 0)
(297.761 0 0)
(297.447 0 0)
(297.108 0 0)
(296.741 0 0)
(296.347 0 0)
(295.924 0 0)
(295.472 0 0)
(294.989 0 0)
(294.476 0 0)
(293.93 0 0)
(293.353 0 0)
(292.736 0 0)
(292.097 0 0)
(291.38 0 0)
(290.746 0 0)
(289.716 0 0)
(277.366 0 0)
(278.231 0 0)
(279.077 0 0)
(279.907 0 0)
(280.718 0 0)
(281.513 0 0)
(282.29 0 0)
(283.05 0 0)
(283.793 0 0)
(284.519 0 0)
(285.227 0 0)
(285.919 0 0)
(286.594 0 0)
(287.253 0 0)
(287.894 0 0)
(288.519 0 0)
(289.127 0 0)
(289.718 0 0)
(290.293 0 0)
(290.851 0 0)
(291.392 0 0)
(291.917 0 0)
(292.425 0 0)
(292.916 0 0)
(293.39 0 0)
(293.848 0 0)
(294.289 0 0)
(294.713 0 0)
(295.121 0 0)
(295.511 0 0)
(295.885 0 0)
(296.241 0 0)
(296.581 0 0)
(296.903 0 0)
(297.208 0 0)
(297.496 0 0)
(297.766 0 0)
(298.019 0 0)
(298.255 0 0)
(298.472 0 0)
(298.672 0 0)
(298.854 0 0)
(299.018 0 0)
(299.164 0 0)
(299.291 0 0)
(299.4 0 0)
(299.49 0 0)
(299.561 0 0)
(299.614 0 0)
(299.647 0 0)
(299.66 0 0)
(299.654 0 0)
(299.628 0 0)
(299.582 0 0)
(299.516 0 0)
(299.428 0 0)
(299.32 0 0)
(299.191 0 0)
(299.039 0 0)
(298.866 0 0)
(298.671 0 0)
(298.452 0 0)
(298.211 0 0)
(297.946 0 0)
(297.656 0 0)
(297.342 0 0)
(297.003 0 0)
(296.638 0 0)
(296.247 0 0)
(295.828 0 0)
(295.382 0 0)
(294.907 0 0)
(294.402 0 0)
(293.868 0 0)
(293.298 0 0)
(292.708 0 0)
(292.047 0 0)
(291.462 0 0)
(290.516 0 0)
(278.189 0 0)
(279.014 0 0)
(279.822 0 0)
(280.614 0 0)
(281.389 0 0)
(282.148 0 0)
(282.891 0 0)
(283.619 0 0)
(284.33 0 0)
(285.025 0 0)
(285.704 0 0)
(286.367 0 0)
(287.014 0 0)
(287.646 0 0)
(288.261 0 0)
(288.861 0 0)
(289.445 0 0)
(290.014 0 0)
(290.566 0 0)
(291.103 0 0)
(291.624 0 0)
(292.129 0 0)
(292.618 0 0)
(293.091 0 0)
(293.549 0 0)
(293.991 0 0)
(294.416 0 0)
(294.826 0 0)
(295.22 0 0)
(295.597 0 0)
(295.958 0 0)
(296.304 0 0)
(296.633 0 0)
(296.945 0 0)
(297.241 0 0)
(297.521 0 0)
(297.784 0 0)
(298.031 0 0)
(298.26 0 0)
(298.473 0 0)
(298.669 0 0)
(298.848 0 0)
(299.009 0 0)
(299.153 0 0)
(299.28 0 0)
(299.389 0 0)
(299.481 0 0)
(299.554 0 0)
(299.609 0 0)
(299.646 0 0)
(299.665 0 0)
(299.665 0 0)
(299.646 0 0)
(299.607 0 0)
(299.55 0 0)
(299.473 0 0)
(299.376 0 0)
(299.259 0 0)
(299.121 0 0)
(298.963 0 0)
(298.784 0 0)
(298.583 0 0)
(298.361 0 0)
(298.116 0 0)
(297.849 0 0)
(297.558 0 0)
(297.245 0 0)
(296.907 0 0)
(296.544 0 0)
(296.157 0 0)
(295.743 0 0)
(295.303 0 0)
(294.836 0 0)
(294.342 0 0)
(293.815 0 0)
(293.27 0 0)
(292.66 0 0)
(292.119 0 0)
(291.251 0 0)
(278.971 0 0)
(279.758 0 0)
(280.53 0 0)
(281.286 0 0)
(282.027 0 0)
(282.753 0 0)
(283.464 0 0)
(284.16 0 0)
(284.841 0 0)
(285.507 0 0)
(286.158 0 0)
(286.794 0 0)
(287.415 0 0)
(288.021 0 0)
(288.612 0 0)
(289.189 0 0)
(289.75 0 0)
(290.296 0 0)
(290.828 0 0)
(291.344 0 0)
(291.846 0 0)
(292.332 0 0)
(292.804 0 0)
(293.26 0 0)
(293.701 0 0)
(294.127 0 0)
(294.538 0 0)
(294.934 0 0)
(295.315 0 0)
(295.68 0 0)
(296.029 0 0)
(296.364 0 0)
(296.683 0 0)
(296.986 0 0)
(297.274 0 0)
(297.545 0 0)
(297.801 0 0)
(298.042 0 0)
(298.266 0 0)
(298.474 0 0)
(298.666 0 0)
(298.841 0 0)
(299.001 0 0)
(299.143 0 0)
(299.269 0 0)
(299.378 0 0)
(299.471 0 0)
(299.546 0 0)
(299.604 0 0)
(299.645 0 0)
(299.668 0 0)
(299.673 0 0)
(299.66 0 0)
(299.629 0 0)
(299.58 0 0)
(299.513 0 0)
(299.426 0 0)
(299.321 0 0)
(299.196 0 0)
(299.052 0 0)
(298.887 0 0)
(298.703 0 0)
(298.498 0 0)
(298.273 0 0)
(298.026 0 0)
(297.757 0 0)
(297.467 0 0)
(297.154 0 0)
(296.819 0 0)
(296.459 0 0)
(296.076 0 0)
(295.669 0 0)
(295.236 0 0)
(294.779 0 0)
(294.291 0 0)
(293.787 0 0)
(293.224 0 0)
(292.724 0 0)
(291.924 0 0)
(279.715 0 0)
(280.466 0 0)
(281.203 0 0)
(281.926 0 0)
(282.635 0 0)
(283.33 0 0)
(284.01 0 0)
(284.677 0 0)
(285.329 0 0)
(285.967 0 0)
(286.592 0 0)
(287.202 0 0)
(287.798 0 0)
(288.38 0 0)
(288.948 0 0)
(289.501 0 0)
(290.041 0 0)
(290.567 0 0)
(291.078 0 0)
(291.575 0 0)
(292.058 0 0)
(292.527 0 0)
(292.981 0 0)
(293.421 0 0)
(293.847 0 0)
(294.259 0 0)
(294.656 0 0)
(295.038 0 0)
(295.406 0 0)
(295.759 0 0)
(296.098 0 0)
(296.422 0 0)
(296.731 0 0)
(297.025 0 0)
(297.305 0 0)
(297.569 0 0)
(297.818 0 0)
(298.052 0 0)
(298.271 0 0)
(298.475 0 0)
(298.663 0 0)
(298.835 0 0)
(298.992 0 0)
(299.133 0 0)
(299.258 0 0)
(299.367 0 0)
(299.461 0 0)
(299.537 0 0)
(299.598 0 0)
(299.642 0 0)
(299.669 0 0)
(299.679 0 0)
(299.672 0 0)
(299.648 0 0)
(299.607 0 0)
(299.548 0 0)
(299.471 0 0)
(299.377 0 0)
(299.264 0 0)
(299.132 0 0)
(298.982 0 0)
(298.813 0 0)
(298.625 0 0)
(298.417 0 0)
(298.189 0 0)
(297.941 0 0)
(297.672 0 0)
(297.382 0 0)
(297.072 0 0)
(296.739 0 0)
(296.384 0 0)
(296.007 0 0)
(295.605 0 0)
(295.182 0 0)
(294.73 0 0)
(294.264 0 0)
(293.743 0 0)
(293.28 0 0)
(292.544 0 0)
(280.422 0 0)
(281.14 0 0)
(281.845 0 0)
(282.536 0 0)
(283.214 0 0)
(283.879 0 0)
(284.531 0 0)
(285.169 0 0)
(285.794 0 0)
(286.406 0 0)
(287.005 0 0)
(287.591 0 0)
(288.163 0 0)
(288.722 0 0)
(289.268 0 0)
(289.8 0 0)
(290.319 0 0)
(290.825 0 0)
(291.317 0 0)
(291.796 0 0)
(292.261 0 0)
(292.713 0 0)
(293.152 0 0)
(293.576 0 0)
(293.987 0 0)
(294.385 0 0)
(294.768 0 0)
(295.138 0 0)
(295.494 0 0)
(295.836 0 0)
(296.164 0 0)
(296.478 0 0)
(296.778 0 0)
(297.063 0 0)
(297.335 0 0)
(297.592 0 0)
(297.834 0 0)
(298.063 0 0)
(298.276 0 0)
(298.475 0 0)
(298.66 0 0)
(298.829 0 0)
(298.984 0 0)
(299.123 0 0)
(299.247 0 0)
(299.356 0 0)
(299.45 0 0)
(299.528 0 0)
(299.591 0 0)
(299.638 0 0)
(299.669 0 0)
(299.683 0 0)
(299.682 0 0)
(299.664 0 0)
(299.63 0 0)
(299.579 0 0)
(299.512 0 0)
(299.427 0 0)
(299.325 0 0)
(299.206 0 0)
(299.068 0 0)
(298.913 0 0)
(298.74 0 0)
(298.549 0 0)
(298.339 0 0)
(298.109 0 0)
(297.861 0 0)
(297.593 0 0)
(297.305 0 0)
(296.997 0 0)
(296.668 0 0)
(296.318 0 0)
(295.946 0 0)
(295.554 0 0)
(295.135 0 0)
(294.703 0 0)
(294.221 0 0)
(293.792 0 0)
(293.113 0 0)
(281.095 0 0)
(281.781 0 0)
(282.455 0 0)
(283.116 0 0)
(283.766 0 0)
(284.402 0 0)
(285.027 0 0)
(285.639 0 0)
(286.238 0 0)
(286.825 0 0)
(287.4 0 0)
(287.962 0 0)
(288.512 0 0)
(289.049 0 0)
(289.574 0 0)
(290.086 0 0)
(290.586 0 0)
(291.072 0 0)
(291.547 0 0)
(292.008 0 0)
(292.456 0 0)
(292.892 0 0)
(293.315 0 0)
(293.725 0 0)
(294.122 0 0)
(294.505 0 0)
(294.876 0 0)
(295.234 0 0)
(295.578 0 0)
(295.909 0 0)
(296.227 0 0)
(296.531 0 0)
(296.822 0 0)
(297.1 0 0)
(297.364 0 0)
(297.614 0 0)
(297.85 0 0)
(298.073 0 0)
(298.281 0 0)
(298.476 0 0)
(298.657 0 0)
(298.823 0 0)
(298.975 0 0)
(299.113 0 0)
(299.236 0 0)
(299.345 0 0)
(299.439 0 0)
(299.519 0 0)
(299.583 0 0)
(299.633 0 0)
(299.667 0 0)
(299.686 0 0)
(299.69 0 0)
(299.678 0 0)
(299.65 0 0)
(299.607 0 0)
(299.548 0 0)
(299.472 0 0)
(299.381 0 0)
(299.272 0 0)
(299.147 0 0)
(299.005 0 0)
(298.846 0 0)
(298.67 0 0)
(298.476 0 0)
(298.265 0 0)
(298.035 0 0)
(297.787 0 0)
(297.52 0 0)
(297.235 0 0)
(296.93 0 0)
(296.605 0 0)
(296.261 0 0)
(295.897 0 0)
(295.509 0 0)
(295.109 0 0)
(294.662 0 0)
(294.264 0 0)
(293.638 0 0)
(281.736 0 0)
(282.392 0 0)
(283.037 0 0)
(283.67 0 0)
(284.291 0 0)
(284.901 0 0)
(285.5 0 0)
(286.087 0 0)
(286.662 0 0)
(287.225 0 0)
(287.777 0 0)
(288.317 0 0)
(288.846 0 0)
(289.362 0 0)
(289.867 0 0)
(290.36 0 0)
(290.84 0 0)
(291.309 0 0)
(291.766 0 0)
(292.211 0 0)
(292.643 0 0)
(293.063 0 0)
(293.471 0 0)
(293.867 0 0)
(294.251 0 0)
(294.622 0 0)
(294.98 0 0)
(295.326 0 0)
(295.659 0 0)
(295.98 0 0)
(296.288 0 0)
(296.583 0 0)
(296.866 0 0)
(297.135 0 0)
(297.392 0 0)
(297.635 0 0)
(297.865 0 0)
(298.082 0 0)
(298.286 0 0)
(298.477 0 0)
(298.654 0 0)
(298.817 0 0)
(298.967 0 0)
(299.103 0 0)
(299.225 0 0)
(299.334 0 0)
(299.428 0 0)
(299.509 0 0)
(299.575 0 0)
(299.627 0 0)
(299.664 0 0)
(299.687 0 0)
(299.696 0 0)
(299.689 0 0)
(299.668 0 0)
(299.631 0 0)
(299.58 0 0)
(299.513 0 0)
(299.431 0 0)
(299.333 0 0)
(299.219 0 0)
(299.089 0 0)
(298.944 0 0)
(298.781 0 0)
(298.603 0 0)
(298.407 0 0)
(298.195 0 0)
(297.966 0 0)
(297.719 0 0)
(297.454 0 0)
(297.171 0 0)
(296.871 0 0)
(296.551 0 0)
(296.213 0 0)
(295.854 0 0)
(295.483 0 0)
(295.069 0 0)
(294.7 0 0)
(294.122 0 0)
(282.346 0 0)
(282.974 0 0)
(283.591 0 0)
(284.197 0 0)
(284.793 0 0)
(285.377 0 0)
(285.951 0 0)
(286.514 0 0)
(287.066 0 0)
(287.607 0 0)
(288.138 0 0)
(288.657 0 0)
(289.165 0 0)
(289.661 0 0)
(290.147 0 0)
(290.621 0 0)
(291.084 0 0)
(291.536 0 0)
(291.976 0 0)
(292.405 0 0)
(292.822 0 0)
(293.228 0 0)
(293.622 0 0)
(294.004 0 0)
(294.374 0 0)
(294.733 0 0)
(295.08 0 0)
(295.415 0 0)
(295.737 0 0)
(296.048 0 0)
(296.347 0 0)
(296.633 0 0)
(296.907 0 0)
(297.169 0 0)
(297.419 0 0)
(297.656 0 0)
(297.88 0 0)
(298.092 0 0)
(298.291 0 0)
(298.477 0 0)
(298.651 0 0)
(298.811 0 0)
(298.959 0 0)
(299.093 0 0)
(299.214 0 0)
(299.322 0 0)
(299.417 0 0)
(299.498 0 0)
(299.566 0 0)
(299.62 0 0)
(299.661 0 0)
(299.687 0 0)
(299.7 0 0)
(299.698 0 0)
(299.682 0 0)
(299.653 0 0)
(299.608 0 0)
(299.549 0 0)
(299.476 0 0)
(299.388 0 0)
(299.284 0 0)
(299.166 0 0)
(299.032 0 0)
(298.883 0 0)
(298.719 0 0)
(298.539 0 0)
(298.342 0 0)
(298.13 0 0)
(297.902 0 0)
(297.656 0 0)
(297.394 0 0)
(297.115 0 0)
(296.819 0 0)
(296.506 0 0)
(296.173 0 0)
(295.828 0 0)
(295.445 0 0)
(295.102 0 0)
(294.567 0 0)
(282.927 0 0)
(283.528 0 0)
(284.119 0 0)
(284.7 0 0)
(285.271 0 0)
(285.831 0 0)
(286.382 0 0)
(286.922 0 0)
(287.452 0 0)
(287.972 0 0)
(288.482 0 0)
(288.981 0 0)
(289.469 0 0)
(289.947 0 0)
(290.415 0 0)
(290.872 0 0)
(291.318 0 0)
(291.753 0 0)
(292.177 0 0)
(292.591 0 0)
(292.994 0 0)
(293.385 0 0)
(293.766 0 0)
(294.135 0 0)
(294.493 0 0)
(294.84 0 0)
(295.176 0 0)
(295.5 0 0)
(295.813 0 0)
(296.114 0 0)
(296.403 0 0)
(296.681 0 0)
(296.948 0 0)
(297.202 0 0)
(297.445 0 0)
(297.675 0 0)
(297.894 0 0)
(298.101 0 0)
(298.295 0 0)
(298.478 0 0)
(298.648 0 0)
(298.805 0 0)
(298.951 0 0)
(299.083 0 0)
(299.204 0 0)
(299.311 0 0)
(299.406 0 0)
(299.488 0 0)
(299.557 0 0)
(299.613 0 0)
(299.656 0 0)
(299.686 0 0)
(299.702 0 0)
(299.705 0 0)
(299.695 0 0)
(299.671 0 0)
(299.633 0 0)
(299.582 0 0)
(299.516 0 0)
(299.437 0 0)
(299.344 0 0)
(299.236 0 0)
(299.114 0 0)
(298.977 0 0)
(298.826 0 0)
(298.659 0 0)
(298.478 0 0)
(298.282 0 0)
(298.07 0 0)
(297.843 0 0)
(297.6 0 0)
(297.342 0 0)
(297.067 0 0)
(296.776 0 0)
(296.467 0 0)
(296.147 0 0)
(295.792 0 0)
(295.473 0 0)
(294.979 0 0)
(283.481 0 0)
(284.056 0 0)
(284.622 0 0)
(285.179 0 0)
(285.727 0 0)
(286.265 0 0)
(286.793 0 0)
(287.312 0 0)
(287.821 0 0)
(288.321 0 0)
(288.811 0 0)
(289.291 0 0)
(289.761 0 0)
(290.221 0 0)
(290.671 0 0)
(291.111 0 0)
(291.541 0 0)
(291.961 0 0)
(292.37 0 0)
(292.769 0 0)
(293.158 0 0)
(293.536 0 0)
(293.904 0 0)
(294.261 0 0)
(294.607 0 0)
(294.943 0 0)
(295.268 0 0)
(295.582 0 0)
(295.885 0 0)
(296.177 0 0)
(296.458 0 0)
(296.728 0 0)
(296.986 0 0)
(297.234 0 0)
(297.47 0 0)
(297.695 0 0)
(297.908 0 0)
(298.11 0 0)
(298.3 0 0)
(298.478 0 0)
(298.645 0 0)
(298.8 0 0)
(298.943 0 0)
(299.074 0 0)
(299.193 0 0)
(299.3 0 0)
(299.394 0 0)
(299.477 0 0)
(299.547 0 0)
(299.605 0 0)
(299.65 0 0)
(299.683 0 0)
(299.703 0 0)
(299.71 0 0)
(299.705 0 0)
(299.686 0 0)
(299.655 0 0)
(299.61 0 0)
(299.553 0 0)
(299.482 0 0)
(299.397 0 0)
(299.299 0 0)
(299.188 0 0)
(299.062 0 0)
(298.923 0 0)
(298.77 0 0)
(298.603 0 0)
(298.422 0 0)
(298.226 0 0)
(298.015 0 0)
(297.79 0 0)
(297.55 0 0)
(297.295 0 0)
(297.026 0 0)
(296.739 0 0)
(296.442 0 0)
(296.112 0 0)
(295.816 0 0)
(295.359 0 0)
(284.009 0 0)
(284.56 0 0)
(285.103 0 0)
(285.637 0 0)
(286.162 0 0)
(286.678 0 0)
(287.186 0 0)
(287.684 0 0)
(288.174 0 0)
(288.654 0 0)
(289.125 0 0)
(289.587 0 0)
(290.04 0 0)
(290.483 0 0)
(290.916 0 0)
(291.341 0 0)
(291.755 0 0)
(292.16 0 0)
(292.555 0 0)
(292.94 0 0)
(293.316 0 0)
(293.681 0 0)
(294.036 0 0)
(294.382 0 0)
(294.717 0 0)
(295.042 0 0)
(295.356 0 0)
(295.661 0 0)
(295.954 0 0)
(296.238 0 0)
(296.51 0 0)
(296.773 0 0)
(297.024 0 0)
(297.265 0 0)
(297.494 0 0)
(297.713 0 0)
(297.921 0 0)
(298.118 0 0)
(298.304 0 0)
(298.479 0 0)
(298.642 0 0)
(298.794 0 0)
(298.935 0 0)
(299.064 0 0)
(299.182 0 0)
(299.288 0 0)
(299.383 0 0)
(299.466 0 0)
(299.537 0 0)
(299.596 0 0)
(299.644 0 0)
(299.679 0 0)
(299.703 0 0)
(299.714 0 0)
(299.713 0 0)
(299.7 0 0)
(299.674 0 0)
(299.636 0 0)
(299.585 0 0)
(299.522 0 0)
(299.446 0 0)
(299.357 0 0)
(299.255 0 0)
(299.141 0 0)
(299.013 0 0)
(298.872 0 0)
(298.718 0 0)
(298.55 0 0)
(298.369 0 0)
(298.174 0 0)
(297.965 0 0)
(297.743 0 0)
(297.506 0 0)
(297.256 0 0)
(296.99 0 0)
(296.714 0 0)
(296.408 0 0)
(296.133 0 0)
(295.71 0 0)
(284.512 0 0)
(285.041 0 0)
(285.561 0 0)
(286.074 0 0)
(286.578 0 0)
(287.073 0 0)
(287.561 0 0)
(288.04 0 0)
(288.511 0 0)
(288.973 0 0)
(289.426 0 0)
(289.871 0 0)
(290.306 0 0)
(290.733 0 0)
(291.151 0 0)
(291.56 0 0)
(291.96 0 0)
(292.351 0 0)
(292.732 0 0)
(293.104 0 0)
(293.467 0 0)
(293.82 0 0)
(294.164 0 0)
(294.498 0 0)
(294.822 0 0)
(295.137 0 0)
(295.442 0 0)
(295.736 0 0)
(296.021 0 0)
(296.296 0 0)
(296.561 0 0)
(296.816 0 0)
(297.06 0 0)
(297.294 0 0)
(297.518 0 0)
(297.731 0 0)
(297.934 0 0)
(298.126 0 0)
(298.308 0 0)
(298.479 0 0)
(298.639 0 0)
(298.789 0 0)
(298.927 0 0)
(299.055 0 0)
(299.171 0 0)
(299.277 0 0)
(299.371 0 0)
(299.455 0 0)
(299.527 0 0)
(299.587 0 0)
(299.637 0 0)
(299.675 0 0)
(299.701 0 0)
(299.716 0 0)
(299.719 0 0)
(299.71 0 0)
(299.69 0 0)
(299.658 0 0)
(299.614 0 0)
(299.558 0 0)
(299.49 0 0)
(299.409 0 0)
(299.317 0 0)
(299.212 0 0)
(299.095 0 0)
(298.965 0 0)
(298.823 0 0)
(298.668 0 0)
(298.501 0 0)
(298.32 0 0)
(298.127 0 0)
(297.921 0 0)
(297.701 0 0)
(297.469 0 0)
(297.222 0 0)
(296.966 0 0)
(296.682 0 0)
(296.426 0 0)
(296.034 0 0)
(284.992 0 0)
(285.499 0 0)
(285.999 0 0)
(286.49 0 0)
(286.974 0 0)
(287.451 0 0)
(287.919 0 0)
(288.38 0 0)
(288.833 0 0)
(289.277 0 0)
(289.714 0 0)
(290.142 0 0)
(290.562 0 0)
(290.973 0 0)
(291.376 0 0)
(291.771 0 0)
(292.157 0 0)
(292.534 0 0)
(292.902 0 0)
(293.261 0 0)
(293.612 0 0)
(293.954 0 0)
(294.286 0 0)
(294.609 0 0)
(294.923 0 0)
(295.228 0 0)
(295.523 0 0)
(295.809 0 0)
(296.086 0 0)
(296.353 0 0)
(296.61 0 0)
(296.857 0 0)
(297.095 0 0)
(297.323 0 0)
(297.541 0 0)
(297.749 0 0)
(297.947 0 0)
(298.134 0 0)
(298.312 0 0)
(298.479 0 0)
(298.637 0 0)
(298.783 0 0)
(298.92 0 0)
(299.046 0 0)
(299.161 0 0)
(299.266 0 0)
(299.36 0 0)
(299.443 0 0)
(299.516 0 0)
(299.578 0 0)
(299.629 0 0)
(299.669 0 0)
(299.698 0 0)
(299.716 0 0)
(299.723 0 0)
(299.719 0 0)
(299.704 0 0)
(299.677 0 0)
(299.639 0 0)
(299.59 0 0)
(299.529 0 0)
(299.457 0 0)
(299.373 0 0)
(299.277 0 0)
(299.17 0 0)
(299.051 0 0)
(298.92 0 0)
(298.777 0 0)
(298.622 0 0)
(298.455 0 0)
(298.276 0 0)
(298.085 0 0)
(297.881 0 0)
(297.666 0 0)
(297.436 0 0)
(297.198 0 0)
(296.935 0 0)
(296.697 0 0)
(296.334 0 0)
(285.451 0 0)
(285.937 0 0)
(286.416 0 0)
(286.889 0 0)
(287.354 0 0)
(287.811 0 0)
(288.262 0 0)
(288.705 0 0)
(289.141 0 0)
(289.569 0 0)
(289.989 0 0)
(290.401 0 0)
(290.806 0 0)
(291.203 0 0)
(291.592 0 0)
(291.972 0 0)
(292.345 0 0)
(292.709 0 0)
(293.065 0 0)
(293.412 0 0)
(293.751 0 0)
(294.082 0 0)
(294.403 0 0)
(294.716 0 0)
(295.021 0 0)
(295.316 0 0)
(295.602 0 0)
(295.88 0 0)
(296.148 0 0)
(296.407 0 0)
(296.657 0 0)
(296.897 0 0)
(297.129 0 0)
(297.35 0 0)
(297.563 0 0)
(297.765 0 0)
(297.959 0 0)
(298.142 0 0)
(298.316 0 0)
(298.48 0 0)