/*--------------------------------*- C++ -*----------------------------------*\
| =========                 |                                                 |
| \\      /  F ield         | OpenFOAM: The Open Source CFD Toolbox           |
|  \\    /   O peration     | Version:  2312                                  |
|   \\  /    A nd           | Website:  www.openfoam.com                      |
|    \\/     M anipulation  |                                                 |
\*---------------------------------------------------------------------------*/
FoamFile
{
    version     2.0;
    format      ascii;
    arch        "LSB;label=32;scalar=64";
    class       surfaceScalarField;
    location    "0.285";
    object      phi;
}
// * * * * * * * * * * * * * * * * * * * * * * * * * * * * * * * * * * * * * //

dimensions      [0 3 -1 0 0 0 0];

oriented        oriented;

internalField   nonuniform List<scalar> 
62015
(
77.6375
0.151396
-78.3324
76.9304
0.147241
76.2106
0.143041
75.4775
0.138797
74.7302
0.134513
73.9679
0.130193
73.1897
0.12584
72.3944
0.121457
71.581
0.11705
70.748
0.112619
69.8939
0.10817
69.0171
0.103707
68.1154
0.0992325
67.1868
0.094751
66.2285
0.0902665
65.2376
0.0857827
64.2105
0.0813042
63.1429
0.0768344
62.03
0.0723774
60.8655
0.0679375
59.6421
0.0635188
58.3502
0.0591245
56.9781
0.0547589
55.5102
0.0504249
53.9257
0.0461252
52.1951
0.0418616
50.2743
0.037632
48.1054
0.0334318
45.6425
0.0292631
42.9098
0.0251637
40.0546
0.0212325
37.3252
0.0176103
34.9655
0.0144092
33.1113
0.0116517
31.7681
0.00927572
30.8592
0.00717976
30.283
0.00526733
29.9487
0.00346415
29.7865
0.0017192
29.7468
0
29.7956
-0.00171449
29.9096
-0.00343769
30.0726
-0.00517771
30.2733
-0.0069403
30.5037
-0.00872905
30.7579
-0.0105459
31.0314
-0.0123926
31.321
-0.0142695
31.6241
-0.0161773
31.9387
-0.0181158
32.2633
-0.0200848
32.5966
-0.0220837
32.9374
-0.0241119
33.2852
-0.0261689
33.639
-0.0282535
33.9984
-0.030365
34.3629
-0.0325022
34.7321
-0.034664
35.1056
-0.0368495
35.4832
-0.0390571
35.8646
-0.0412858
36.2496
-0.0435345
36.6381
-0.0458014
37.0298
-0.0480854
37.4247
-0.0503853
37.8226
-0.0526994
38.2235
-0.0550264
38.6272
-0.0573647
39.0337
-0.0597131
39.443
-0.0620698
39.8548
-0.0644335
40.2693
-0.0668023
40.6862
-0.0691756
41.1061
-0.0715499
41.5268
-0.0739282
41.9554
-0.0762959
42.3693
-0.0786913
42.8383
-0.0809883
-0.0835759
43.1481
74.7394
0.295937
-75.4134
74.0536
0.287795
73.3559
0.279564
72.6454
0.271251
71.9215
0.26286
71.1833
0.2544
70.4299
0.245877
69.6602
0.237298
68.8731
0.228669
68.0673
0.219998
67.2413
0.211292
66.3935
0.202558
65.5217
0.193804
64.624
0.185037
63.6977
0.176264
62.7399
0.167494
61.7471
0.158734
60.7151
0.149991
59.6391
0.141274
58.5131
0.132591
57.3296
0.123948
56.0794
0.115353
54.7507
0.106813
53.3282
0.0983344
51.7912
0.089921
50.1098
0.0815753
48.2405
0.0732921
46.1297
0.0650633
43.7423
0.0569025
41.1169
0.0489024
38.4074
0.0412706
35.8497
0.0342762
33.6602
0.0281106
31.9497
0.0227926
30.7124
0.0181883
29.8733
0.014104
29.3387
0.0103592
29.0257
0.00681711
28.8714
0.00338436
28.8306
0
28.8724
-0.00337488
28.9753
-0.00676519
29.1244
-0.0101871
29.3093
-0.0136509
29.5224
-0.0171635
29.7582
-0.0207293
30.0126
-0.0243507
30.2824
-0.0280298
30.5653
-0.0317667
30.8593
-0.0355617
31.1629
-0.039414
31.475
-0.0433233
31.7945
-0.0472878
32.1207
-0.0513066
32.4528
-0.0553776
32.7904
-0.0594993
33.133
-0.0636697
33.4802
-0.0678866
33.8316
-0.0721478
34.1871
-0.0764511
34.5463
-0.080794
34.909
-0.085174
35.2751
-0.0895888
35.6445
-0.0940355
36.0169
-0.0985115
36.3923
-0.103014
36.7706
-0.107541
37.1517
-0.112088
37.5355
-0.116654
37.922
-0.121235
38.3111
-0.125829
38.7027
-0.130432
39.0967
-0.135042
39.4937
-0.139653
39.8914
-0.144271
40.2966
-0.148868
40.6883
-0.153517
41.1313
-0.157978
-0.162986
41.4276
71.916
0.433737
-72.57
71.2506
0.42177
70.5739
0.409676
69.885
0.397462
69.1834
0.385138
68.468
0.372713
67.7381
0.360197
66.9927
0.3476
66.2305
0.334933
65.4503
0.322205
64.6506
0.309428
63.8298
0.29661
62.9861
0.283764
62.1171
0.2709
61.2205
0.258029
60.2933
0.245162
59.3321
0.23231
58.3328
0.219485
57.2905
0.206698
56.1992
0.193959
55.0517
0.181279
53.8388
0.168669
52.5485
0.156138
51.1655
0.143694
49.6688
0.131343
48.0282
0.119085
46.2008
0.106912
44.1382
0.0948156
41.8187
0.0828354
39.2985
0.0711387
36.7383
0.0600522
34.3597
0.0499539
32.3493
0.0410777
30.7909
0.0334075
29.667
0.0267311
28.9039
0.0207707
28.4158
0.0152766
28.1284
0.0100611
27.9853
0.00499687
27.9463
0
27.9835
-0.00498336
28.0774
-0.00998804
28.2145
-0.0150368
28.3853
-0.0201442
28.5827
-0.0253201
28.8017
-0.030571
29.0384
-0.0359006
29.2899
-0.0413113
29.5539
-0.046804
29.8287
-0.0523788
30.1127
-0.0580351
30.405
-0.0637716
30.7044
-0.0695866
31.0104
-0.0754781
31.3221
-0.0814439
31.6392
-0.0874813
31.9611
-0.0935876
32.2876
-0.0997595
32.6182
-0.105994
32.9527
-0.112288
33.2909
-0.118638
33.6326
-0.12504
33.9776
-0.131491
34.3257
-0.137986
34.6769
-0.144523
35.0311
-0.151097
35.388
-0.157703
35.7477
-0.164339
36.1101
-0.171
36.475
-0.177681
36.8425
-0.18438
37.2125
-0.19109
37.5848
-0.197809
37.96
-0.204529
38.336
-0.211256
38.7191
-0.217953
39.0897
-0.22472
39.5081
-0.231222
-0.238495
39.7905
69.1819
0.564999
-69.8166
68.5363
0.549367
67.88
0.533571
67.212
0.517622
66.5318
0.501531
65.8384
0.485311
65.1311
0.468975
64.4088
0.452536
63.6704
0.436006
62.9147
0.419399
62.1401
0.402729
61.3451
0.386008
60.5279
0.369252
59.6862
0.352473
58.8176
0.335686
57.9192
0.318905
56.9876
0.302144
56.0188
0.285419
55.0079
0.268742
53.949
0.252128
52.8347
0.23559
51.6557
0.219141
50.4002
0.202793
49.0526
0.186554
47.5915
0.170431
45.9858
0.154422
44.194
0.138513
42.1745
0.122703
39.9209
0.107077
37.5068
0.0918962
35.0983
0.0776097
32.8994
0.0646779
31.0665
0.053339
29.658
0.0435165
28.6458
0.0349166
27.9582
0.0271877
27.5172
0.020024
27.2565
0.0131991
27.1262
0.00655828
27.0905
0
27.1246
-0.00654173
27.2112
-0.0131099
27.3379
-0.0197328
27.4961
-0.0264288
27.6794
-0.0332109
27.883
-0.0400863
28.1035
-0.0470608
28.338
-0.0541369
28.5846
-0.0613161
28.8414
-0.0685985
29.1072
-0.0759833
29.3809
-0.083469
29.6616
-0.0910535
29.9485
-0.0987343
30.2412
-0.106508
30.539
-0.114373
30.8415
-0.122323
31.1484
-0.130356
31.4594
-0.138468
31.7742
-0.146654
32.0926
-0.154909
32.4145
-0.163231
32.7396
-0.171612
33.0677
-0.18005
33.3989
-0.188538
33.7329
-0.197072
34.0696
-0.205646
34.4091
-0.214257
34.7512
-0.222897
35.0958
-0.231562
35.4428
-0.240247
35.7924
-0.248945
36.1442
-0.257652
36.4988
-0.266359
36.8542
-0.275074
37.2163
-0.283748
37.567
-0.292508
37.9622
-0.300932
-0.310329
38.2306
66.5417
0.689948
-67.1574
65.9155
0.670808
65.279
0.651468
64.6314
0.631944
63.972
0.612249
63.3001
0.5924
62.6146
0.572411
61.9148
0.552297
61.1994
0.532076
60.4672
0.511761
59.7169
0.491372
58.9467
0.470922
58.1549
0.45043
57.3393
0.429912
56.4975
0.409384
55.6267
0.388866
54.7234
0.368372
53.7836
0.347921
52.8025
0.327529
51.7741
0.307213
50.6911
0.286988
49.544
0.26687
48.3209
0.24687
47.006
0.226999
45.577
0.207261
44.0029
0.187651
42.2437
0.168153
40.2667
0.148783
38.0814
0.12969
35.7775
0.111249
33.5218
0.0940225
31.4989
0.0785206
29.8357
0.0649499
28.5682
0.0531568
27.6602
0.0427674
27.0432
0.0333679
26.6464
0.0246092
26.4112
0.0162348
26.2933
0.00807017
26.2614
0
26.2933
-0.00805143
26.3734
-0.0161339
26.4908
-0.0242802
26.6375
-0.0325121
26.8078
-0.0408446
26.9973
-0.0492871
27.2027
-0.0578458
27.4215
-0.0665239
27.6518
-0.0753235
27.8919
-0.0842447
28.1406
-0.0932865
28.3969
-0.102447
28.66
-0.111724
28.9292
-0.121115
29.2038
-0.130615
29.4835
-0.140222
29.7678
-0.14993
30.0563
-0.159735
30.3489
-0.169632
30.6451
-0.179617
30.9449
-0.189683
31.248
-0.199825
31.5543
-0.210038
31.8636
-0.220316
32.1758
-0.230653
32.4908
-0.241043
32.8085
-0.251479
33.1288
-0.261956
33.4517
-0.272467
33.7771
-0.283005
34.1048
-0.293564
34.435
-0.304138
34.7674
-0.31472
35.1025
-0.3253
35.4384
-0.335886
35.7807
-0.346421
36.1124
-0.357057
36.4858
-0.367289
-0.378676
36.7405
63.9952
0.808809
-64.5924
63.388
0.78631
62.771
0.763581
62.1432
0.740638
61.5042
0.717498
60.8531
0.694179
60.189
0.670699
59.5109
0.647075
58.8179
0.623327
58.1086
0.599472
57.3816
0.57553
56.6354
0.55152
55.8682
0.527461
55.0778
0.503372
54.2619
0.479274
53.4175
0.455187
52.5414
0.431128
51.6294
0.40712
50.6768
0.38318
49.6775
0.359327
48.6242
0.335579
47.5073
0.311952
46.3148
0.288459
45.0303
0.265111
43.6312
0.241908
42.0862
0.218839
40.3587
0.195893
38.4259
0.173119
36.3137
0.15075
34.1245
0.129283
32.0219
0.109377
30.1688
0.0915566
28.6646
0.0759667
27.5268
0.0623657
26.7139
0.0503066
26.161
0.0393249
25.8047
0.0290393
25.5927
0.0191723
25.4865
0.00953446
25.4581
0
25.488
-0.00951418
25.5623
-0.0190632
25.6711
-0.0286837
25.8073
-0.0384008
25.9655
-0.0482305
26.1419
-0.0581844
26.3333
-0.0682691
26.5374
-0.0784888
26.7525
-0.0888457
26.977
-0.0993398
27.2097
-0.10997
27.4498
-0.120735
27.6964
-0.131632
27.9488
-0.142657
28.2066
-0.153806
28.4692
-0.165074
28.7363
-0.176457
29.0076
-0.18795
29.2827
-0.199546
29.5615
-0.21124
29.8437
-0.223026
30.1291
-0.234898
30.4176
-0.246848
30.7091
-0.258871
31.0034
-0.270959
31.3005
-0.283105
31.6002
-0.295302
31.9025
-0.307544
32.2072
-0.319822
32.5144
-0.332129
32.8239
-0.344458
33.1357
-0.3568
33.4497
-0.369149
33.7663
-0.381493
34.0838
-0.393841
34.4074
-0.406128
34.721
-0.418527
35.0739
-0.430462
-0.443713
35.3154
61.5402
0.921792
-62.1192
60.9517
0.896083
60.3537
0.870114
59.7454
0.843904
59.1262
0.817473
58.4954
0.79084
57.852
0.764026
57.1952
0.73705
56.5238
0.709935
55.8367
0.6827
55.1325
0.655367
54.4095
0.627958
53.6661
0.600495
52.9
0.573
52.109
0.545494
51.2902
0.518
50.4401
0.49054
49.5549
0.463135
48.6296
0.435807
47.6581
0.408577
46.6331
0.381462
45.545
0.354481
44.3813
0.327645
43.1254
0.300965
41.7541
0.274437
40.2367
0.248047
38.5411
0.221793
36.6557
0.195775
34.622
0.170332
32.5517
0.146083
30.601
0.123757
28.9099
0.103856
27.5533
0.0864396
26.5337
0.0711762
25.8067
0.0575543
25.3117
0.0450706
24.9917
0.0333217
24.8009
0.0220155
24.7051
0.0109528
24.68
0
24.7081
-0.0109315
24.777
-0.021901
24.8779
-0.0329486
25.0042
-0.0441012
25.1513
-0.0553774
25.3154
-0.0667891
25.4937
-0.0783442
25.6842
-0.0900477
25.885
-0.101901
26.0948
-0.113906
26.3126
-0.12606
26.5374
-0.138362
26.7685
-0.150809
27.0052
-0.163396
27.2471
-0.176119
27.4937
-0.188973
27.7446
-0.201954
27.9996
-0.215053
28.2583
-0.228267
28.5206
-0.241587
28.7862
-0.255007
29.055
-0.26852
29.3268
-0.282118
29.6015
-0.295795
29.8789
-0.309541
30.159
-0.32335
30.4417
-0.337214
30.7269
-0.351124
31.0145
-0.365072
31.3044
-0.379048
31.5967
-0.393047
31.8912
-0.407057
32.1878
-0.421072
32.487
-0.435078
32.787
-0.449084
33.0928
-0.46302
33.3894
-0.477076
33.7229
-0.490613
-0.50561
33.9518
59.174
1.0291
-59.7352
58.6038
1.00033
58.0243
0.971264
57.435
0.941935
56.8352
0.912362
56.2241
0.882565
55.601
0.852569
54.9648
0.822395
54.3145
0.792066
53.6489
0.761606
52.9666
0.731039
52.2662
0.700388
51.5457
0.669678
50.8032
0.638932
50.0362
0.608175
49.2419
0.577431
48.417
0.546724
47.5574
0.516078
46.6582
0.485516
45.7134
0.455059
44.7154
0.424727
43.6545
0.394537
42.5181
0.364502
41.289
0.334629
39.9437
0.304909
38.4529
0.275327
36.7903
0.245905
34.9565
0.216814
33.007
0.188511
31.0589
0.161731
29.2574
0.13724
27.7198
0.115481
26.4994
0.0964134
25.587
0.0796176
24.9371
0.0645285
24.494
0.0506162
24.2066
0.0374627
24.0348
0.0247681
23.9486
0.0123267
23.9263
0
23.9526
-0.0123048
24.0166
-0.0246504
24.1101
-0.0370792
24.2273
-0.0496204
24.364
-0.0622936
24.5166
-0.0751121
24.6828
-0.0880846
24.8604
-0.101216
25.0479
-0.114509
25.244
-0.127964
25.4478
-0.14158
25.6582
-0.155355
25.8747
-0.169285
26.0967
-0.183366
26.3237
-0.197594
26.5552
-0.211962
26.7909
-0.226465
27.0305
-0.241096
27.2738
-0.255848
27.5206
-0.270715
27.7706
-0.285688
28.0236
-0.300759
28.2797
-0.315921
28.5385
-0.331166
28.8
-0.346484
29.0641
-0.361868
29.3307
-0.377308
29.5997
-0.392794
29.8711
-0.40832
30.1448
-0.423873
30.4207
-0.439447
30.6988
-0.45503
30.979
-0.470615
31.2616
-0.486185
31.5451
-0.501753
31.8341
-0.51724
32.1145
-0.532853
32.4296
-0.547898
-0.564526
32.6467
56.8937
1.13094
-57.4373
56.3412
1.09924
55.7799
1.06722
55.2091
1.03491
54.6282
1.00234
54.0364
0.969529
53.4328
0.936497
52.8167
0.903273
52.1868
0.86988
51.542
0.836345
50.8811
0.802693
50.2024
0.768951
49.5041
0.735144
48.7843
0.701298
48.0405
0.667441
47.2698
0.633597
46.4691
0.599793
45.6341
0.566053
44.76
0.532403
43.8406
0.498864
42.8683
0.465457
41.8332
0.432199
40.7224
0.3991
39.5183
0.366163
38.1976
0.333377
36.7328
0.300731
35.1052
0.268285
33.3278
0.236302
31.468
0.205368
29.6443
0.176312
27.9881
0.149901
26.5949
0.12649
25.4994
0.105928
24.6839
0.0877155
24.1033
0.0712453
23.7065
0.055971
23.4485
0.0414683
23.2937
0.0274336
23.216
0.0136579
23.1963
0
23.2209
-0.0136357
23.2802
-0.0273144
23.3669
-0.0410803
23.4757
-0.0549644
23.6026
-0.0689875
23.7446
-0.0831638
23.8994
-0.0975026
24.065
-0.112009
24.24
-0.126686
24.4233
-0.141535
24.6139
-0.156554
24.8109
-0.171741
25.0137
-0.187092
25.2219
-0.202602
25.4348
-0.218267
25.6521
-0.234081
25.8735
-0.250036
26.0987
-0.266126
26.3275
-0.282344
26.5596
-0.298681
26.7948
-0.31513
27.0331
-0.331682
27.2742
-0.348328
27.518
-0.36506
27.7645
-0.381867
28.0135
-0.398741
28.2649
-0.415672
28.5187
-0.43265
28.7747
-0.449666
29.0331
-0.466708
29.2935
-0.483768
29.5562
-0.500834
29.8208
-0.517898
30.0877
-0.534943
30.3557
-0.551979
30.6287
-0.568926
30.8938
-0.586001
31.1915
-0.602465
-0.620619
31.3973
54.6963
1.22749
-55.2228
54.1612
1.193
53.6176
1.15817
53.0648
1.12302
52.5022
1.08759
51.9291
1.0519
51.3446
1.01598
50.7479
0.979842
50.1378
0.943529
49.5133
0.907064
48.8729
0.870472
48.2152
0.833783
47.5384
0.797024
46.8404
0.760224
46.1189
0.72341
45.3711
0.68661
44.5934
0.649852
43.782
0.613161
42.9318
0.576562
42.0367
0.54008
41.0887
0.503733
40.0781
0.467537
38.9913
0.431502
37.8107
0.395625
36.5132
0.359892
35.0748
0.324308
33.485
0.288989
31.7691
0.25431
30.0038
0.220984
28.3054
0.18991
26.7896
0.161812
25.5313
0.136937
24.5498
0.11502
23.8217
0.0954929
23.3031
0.0777193
22.9479
0.0611444
22.7161
0.0453439
22.5767
0.0300148
22.5066
0.0149476
22.4891
0
22.5122
-0.0149255
22.5672
-0.0298957
22.6475
-0.0449564
22.7484
-0.0601394
22.8663
-0.0754671
22.9983
-0.0909541
23.1425
-0.10661
23.2969
-0.122441
23.4603
-0.138451
23.6315
-0.154639
23.8097
-0.171004
23.9942
-0.187545
24.1842
-0.204257
24.3792
-0.221135
24.579
-0.238174
24.7829
-0.255368
24.9909
-0.272709
25.2025
-0.29019
25.4176
-0.307804
25.6359
-0.325541
25.8572
-0.343393
26.0815
-0.361351
26.3086
-0.379406
26.5383
-0.397547
26.7705
-0.415766
27.0052
-0.434051
27.2423
-0.452393
27.4817
-0.470781
27.7233
-0.489205
27.9671
-0.507653
28.213
-0.526115
28.461
-0.544579
28.7109
-0.563037
28.963
-0.581469
29.2162
-0.599888
29.4742
-0.618207
29.7248
-0.636656
30.0061
-0.654454
-0.674033
30.2011
52.579
1.31895
-53.0889
52.0609
1.28179
51.5345
1.24428
50.9992
1.20643
50.4545
1.16827
49.8996
1.12984
49.3336
1.09116
48.7557
1.05226
48.1648
1.01316
47.5598
0.973904
46.9393
0.934512
46.3019
0.895016
45.6457
0.855445
44.9688
0.815829
44.2688
0.776197
43.5427
0.736578
42.7873
0.697002
41.9985
0.657494
41.1711
0.618081
40.299
0.578786
39.3742
0.539627
38.3865
0.500619
37.3223
0.461768
36.1636
0.423066
34.8885
0.384502
33.4774
0.346109
31.9289
0.30808
30.2799
0.270916
28.6133
0.235448
27.0397
0.202607
25.6583
0.173041
24.5252
0.14687
23.6474
0.123722
22.9978
0.102971
22.5348
0.0839633
22.2167
0.0661444
22.0084
0.0490947
21.8828
0.0325151
21.8196
0.0161976
21.8041
0
21.8257
-0.0161757
21.8766
-0.0323971
21.951
-0.0487113
22.0446
-0.0651514
22.1541
-0.0817399
22.2769
-0.0984925
22.4111
-0.115419
22.5551
-0.132527
22.7075
-0.149818
22.8675
-0.167293
23.0342
-0.184952
23.2068
-0.202791
23.3847
-0.220807
23.5676
-0.238995
23.7549
-0.257348
23.9463
-0.27586
24.1416
-0.294524
24.3404
-0.313332
24.5426
-0.332275
24.7479
-0.351344
24.9561
-0.370531
25.1672
-0.389825
25.381
-0.409217
25.5974
-0.428696
25.8163
-0.448252
26.0375
-0.467874
26.2611
-0.487551
26.4868
-0.507272
26.7148
-0.527026
26.9448
-0.546802
27.1769
-0.566587
27.4111
-0.586369
27.647
-0.606139
27.8852
-0.625878
28.1244
-0.645598
28.3682
-0.665207
28.6051
-0.684946
28.8708
-0.703998
-0.724908
29.0557
50.5392
1.40549
-51.0328
50.0375
1.3658
49.5279
1.32572
49.0097
1.2853
48.4823
1.24455
47.9449
1.20351
47.3969
1.16221
46.8372
1.12067
46.2649
1.07892
45.6787
1.037
45.0775
0.994946
44.4596
0.952775
43.8234
0.910526
43.1667
0.868226
42.4873
0.825909
41.7822
0.783604
41.0481
0.74134
40.2807
0.699144
39.4751
0.657043
38.6249
0.615059
37.7219
0.57321
36.7558
0.531507
35.7127
0.489953
34.5746
0.448536
33.3216
0.407256
31.9395
0.366188
30.4365
0.325626
28.8596
0.286204
27.2949
0.24885
25.8444
0.214485
24.5904
0.183653
23.5729
0.156335
22.7891
0.132064
22.21
0.110169
21.7966
0.0899898
21.5117
0.0709789
21.3245
0.0527256
21.2112
0.034937
21.1542
0.0174088
21.1405
0
21.1607
-0.0173873
21.2078
-0.0348212
21.2767
-0.0523495
21.3635
-0.0700057
21.4652
-0.0878133
21.5794
-0.105788
21.7043
-0.123941
21.8385
-0.142278
21.9808
-0.160803
22.1302
-0.179516
22.286
-0.198417
22.4475
-0.217503
22.6142
-0.236769
22.7855
-0.25621
22.9612
-0.275821
23.1408
-0.295593
23.3242
-0.31552
23.5109
-0.335593
23.701
-0.355803
23.894
-0.37614
24.09
-0.396596
24.2886
-0.41716
24.4899
-0.437821
24.6938
-0.458569
24.9
-0.479393
25.1085
-0.500281
25.3193
-0.521222
25.5322
-0.542204
25.7472
-0.563215
25.9643
-0.584244
26.1834
-0.605277
26.4044
-0.626302
26.6272
-0.64731
26.8522
-0.668278
27.0781
-0.689221
27.3085
-0.710043
27.5324
-0.730993
27.7834
-0.751226
-0.773377
27.9587
48.5741
1.48729
-49.052
48.0885
1.44518
47.5951
1.40268
47.0935
1.3598
46.5829
1.31659
46.0626
1.27306
45.5319
1.22926
44.9898
1.18521
44.4354
1.14094
43.8675
1.0965
43.2848
1.0519
42.6858
1.00718
42.0687
0.962381
41.4316
0.917527
40.7719
0.872651
40.0869
0.827784
39.373
0.782956
38.6263
0.738196
37.8413
0.693527
37.0118
0.648972
36.1294
0.604546
35.1835
0.560259
34.1601
0.516108
33.0417
0.472083
31.811
0.428201
30.4603
0.384605
29.0076
0.341704
27.5077
0.300265
26.0469
0.261281
24.7165
0.225625
23.5825
0.193707
22.6709
0.165374
21.972
0.140072
21.4559
0.117104
21.0868
0.0958097
20.8317
0.075655
20.6633
0.0562412
20.5612
0.0372836
20.5097
0.0185828
20.4976
0
20.5164
-0.0185618
20.5601
-0.0371707
20.6239
-0.0558747
20.7043
-0.0747078
20.7987
-0.093694
20.9049
-0.112849
21.0211
-0.132185
21.1462
-0.151708
21.279
-0.171421
21.4185
-0.191326
21.5642
-0.21142
21.7153
-0.231702
21.8713
-0.252167
22.0319
-0.272809
22.1966
-0.293623
22.3652
-0.3146
22.5373
-0.335733
22.7128
-0.357012
22.8913
-0.37843
23.0729
-0.399975
23.2572
-0.421639
23.4442
-0.44341
23.6337
-0.465277
23.8256
-0.487229
24.0199
-0.509255
24.2165
-0.531342
24.4152
-0.553479
24.616
-0.575654
24.8188
-0.597853
25.0236
-0.620065
25.2304
-0.642276
25.439
-0.664473
25.6494
-0.686645
25.8619
-0.708771
26.0753
-0.730864
26.2929
-0.752826
26.5046
-0.774913
26.7416
-0.796255
-0.819565
26.9078
46.6812
1.56451
-47.1438
46.2112
1.52011
45.7336
1.47529
45.248
1.43009
44.7537
1.38452
44.25
1.33864
43.736
1.29246
43.211
1.24602
42.6739
1.19936
42.1236
1.1525
41.5587
1.10549
40.9779
1.05835
40.3792
1.01112
39.7608
0.963834
39.12
0.91652
38.4542
0.869212
37.7598
0.821939
37.0326
0.774729
36.2673
0.727607
35.4573
0.680592
34.5943
0.633698
33.6673
0.586929
32.6623
0.540282
31.563
0.493751
30.3556
0.44739
29.0395
0.401425
27.6419
0.356399
26.2234
0.313194
24.8672
0.272833
23.6527
0.236102
22.6309
0.203258
21.8161
0.174022
21.1935
0.147772
20.7337
0.123792
20.4041
0.101433
20.1754
0.0801795
20.0241
0.0596456
19.9319
0.0395573
19.8854
0.0197206
19.8746
0
19.8922
-0.0197003
19.9326
-0.0394477
19.9917
-0.0592906
20.0663
-0.0792629
20.1539
-0.0993889
20.2525
-0.119685
20.3608
-0.140163
20.4773
-0.160829
20.6012
-0.181686
20.7315
-0.202737
20.8676
-0.223979
21.009
-0.24541
21.1551
-0.267024
21.3055
-0.288817
21.46
-0.310782
21.6181
-0.332911
21.7797
-0.355196
21.9445
-0.377628
22.1123
-0.400197
22.283
-0.422894
22.4564
-0.445706
22.6323
-0.468625
22.8107
-0.491638
22.9915
-0.514733
23.1745
-0.537898
23.3598
-0.561122
23.5471
-0.584392
23.7364
-0.607694
23.9278
-0.631016
24.121
-0.654345
24.3161
-0.677667
24.5131
-0.700968
24.7118
-0.724238
24.9124
-0.747454
25.114
-0.770628
25.3195
-0.793662
25.5197
-0.816816
25.7435
-0.8392
-0.86359
25.901
44.858
1.63732
-45.3057
44.4031
1.59074
43.9409
1.54373
43.4708
1.49631
42.9922
1.44851
42.5045
1.40038
42.0068
1.35194
41.4982
1.30324
40.9778
1.25429
40.4445
1.20515
39.8968
1.15584
39.3334
1.10639
38.7524
1.05685
38.1519
1.00725
37.5293
0.957612
36.8819
0.907976
36.2059
0.85837
35.4973
0.80882
34.7506
0.759352
33.959
0.709981
33.1141
0.660719
32.2048
0.611568
31.2173
0.56252
30.137
0.513588
28.9544
0.464878
27.6768
0.416724
26.3392
0.369801
25.0056
0.325091
23.7536
0.283598
22.65
0.245986
21.7321
0.212357
21.0051
0.182314
20.451
0.155184
20.0414
0.130246
19.747
0.10687
19.542
0.0845584
19.4058
0.0629434
19.3226
0.0417606
19.2806
0.0208236
19.271
0
19.2874
-0.0208039
19.3248
-0.0416549
19.3795
-0.0626008
19.4486
-0.0836759
19.5299
-0.104904
19.6216
-0.126303
19.7224
-0.147883
19.8309
-0.169652
19.9465
-0.191612
20.0682
-0.213766
20.1954
-0.236111
20.3276
-0.258645
20.4644
-0.281363
20.6053
-0.304259
20.7501
-0.327327
20.8985
-0.350558
21.0501
-0.373944
21.2049
-0.397476
21.3626
-0.421143
21.5231
-0.444936
21.6861
-0.468843
21.8517
-0.492853
22.0196
-0.516954
22.1899
-0.541135
22.3623
-0.565381
22.5368
-0.589682
22.7134
-0.614024
22.8919
-0.638393
23.0724
-0.662776
23.2547
-0.68716
23.4389
-0.711531
23.6248
-0.735873
23.8123
-0.760176
24.0018
-0.784418
24.1923
-0.80861
24.3864
-0.832651
24.5755
-0.856804
24.7869
-0.880168
-0.905565
24.9363
43.1021
1.70588
-43.5352
42.6618
1.65723
42.2144
1.60813
41.7594
1.5586
41.2961
1.50869
40.8238
1.45842
40.3417
1.40784
39.849
1.35698
39.3447
1.30587
38.8277
1.25455
38.2966
1.20305
37.7499
1.15142
37.186
1.09967
36.6026
1.04786
35.9974
0.996013
35.3674
0.944157
34.7091
0.892324
34.0181
0.84054
33.2889
0.788826
32.5147
0.737198
31.6868
0.685663
30.794
0.634219
29.8232
0.582866
28.7623
0.531642
27.607
0.48073
26.3722
0.430584
25.0993
0.382013
23.853
0.336056
22.7034
0.293662
21.7048
0.255343
20.8826
0.221049
20.235
0.190279
19.7421
0.162328
19.3773
0.13648
19.1143
0.112129
18.9304
0.088798
18.8077
0.0661378
18.7326
0.043896
18.6946
0.0218928
18.6861
0
18.7014
-0.0218738
18.736
-0.0437943
18.7866
-0.0658089
18.8507
-0.0879516
18.9261
-0.110246
19.0114
-0.132711
19.1051
-0.155355
19.2062
-0.178188
19.314
-0.201211
19.4276
-0.224427
19.5465
-0.247833
19.6702
-0.271428
19.7982
-0.295205
19.9302
-0.319159
20.0659
-0.343283
20.2051
-0.367568
20.3475
-0.392007
20.4928
-0.416589
20.641
-0.441305
20.7918
-0.466143
20.9452
-0.491092
21.1009
-0.51614
21.259
-0.541276
21.4193
-0.566487
21.5817
-0.59176
21.7462
-0.617081
21.9126
-0.642438
22.081
-0.667816
22.2512
-0.693203
22.4232
-0.718583
22.5969
-0.743943
22.7724
-0.769267
22.9495
-0.794544
23.1284
-0.81975
23.3083
-0.844898
23.4917
-0.869886
23.6704
-0.894978
23.87
-0.919263
-0.945596
24.0116
41.411
1.77034
-41.8301
40.9849
1.71972
40.5519
1.66863
40.1114
1.61711
39.6628
1.56519
39.2054
1.5129
38.7385
1.46028
38.2611
1.40737
37.7723
1.3542
37.271
1.30081
36.7558
1.24724
36.2252
1.19352
35.6775
1.13968
35.1106
1.08577
34.522
1.03181
33.9087
0.977835
33.267
0.923876
32.5927
0.869954
31.88
0.81609
31.1221
0.762297
30.31
0.708576
29.4328
0.654928
28.4785
0.601364
27.4381
0.547968
26.3131
0.495017
25.1256
0.443101
23.9216
0.39314
22.7639
0.346193
21.7138
0.303108
20.8138
0.264234
20.0792
0.229372
19.503
0.197944
19.0648
0.169221
18.7398
0.142506
18.5047
0.117217
18.3397
0.0929033
18.2292
0.069233
18.1612
0.0459658
18.1269
0.0229293
18.1194
0
18.1335
-0.0229111
18.1656
-0.0458683
18.2124
-0.0689181
18.2718
-0.0920946
18.3418
-0.115421
18.421
-0.138916
18.5081
-0.162589
18.6024
-0.186447
18.7029
-0.210496
18.8089
-0.234734
18.92
-0.259162
19.0357
-0.283775
19.1555
-0.308569
19.2792
-0.333538
19.4064
-0.358674
19.5369
-0.383969
19.6705
-0.409415
19.807
-0.435001
19.9462
-0.460717
20.088
-0.486551
20.2322
-0.512493
20.3788
-0.53853
20.5276
-0.56465
20.6785
-0.590839
20.8315
-0.617085
20.9864
-0.643374
21.1433
-0.669693
21.302
-0.696026
21.4626
-0.722361
21.6248
-0.748683
21.7888
-0.774976
21.9544
-0.801226
22.1216
-0.82742
22.2905
-0.853534
22.4604
-0.879581
22.6336
-0.905458
22.8025
-0.931429
22.991
-0.956579
-0.983785
23.1253
39.7825
1.83084
-40.188
39.3701
1.77835
38.951
1.72539
38.5246
1.67197
38.0902
1.61814
37.6472
1.56393
37.1948
1.50938
36.7322
1.45452
36.2584
1.3994
35.7721
1.34404
35.2722
1.28849
34.757
1.23279
34.2249
1.17696
33.6737
1.12105
33.1008
1.06508
32.5034
1.00908
31.8776
0.953091
31.2189
0.897124
30.5218
0.841199
29.779
0.785325
28.9818
0.729503
28.1195
0.673737
27.1819
0.618061
26.1637
0.562628
25.0727
0.507825
23.9369
0.454377
22.8052
0.403291
21.7363
0.355598
20.7819
0.312013
19.9735
0.272711
19.3186
0.237363
18.8065
0.20533
18.417
0.175878
18.1274
0.148333
17.9171
0.122142
17.7689
0.0968798
17.6693
0.0722324
17.6079
0.047972
17.5768
0.0239342
17.5701
0
17.5833
-0.0239168
17.6129
-0.0478787
17.6562
-0.0719318
17.7112
-0.0961091
17.7762
-0.120435
17.8497
-0.144925
17.9309
-0.169591
18.0186
-0.194441
18.1123
-0.219477
18.2113
-0.244702
18.3151
-0.270112
18.4233
-0.295705
18.5354
-0.321476
18.6513
-0.347418
18.7705
-0.373525
18.8929
-0.399787
19.0183
-0.426196
19.1464
-0.452741
19.2772
-0.479412
19.4105
-0.506197
19.5461
-0.533085
19.684
-0.560063
19.824
-0.587118
19.9661
-0.614237
20.1102
-0.641407
20.2562
-0.668614
20.4041
-0.695844
20.5537
-0.723082
20.7051
-0.750313
20.8582
-0.777524
21.0129
-0.804698
21.1692
-0.83182
21.327
-0.858878
21.4865
-0.885847
21.6469
-0.912739
21.8105
-0.93945
21.9702
-0.966248
22.1481
-0.992209
-1.02023
22.2755
38.2142
1.88752
-38.6067
37.8152
1.83327
37.4095
1.77852
36.9966
1.72331
36.576
1.66767
36.1469
1.61163
35.7085
1.55525
35.2601
1.49854
34.8006
1.44156
34.3288
1.38434
33.8435
1.32692
33.3432
1.26932
32.8259
1.2116
32.2897
1.15378
31.7318
1.09589
31.1494
1.03797
30.5386
0.980033
29.8948
0.922106
29.2122
0.864203
28.4836
0.806328
27.7003
0.748485
26.8525
0.690687
25.9323
0.633011
24.9388
0.575692
23.8858
0.519247
22.8061
0.464525
21.7492
0.412579
20.7679
0.364368
19.9045
0.320446
19.1808
0.280821
18.5979
0.245052
18.1431
0.212458
17.7968
0.182314
17.5387
0.153972
17.3505
0.126911
17.2173
0.100732
17.1275
0.0751392
17.0719
0.049917
17.0437
0.0249084
17.0377
0
17.05
-0.0248918
17.0774
-0.0498279
17.1175
-0.0748529
17.1684
-0.0999995
17.2287
-0.125291
17.297
-0.150745
17.3725
-0.176372
17.4542
-0.202178
17.5416
-0.228168
17.634
-0.254341
17.731
-0.280698
17.8321
-0.307233
17.937
-0.333943
18.0455
-0.36082
18.1573
-0.387857
18.2721
-0.415046
18.3897
-0.442377
18.51
-0.469839
18.6329
-0.497423
18.7581
-0.525115
18.8857
-0.552904
19.0154
-0.580778
19.1472
-0.608723
19.281
-0.636727
19.4167
-0.664774
19.5542
-0.692851
19.6936
-0.720944
19.8346
-0.749038
19.9774
-0.777118
20.1218
-0.805168
20.2678
-0.833174
20.4153
-0.861119
20.5643
-0.88899
20.7149
-0.916763
20.8664
-0.94445
21.0209
-0.971945
21.1718
-0.999516
21.3398
-1.02624
-1.05501
21.4605
36.7042
1.94051
-37.0839
36.3179
1.88459
35.9252
1.82816
35.5254
1.77124
35.118
1.71389
34.7023
1.65613
34.2775
1.598
33.8427
1.53954
33.3969
1.4808
32.9391
1.42181
32.4678
1.3626
31.9815
1.30321
31.4785
1.24368
30.9565
1.18404
30.413
1.12432
29.8447
1.06455
29.248
1.00476
28.6181
0.944952
27.9491
0.885147
27.2338
0.825348
26.4638
0.765562
25.6307
0.705825
24.7292
0.646272
23.7634
0.587244
22.7525
0.529391
21.7328
0.473663
20.7519
0.421114
19.8562
0.372591
19.0784
0.32847
18.4322
0.288605
17.9143
0.252466
17.5105
0.219346
17.2026
0.188539
16.9724
0.159431
16.8038
0.131531
16.6841
0.104465
16.603
0.0779567
16.5527
0.0518023
16.5271
0.0258531
16.5218
0
16.5332
-0.0258372
16.5585
-0.0517175
16.5956
-0.0776845
16.6428
-0.10377
16.6987
-0.129997
16.7622
-0.156383
16.8324
-0.182937
16.9085
-0.209667
16.9899
-0.236577
17.0762
-0.263666
17.1667
-0.290934
17.2613
-0.318376
17.3595
-0.345988
17.4611
-0.373763
17.5658
-0.401693
17.6735
-0.42977
17.7839
-0.457983
17.8968
-0.486323
18.0122
-0.514778
18.1299
-0.543336
18.2499
-0.571985
18.3719
-0.600713
18.4959
-0.629505
18.6219
-0.658349
18.7497
-0.68723
18.8793
-0.716133
19.0106
-0.745044
19.1436
-0.773948
19.2782
-0.80283
19.4144
-0.831674
19.5521
-0.860465
19.6913
-0.889186
19.832
-0.917823
19.9742
-0.946353
20.1173
-0.974786
20.2632
-1.00302
20.4058
-1.03131
20.5644
-1.05876
-1.08823
20.6789
35.2501
1.98996
-35.6175
34.8762
1.93245
34.496
1.87442
34.1089
1.81589
33.7142
1.75691
33.3114
1.69751
32.8995
1.63773
32.4778
1.57762
32.0453
1.5172
31.6008
1.45652
31.1429
1.39562
30.6701
1.33452
30.1806
1.27327
29.6722
1.2119
29.1422
1.15043
28.5874
1.0889
28.0039
1.02732
27.387
0.965709
26.7307
0.904075
26.028
0.842424
25.271
0.780776
24.4529
0.719202
23.5722
0.657917
22.6376
0.597382
21.673
0.538376
20.7162
0.481913
19.8118
0.429004
18.9984
0.380348
18.3004
0.336141
17.7248
0.2961
17.265
0.259627
16.9067
0.226009
16.6328
0.194566
16.4273
0.164718
16.2763
0.136006
16.1686
0.108083
16.0953
0.080688
16.0497
0.0536304
16.0265
0.0267691
16.0217
0
16.0323
-0.0267539
16.0557
-0.0535496
16.09
-0.0804294
16.1337
-0.107424
16.1856
-0.134557
16.2445
-0.161844
16.3098
-0.189296
16.3807
-0.216918
16.4566
-0.244715
16.5371
-0.272688
16.6217
-0.300833
16.7101
-0.329148
16.802
-0.357628
16.8972
-0.386265
16.9953
-0.415052
17.0962
-0.44398
17.1998
-0.473039
17.3059
-0.502218
17.4143
-0.531506
17.5249
-0.560892
17.6376
-0.590361
17.7524
-0.619902
17.8691
-0.649501
17.9877
-0.679144
18.1081
-0.708816
18.2301
-0.738503
18.3539
-0.76819
18.4793
-0.797862
18.6062
-0.827503
18.7347
-0.857097
18.8646
-0.886629
18.996
-0.916082
19.1288
-0.945441
19.263
-0.974683
19.3982
-1.00382
19.536
-1.03274
19.6707
-1.06172
19.8205
-1.08983
-1.11995
19.929
33.85
2.03596
-34.2056
33.4881
1.97696
33.12
1.91742
32.745
1.85737
32.3626
1.79684
31.9721
1.73589
31.5727
1.67455
31.1636
1.61286
30.7437
1.55086
30.3119
1.48858
29.8669
1.42606
29.407
1.36334
28.9304