/*--------------------------------*- C++ -*----------------------------------*\
| =========                 |                                                 |
| \\      /  F ield         | OpenFOAM: The Open Source CFD Toolbox           |
|  \\    /   O peration     | Version:  2312                                  |
|   \\  /    A nd           | Website:  www.openfoam.com                      |
|    \\/     M anipulation  |                                                 |
\*---------------------------------------------------------------------------*/
FoamFile
{
    version     2.0;
    format      ascii;
    arch        "LSB;label=32;scalar=64";
    class       volVectorField;
    location    "1.6";
    object      flux;
}
// * * * * * * * * * * * * * * * * * * * * * * * * * * * * * * * * * * * * * //

dimensions      [0 1 -1 1 0 0 0];

internalField   nonuniform List<vector> 
100
(
(7.37692 0 0)
(7.0751 0 0)
(6.77696 0 0)
(6.48298 0 0)
(6.19358 0 0)
(5.90915 0 0)
(5.63002 0 0)
(5.35652 0 0)
(5.08891 0 0)
(4.82743 0 0)
(4.5723 0 0)
(4.3237 0 0)
(4.08178 0 0)
(3.84666 0 0)
(3.61845 0 0)
(3.39722 0 0)
(3.18302 0 0)
(2.97589 0 0)
(2.77585 0 0)
(2.58289 0 0)
(2.39698 0 0)
(2.2181 0 0)
(2.04619 0 0)
(1.88119 0 0)
(1.72303 0 0)
(1.5716 0 0)
(1.42683 0 0)
(1.28859 0 0)
(1.15677 0 0)
(1.03126 0 0)
(0.911918 0 0)
(0.798611 0 0)
(0.691198 0 0)
(0.589535 0 0)
(0.493471 0 0)
(0.402857 0 0)
(0.317536 0 0)
(0.237352 0 0)
(0.162147 0 0)
(0.0917621 0 0)
(0.0260383 0 0)
(-0.0351839 0 0)
(-0.0920636 0 0)
(-0.144759 0 0)
(-0.193427 0 0)
(-0.238224 0 0)
(-0.279303 0 0)
(-0.316816 0 0)
(-0.350912 0 0)
(-0.38174 0 0)
(-0.409442 0 0)
(-0.434161 0 0)
(-0.456035 0 0)
(-0.475199 0 0)
(-0.491785 0 0)
(-0.505921 0 0)
(-0.517732 0 0)
(-0.52734 0 0)
(-0.53486 0 0)
(-0.540408 0 0)
(-0.544093 0 0)
(-0.546021 0 0)
(-0.546295 0 0)
(-0.545012 0 0)
(-0.542267 0 0)
(-0.538152 0 0)
(-0.532752 0 0)
(-0.526151 0 0)
(-0.518429 0 0)
(-0.509661 0 0)
(-0.49992 0 0)
(-0.489274 0 0)
(-0.477789 0 0)
(-0.465525 0 0)
(-0.452543 0 0)
(-0.438896 0 0)
(-0.424638 0 0)
(-0.409817 0 0)
(-0.394479 0 0)
(-0.378669 0 0)
(-0.362425 0 0)
(-0.345788 0 0)
(-0.328792 0 0)
(-0.311469 0 0)
(-0.293853 0 0)
(-0.27597 0 0)
(-0.257847 0 0)
(-0.239511 0 0)
(-0.220983 0 0)
(-0.202284 0 0)
(-0.183436 0 0)
(-0.164457 0 0)
(-0.145362 0 0)
(-0.12617 0 0)
(-0.106895 0 0)
(-0.0875507 0 0)
(-0.0681512 0 0)
(-0.0487093 0 0)
(-0.0292375 0 0)
(-0.0097478 0 0)
)
;

boundaryField
{
    movingWall
    {
        type            calculated;
        value           uniform (7.52869 0 0);
    }
    fixedWalls
    {
        type            calculated;
        value           nonuniform List<vector> 
201
(
(7.37692 0 0)
(7.0751 0 0)
(6.77696 0 0)
(6.48298 0 0)
(6.19358 0 0)
(5.90915 0 0)
(5.63002 0 0)
(5.35652 0 0)
(5.08891 0 0)
(4.82743 0 0)
(4.5723 0 0)
(4.3237 0 0)
(4.08178 0 0)
(3.84666 0 0)
(3.61845 0 0)
(3.39722 0 0)
(3.18302 0 0)
(2.97589 0 0)
(2.77585 0 0)
(2.58289 0 0)
(2.39698 0 0)
(2.2181 0 0)
(2.04619 0 0)
(1.88119 0 0)
(1.72303 0 0)
(1.5716 0 0)
(1.42683 0 0)
(1.28859 0 0)
(1.15677 0 0)
(1.03126 0 0)
(0.911918 0 0)
(0.798611 0 0)
(0.691198 0 0)
(0.589535 0 0)
(0.493471 0 0)
(0.402857 0 0)
(0.317536 0 0)
(0.237352 0 0)
(0.162147 0 0)
(0.0917621 0 0)
(0.0260383 0 0)
(-0.0351839 0 0)
(-0.0920636 0 0)
(-0.144759 0 0)
(-0.193427 0 0)
(-0.238224 0 0)
(-0.279303 0 0)
(-0.316816 0 0)
(-0.350912 0 0)
(-0.38174 0 0)
(-0.409442 0 0)
(-0.434161 0 0)
(-0.456035 0 0)
(-0.475199 0 0)
(-0.491785 0 0)
(-0.505921 0 0)
(-0.517732 0 0)
(-0.52734 0 0)
(-0.53486 0 0)
(-0.540408 0 0)
(-0.544093 0 0)
(-0.546021 0 0)
(-0.546295 0 0)
(-0.545012 0 0)
(-0.542267 0 0)
(-0.538152 0 0)
(-0.532752 0 0)
(-0.526151 0 0)
(-0.518429 0 0)
(-0.509661 0 0)
(-0.49992 0 0)
(-0.489274 0 0)
(-0.477789 0 0)
(-0.465525 0 0)
(-0.452543 0 0)
(-0.438896 0 0)
(-0.424638 0 0)
(-0.409817 0 0)
(-0.394479 0 0)
(-0.378669 0 0)
(-0.362425 0 0)
(-0.345788 0 0)
(-0.328792 0 0)
(-0.311469 0 0)
(-0.293853 0 0)
(-0.27597 0 0)
(-0.257847 0 0)
(-0.239511 0 0)
(-0.220983 0 0)
(-0.202284 0 0)
(-0.183436 0 0)
(-0.164457 0 0)
(-0.145362 0 0)
(-0.12617 0 0)
(-0.106895 0 0)
(-0.0875507 0 0)
(-0.0681512 0 0)
(-0.0487093 0 0)
(-0.0292375 0 0)
(-0.0097478 0 0)
(0 0 0)
(7.37692 0 0)
(7.0751 0 0)
(6.77696 0 0)
(6.48298 0 0)
(6.19358 0 0)
(5.90915 0 0)
(5.63002 0 0)
(5.35652 0 0)
(5.08891 0 0)
(4.82743 0 0)
(4.5723 0 0)
(4.3237 0 0)
(4.08178 0 0)
(3.84666 0 0)
(3.61845 0 0)
(3.39722 0 0)
(3.18302 0 0)
(2.97589 0 0)
(2.77585 0 0)
(2.58289 0 0)
(2.39698 0 0)
(2.2181 0 0)
(2.04619 0 0)
(1.88119 0 0)
(1.72303 0 0)
(1.5716 0 0)
(1.42683 0 0)
(1.28859 0 0)
(1.15677 0 0)
(1.03126 0 0)
(0.911918 0 0)
(0.798611 0 0)
(0.691198 0 0)
(0.589535 0 0)
(0.493471 0 0)
(0.402857 0 0)
(0.317536 0 0)
(0.237352 0 0)
(0.162147 0 0)
(0.0917621 0 0)
(0.0260383 0 0)
(-0.0351839 0 0)
(-0.0920636 0 0)
(-0.144759 0 0)
(-0.193427 0 0)
(-0.238224 0 0)
(-0.279303 0 0)
(-0.316816 0 0)
(-0.350912 0 0)
(-0.38174 0 0)
(-0.409442 0 0)
(-0.434161 0 0)
(-0.456035 0 0)
(-0.475199 0 0)
(-0.491785 0 0)
(-0.505921 0 0)
(-0.517732 0 0)
(-0.52734 0 0)
(-0.53486 0 0)
(-0.540408 0 0)
(-0.544093 0 0)
(-0.546021 0 0)
(-0.546295 0 0)
(-0.545012 0 0)
(-0.542267 0 0)
(-0.538152 0 0)
(-0.532752 0 0)
(-0.526151 0 0)
(-0.518429 0 0)
(-0.509661 0 0)
(-0.49992 0 0)
(-0.489274 0 0)
(-0.477789 0 0)
(-0.465525 0 0)
(-0.452543 0 0)
(-0.438896 0 0)
(-0.424638 0 0)
(-0.409817 0 0)
(-0.394479 0 0)
(-0.378669 0 0)
(-0.362425 0 0)
(-0.345788 0 0)
(-0.328792 0 0)
(-0.311469 0 0)
(-0.293853 0 0)
(-0.27597 0 0)
(-0.257847 0 0)
(-0.239511 0 0)
(-0.220983 0 0)
(-0.202284 0 0)
(-0.183436 0 0)
(-0.164457 0 0)
(-0.145362 0 0)
(-0.12617 0 0)
(-0.106895 0 0)
(-0.0875507 0 0)
(-0.0681512 0 0)
(-0.0487093 0 0)
(-0.0292375 0 0)
(-0.0097478 0 0)
)
;
    }
    frontAndBack
    {
        type            empty;
    }
}


// ************************************************************************* //
