/*--------------------------------*- C++ -*----------------------------------*\
| =========                 |                                                 |
| \\      /  F ield         | OpenFOAM: The Open Source CFD Toolbox           |
|  \\    /   O peration     | Version:  2312                                  |
|   \\  /    A nd           | Website:  www.openfoam.com                      |
|    \\/     M anipulation  |                                                 |
\*---------------------------------------------------------------------------*/
FoamFile
{
    version     2.0;
    format      ascii;
    arch        "LSB;label=32;scalar=64";
    class       volScalarField;
    location    "1.6";
    object      gradTx;
}
// * * * * * * * * * * * * * * * * * * * * * * * * * * * * * * * * * * * * * //

dimensions      [0 -1 0 1 0 0 0];

internalField   nonuniform List<scalar> 
100
(
7.37692
7.0751
6.77696
6.48298
6.19358
5.90915
5.63002
5.35652
5.08891
4.82743
4.5723
4.3237
4.08178
3.84666
3.61845
3.39722
3.18302
2.97589
2.77585
2.58289
2.39698
2.2181
2.04619
1.88119
1.72303
1.5716
1.42683
1.28859
1.15677
1.03126
0.911918
0.798611
0.691198
0.589535
0.493471
0.402857
0.317536
0.237352
0.162147
0.0917621
0.0260383
-0.0351839
-0.0920636
-0.144759
-0.193427
-0.238224
-0.279303
-0.316816
-0.350912
-0.38174
-0.409442
-0.434161
-0.456035
-0.475199
-0.491785
-0.505921
-0.517732
-0.52734
-0.53486
-0.540408
-0.544093
-0.546021
-0.546295
-0.545012
-0.542267
-0.538152
-0.532752
-0.526151
-0.518429
-0.509661
-0.49992
-0.489274
-0.477789
-0.465525
-0.452543
-0.438896
-0.424638
-0.409817
-0.394479
-0.378669
-0.362425
-0.345788
-0.328792
-0.311469
-0.293853
-0.27597
-0.257847
-0.239511
-0.220983
-0.202284
-0.183436
-0.164457
-0.145362
-0.12617
-0.106895
-0.0875507
-0.0681512
-0.0487093
-0.0292375
-0.0097478
)
;

boundaryField
{
    movingWall
    {
        type            calculated;
        value           uniform 7.52869;
    }
    fixedWalls
    {
        type            calculated;
        value           nonuniform List<scalar> 
201
(
7.37692
7.0751
6.77696
6.48298
6.19358
5.90915
5.63002
5.35652
5.08891
4.82743
4.5723
4.3237
4.08178
3.84666
3.61845
3.39722
3.18302
2.97589
2.77585
2.58289
2.39698
2.2181
2.04619
1.88119
1.72303
1.5716
1.42683
1.28859
1.15677
1.03126
0.911918
0.798611
0.691198
0.589535
0.493471
0.402857
0.317536
0.237352
0.162147
0.0917621
0.0260383
-0.0351839
-0.0920636
-0.144759
-0.193427
-0.238224
-0.279303
-0.316816
-0.350912
-0.38174
-0.409442
-0.434161
-0.456035
-0.475199
-0.491785
-0.505921
-0.517732
-0.52734
-0.53486
-0.540408
-0.544093
-0.546021
-0.546295
-0.545012
-0.542267
-0.538152
-0.532752
-0.526151
-0.518429
-0.509661
-0.49992
-0.489274
-0.477789
-0.465525
-0.452543
-0.438896
-0.424638
-0.409817
-0.394479
-0.378669
-0.362425
-0.345788
-0.328792
-0.311469
-0.293853
-0.27597
-0.257847
-0.239511
-0.220983
-0.202284
-0.183436
-0.164457
-0.145362
-0.12617
-0.106895
-0.0875507
-0.0681512
-0.0487093
-0.0292375
-0.0097478
0
7.37692
7.0751
6.77696
6.48298
6.19358
5.90915
5.63002
5.35652
5.08891
4.82743
4.5723
4.3237
4.08178
3.84666
3.61845
3.39722
3.18302
2.97589
2.77585
2.58289
2.39698
2.2181
2.04619
1.88119
1.72303
1.5716
1.42683
1.28859
1.15677
1.03126
0.911918
0.798611
0.691198
0.589535
0.493471
0.402857
0.317536
0.237352
0.162147
0.0917621
0.0260383
-0.0351839
-0.0920636
-0.144759
-0.193427
-0.238224
-0.279303
-0.316816
-0.350912
-0.38174
-0.409442
-0.434161
-0.456035
-0.475199
-0.491785
-0.505921
-0.517732
-0.52734
-0.53486
-0.540408
-0.544093
-0.546021
-0.546295
-0.545012
-0.542267
-0.538152
-0.532752
-0.526151
-0.518429
-0.509661
-0.49992
-0.489274
-0.477789
-0.465525
-0.452543
-0.438896
-0.424638
-0.409817
-0.394479
-0.378669
-0.362425
-0.345788
-0.328792
-0.311469
-0.293853
-0.27597
-0.257847
-0.239511
-0.220983
-0.202284
-0.183436
-0.164457
-0.145362
-0.12617
-0.106895
-0.0875507
-0.0681512
-0.0487093
-0.0292375
-0.0097478
)
;
    }
    frontAndBack
    {
        type            empty;
    }
}


// ************************************************************************* //
