/*--------------------------------*- C++ -*----------------------------------*\
| =========                 |                                                 |
| \\      /  F ield         | OpenFOAM: The Open Source CFD Toolbox           |
|  \\    /   O peration     | Version:  2312                                  |
|   \\  /    A nd           | Website:  www.openfoam.com                      |
|    \\/     M anipulation  |                                                 |
\*---------------------------------------------------------------------------*/
FoamFile
{
    version     2.0;
    format      ascii;
    arch        "LSB;label=32;scalar=64";
    class       surfaceScalarField;
    location    "0.795";
    object      phi;
}
// * * * * * * * * * * * * * * * * * * * * * * * * * * * * * * * * * * * * * //

dimensions      [0 3 -1 0 0 0 0];

oriented        oriented;

internalField   nonuniform List<scalar> 
62015
(
37.6241
0.0733138
-38.6682
36.5913
0.0700017
35.5804
0.0667688
34.6038
0.0636381
33.6769
0.0606352
32.8168
0.0577864
32.041
0.055116
31.3654
0.0526422
30.8014
0.0503743
30.3552
0.0483105
30.027
0.0464389
29.8116
0.044739
29.7004
0.0431851
29.6822
0.0417492
29.7452
0.0404037
29.8778
0.0391227
30.0692
0.0378835
30.31
0.0366662
30.5918
0.035454
30.9076
0.0342335
31.2514
0.0329932
31.6185
0.031724
32.0047
0.0304185
32.4067
0.029071
32.8218
0.0276766
33.2476
0.026232
33.6823
0.0247339
34.1244
0.0231807
34.5726
0.0215706
35.0258
0.0199024
35.4832
0.0181753
35.944
0.0163892
36.4077
0.014544
36.8738
0.0126394
37.3419
0.0106763
37.8117
0.00865453
38.2829
0.0065753
38.7553
0.00443928
39.2288
0.00224703
39.7032
0
40.1783
-0.00230091
40.6542
-0.00465474
41.1308
-0.00705977
41.608
-0.00951501
42.0858
-0.0120192
42.5642
-0.0145703
43.0432
-0.0171676
43.5229
-0.0198088
44.0031
-0.0224929
44.4841
-0.0252181
44.9657
-0.0279826
45.448
-0.0307846
45.9311
-0.0336226
46.4149
-0.0364949
46.8996
-0.0393993
47.3852
-0.0423344
47.8717
-0.0452979
48.3591
-0.0482883
48.8475
-0.0513035
49.337
-0.0543415
49.8275
-0.0574005
50.3192
-0.0604786
50.812
-0.0635735
51.306
-0.0666833
51.8013
-0.0698063
52.2977
-0.0729401
52.7955
-0.0760828
53.2946
-0.0792322
53.7951
-0.0823865
54.2969
-0.0855434
54.8001
-0.088701
55.3048
-0.0918568
55.8106
-0.0950097
56.3187
-0.0981555
56.826
-0.101297
57.3413
-0.104418
57.8383
-0.107562
58.3975
-0.110582
-0.113928
58.7724
35.5193
0.140478
-36.494
34.5634
0.134209
33.6392
0.12813
32.7601
0.12229
31.9413
0.116737
31.1986
0.111516
30.5461
0.106662
29.9948
0.102195
29.5511
0.0981135
29.2159
0.0943995
28.9857
0.091018
28.8534
0.0879231
28.8094
0.0850641
28.8432
0.0823895
28.9444
0.0798504
29.1031
0.077403
29.3102
0.0750085
29.558
0.0726341
29.8397
0.0702525
30.1496
0.0678407
30.483
0.0653802
30.8357
0.062856
31.2047
0.0602557
31.587
0.0575696
31.9805
0.0547901
32.3833
0.0519111
32.7938
0.0489278
33.2107
0.0458368
33.6329
0.0426352
34.0597
0.0393217
34.4902
0.0358948
34.9239
0.0323542
35.3602
0.0286995
35.7987
0.0249317
36.2392
0.0210508
36.6813
0.0170582
37.1247
0.0129552
37.5694
0.0087432
38.0152
0.00442419
38.462
0
38.9096
-0.00452724
39.358
-0.00915522
39.8071
-0.0138817
40.257
-0.0187038
40.7076
-0.0236191
41.1589
-0.0286247
41.6109
-0.0337175
42.0636
-0.0388951
42.517
-0.0441539
42.9712
-0.049491
43.4262
-0.0549029
43.8819
-0.0603868
44.3385
-0.0659389
44.796
-0.071556
45.2544
-0.0772343
45.7137
-0.0829707
46.174
-0.0887614
46.6353
-0.0946026
47.0977
-0.100491
47.5612
-0.106422
48.0258
-0.112393
48.4915
-0.1184
48.9585
-0.124438
49.4267
-0.130504
49.8962
-0.136595
50.367
-0.142705
50.8391
-0.148832
51.3125
-0.154971
51.7873
-0.161118
52.2635
-0.167269
52.7412
-0.17342
53.2203
-0.179568
53.7006
-0.185708
54.1831
-0.191834
54.6651
-0.197951
55.1545
-0.204026
55.6271
-0.210144
56.1576
-0.216027
-0.222523
56.5179
33.5098
0.201845
-34.4091
32.6389
0.193022
31.8102
0.184537
31.037
0.176456
30.3334
0.168843
29.7119
0.161745
29.1824
0.155191
28.7509
0.149182
28.4188
0.143696
28.1836
0.138686
28.0392
0.134092
27.9776
0.129846
27.9895
0.125874
28.0657
0.122111
28.197
0.118491
28.3753
0.114961
28.5932
0.111472
28.8445
0.107983
29.1236
0.104461
29.426
0.100878
29.7479
0.0972109
30.0861
0.0934409
30.4379
0.089553
30.801
0.0855351
31.1736
0.0813778
31.5542
0.0770731
31.9415
0.0726157
32.3345
0.0680009
32.7321
0.0632258
33.1338
0.0582881
33.5388
0.0531867
33.9467
0.0479211
34.3571
0.0424912
34.7696
0.0368981
35.1839
0.0311425
35.5997
0.0252265
36.017
0.0191518
36.4354
0.0129206
36.855
0.00653572
37.2756
0
37.6971
-0.0066835
38.1195
-0.0135115
38.5427
-0.0204805
38.9667
-0.0275865
39.3915
-0.0348259
39.8171
-0.0421948
40.2434
-0.0496885
40.6706
-0.0573032
41.0986
-0.0650341
41.5274
-0.072877
41.957
-0.0808269
42.3876
-0.0888793
42.8191
-0.0970289
43.2515
-0.105271
43.6848
-0.113601
44.1192
-0.122013
44.5547
-0.130502
44.9912
-0.139063
45.4288
-0.147691
45.8676
-0.156379
46.3075
-0.165124
46.7487
-0.173918
47.1911
-0.182757
47.6347
-0.191636
48.0797
-0.200547
48.526
-0.209486
48.9736
-0.218447
49.4227
-0.227424
49.8731
-0.236411
50.3249
-0.245403
50.7782
-0.254394
51.2329
-0.263378
51.689
-0.272349
52.1471
-0.281299
52.6048
-0.290233
53.0697
-0.299107
53.5189
-0.308039
54.0221
-0.316635
-0.3261
54.3671
31.6311
0.25801
-32.4484
30.8522
0.247081
30.1253
0.236662
29.4624
0.226829
28.8749
0.217641
28.3714
0.209133
27.9572
0.201309
27.6341
0.194143
27.3998
0.18758
27.2495
0.181549
27.1762
0.175965
27.1719
0.170743
27.2281
0.165796
27.3368
0.161047
27.4904
0.156425
27.6823
0.151868
27.9065
0.147325
28.158
0.14275
28.4324
0.138107
28.7261
0.133366
29.0359
0.128501
29.3593
0.123492
29.6942
0.118322
30.0387
0.112979
30.3914
0.107451
30.7509
0.10173
31.1162
0.0958098
31.4864
0.089686
31.8608
0.0833552
32.2388
0.076815
32.6198
0.0700643
33.0035
0.0631029
33.3894
0.0559312
33.7773
0.0485505
34.167
0.0409621
34.5581
0.0331685
34.9507
0.0251722
35.3444
0.0169764
35.7393
0.00858443
36.1352
0
36.5321
-0.00877281
36.93
-0.0177297
37.3287
-0.0268661
37.7283
-0.036177
38.1287
-0.0456581
38.53
-0.0553032
38.9322
-0.0651076
39.3352
-0.0750656
39.7392
-0.0851714
40.144
-0.0954192
40.5497
-0.105803
40.9564
-0.116316
41.3641
-0.126953
41.7727
-0.137708
42.1824
-0.148572
42.5932
-0.159541
43.005
-0.170607
43.418
-0.181764
43.8322
-0.193004
44.2475
-0.204321
44.664
-0.215708
45.0818
-0.227157
45.5009
-0.238662
45.9212
-0.250215
46.3429
-0.261809
46.766
-0.273436
47.1904
-0.285089
47.6162
-0.296762
48.0434
-0.308445
48.472
-0.320133
48.9021
-0.331817
49.3337
-0.343489
49.7665
-0.355144
50.2014
-0.366769
50.6361
-0.378372
51.0775
-0.389895
51.5044
-0.401489
51.982
-0.412654
-0.424921
52.3112
29.9
0.309687
-30.6289
29.2183
0.297124
28.5963
0.285253
28.0436
0.274141
27.5679
0.263825
27.174
0.254312
26.8631
0.245572
26.6338
0.237545
26.4818
0.230151
26.4011
0.223294
26.3845
0.216874
26.4248
0.210794
26.5145
0.204962
26.647
0.199294
26.8161
0.193718
27.0163
0.18817
27.2429
0.182597
27.4918
0.176953
27.7596
0.171201
28.0434
0.165309
28.3406
0.159252
28.6492
0.153009
28.9675
0.146563
29.294
0.1399
29.6274
0.133009
29.9668
0.125882
30.3112
0.118512
30.66
0.110895
31.0124
0.103028
31.3681
0.0949073
31.7265
0.0865334
32.0874
0.0779062
32.4503
0.0690262
32.8151
0.0598953
33.1816
0.0505154
33.5495
0.0408896
33.9188
0.0310213
34.2893
0.020914
34.661
0.010572
35.0337
0
35.4074
-0.0107971
35.7821
-0.0218143
36.1578
-0.0330458
36.5344
-0.0444857
36.9118
-0.0561283
37.2902
-0.0679671
37.6696
-0.0799956
38.0498
-0.0922068
38.431
-0.104594
38.8131
-0.117151
39.1963
-0.129869
39.5804
-0.142741
39.9656
-0.15576
40.3518
-0.168918
40.7391
-0.182207
41.1274
-0.195619
41.517
-0.209146
41.9077
-0.222781
42.2996
-0.236513
42.6927
-0.250336
43.087
-0.26424
43.4827
-0.278218
43.8796
-0.292259
44.2778
-0.306357
44.6774
-0.320501
45.0784
-0.334683
45.4807
-0.348894
45.8844
-0.363126
46.2896
-0.377369
46.6962
-0.391613
47.1042
-0.405851
47.5137
-0.420072
47.9246
-0.43427
48.3374
-0.448429
48.7501
-0.462559
49.1693
-0.476591
49.5748
-0.490703
50.0282
-0.504299
-0.519211
50.3419
28.3227
0.357641
-28.9588
27.7408
0.34392
27.223
0.331055
26.7759
0.319088
26.4036
0.308022
26.1074
0.297826
25.8857
0.288435
25.735
0.279762
25.65
0.271704
25.6246
0.26415
25.6521
0.256992
25.7261
0.250128
25.8404
0.243464
25.9895
0.236917
26.1683
0.230415
26.3725
0.223895
26.5983
0.217306
26.8424
0.210602
27.1021
0.203746
27.3751
0.196709
27.6594
0.189464
27.9533
0.181991
28.2553
0.174274
28.5644
0.166298
28.8794
0.158053
29.1996
0.149531
29.5242
0.140725
29.8526
0.131632
30.1843
0.122247
30.5189
0.11257
30.8561
0.1026
31.1954
0.0923364
31.5367
0.0817821
31.8798
0.0709384
32.2245
0.0598083
32.5706
0.0483951
32.918
0.036703
33.2666
0.0247364
33.6164
0.0125003
33.9673
0
34.3192
-0.0127586
34.6721
-0.0257696
35.026
-0.0390261
35.3809
-0.0525219
35.7367
-0.0662494
36.0935
-0.0802018
36.4513
-0.094371
36.8101
-0.108749
37.1698
-0.123329
37.5305
-0.138102
37.8923
-0.153059
38.2551
-0.168192
38.619
-0.183493
38.984
-0.198952
39.3501
-0.214559
39.7173
-0.230307
40.0857
-0.246184
40.4553
-0.262183
40.8261
-0.278293
41.1982
-0.294505
41.5715
-0.310808
41.9461
-0.327193
42.3221
-0.343649
42.6993
-0.360167
43.078
-0.376737
43.458
-0.393347
43.8393
-0.409988
44.2221
-0.426649
44.6063
-0.443321
44.992
-0.459991
45.3791
-0.476651
45.7677
-0.493288
46.1576
-0.509895
46.5494
-0.526453
46.9412
-0.542975
47.3391
-0.559381
47.7243
-0.575875
48.1547
-0.591773
-0.609177
48.4534
26.8989
0.402645
-27.4403
26.4157
0.388208
25.9975
0.374751
25.6477
0.362277
25.3675
0.350753
25.1555
0.340109
25.0085
0.330252
24.9219
0.321072
24.8902
0.312454
24.9077
0.30428
24.9686
0.29644
25.0674
0.288833
25.1989
0.281366
25.3588
0.27396
25.5428
0.266545
25.7476
0.259063
25.9701
0.251462
26.2078
0.243702
26.4584
0.235746
26.7201
0.227565
26.9912
0.219135
27.2705
0.210437
27.5567
0.201453
27.849
0.192172
28.1464
0.182583
28.4483
0.172678
28.7541
0.162451
29.0632
0.151899
29.3754
0.141018
29.6901
0.129808
30.0072
0.118268
30.3263
0.1064
30.6473
0.0942051
30.9699
0.0816859
31.294
0.0688464
31.6196
0.0556899
31.9464
0.0422217
32.2745
0.0284467
32.6037
0.0143709
32.934
0
33.2654
-0.0146591
33.5978
-0.0295994
33.9312
-0.0448138
34.2656
-0.0602943
34.6011
-0.0760334
34.9375
-0.0920223
35.275
-0.108253
35.6134
-0.124716
35.9529
-0.141402
36.2935
-0.158303
36.6351
-0.175409
36.9777
-0.192709
37.3215
-0.210195
37.6664
-0.227856
38.0125
-0.245681
38.3597
-0.263661
38.7081
-0.281784
39.0578
-0.30004
39.4086
-0.318418
39.7608
-0.336907
40.1142
-0.355496
40.4689
-0.374174
40.8249
-0.392929
41.1823
-0.41175
41.541
-0.430625
41.9011
-0.449542
42.2627
-0.468492
42.6256
-0.48746
42.9899
-0.506436
43.3557
-0.525407
43.7228
-0.544363
44.0915
-0.56329
44.4615
-0.582179
44.8334
-0.60101
45.2054
-0.619795
45.5831
-0.638447
45.949
-0.657193
46.3575
-0.675269
-0.695023
46.6419
25.6233
0.445434
-26.0715
25.2339
0.430656
24.9072
0.416927
24.644
0.404209
24.4431
0.392429
24.3016
0.38149
24.2154
0.371279
24.1799
0.361673
24.1897
0.352552
24.2399
0.343797
24.3254
0.335302
24.4417
0.326968
24.5847
0.318709
24.7507
0.31045
24.9365
0.302127
25.1394
0.293684
25.3568
0.285074
25.5868
0.276257
25.8276
0.267201
26.0776
0.257879
26.3356
0.248267
26.6006
0.238347
26.8715
0.228104
27.1475
0.217525
27.4281
0.206602
27.7126
0.195327
28.0005
0.183695
28.2915
0.171703
28.5852
0.159347
28.8812
0.146629
29.1793
0.133547
29.4794
0.120104
29.7812
0.106302
30.0846
0.0921448
30.3894
0.0776358
30.6956
0.0627796
31.0031
0.0475818
31.3118
0.0320481
31.6216
0.0161853
31.9326
0
32.2446
-0.0165004
32.5577
-0.0333081
32.8719
-0.050415
33.187
-0.0678126
33.5032
-0.0854919
33.8205
-0.103444
34.1388
-0.121659
34.4581
-0.140127
34.7785
-0.158838
35.0999
-0.177783
35.4225
-0.19695
35.7461
-0.216328
36.0709
-0.235908
36.3969
-0.255677
36.724
-0.275624
37.0523
-0.295737
37.3818
-0.316005
37.7125
-0.336417
38.0445
-0.356959
38.3778
-0.37762
38.7123
-0.398387
39.0482
-0.419248
39.3854
-0.440191
39.7239
-0.461203
40.0638
-0.48227
40.405
-0.503381
40.7477
-0.524522
41.0917
-0.545681
41.4372
-0.566844
41.7841
-0.587998
42.1324
-0.60913
42.4822
-0.630227
42.8332
-0.651277
43.1862
-0.672259
43.5393
-0.693187
43.8979
-0.713964
44.2453
-0.734838
44.6331
-0.754974
-0.776941
44.9038
24.4862
0.486659
-24.8463
24.1827
0.471831
23.9372
0.458059
23.7484
0.445267
23.6138
0.433356
23.5298
0.422208
23.4922
0.411698
23.4965
0.401702
23.538
0.392098
23.6123
0.382774
23.7154
0.373628
23.8436
0.36457
23.9935
0.355519
24.1622
0.346406
24.3471
0.337171
24.546
0.327764
24.757
0.318142
24.9784
0.308269
25.2089
0.298113
25.4472
0.28765
25.6923
0.276859
25.9432
0.265722
26.1993
0.254226
26.4599
0.242359
26.7244
0.230114
26.9924
0.217483
27.2634
0.204462
27.5372
0.191048
27.8134
0.17724
28.0917
0.163038
28.3721
0.148442
28.6542
0.133456
28.938
0.118081
29.2232
0.102322
29.5099
0.0861826
29.7979
0.0696692
30.0872
0.0527874
30.3777
0.0355439
30.6693
0.0179455
30.962
0
31.2558
-0.0182845
31.5508
-0.0368997
31.8467
-0.0558362
32.1437
-0.0750852
32.4418
-0.0946366
32.741
-0.114481
33.0412
-0.134607
33.3424
-0.155004
33.6448
-0.175662
33.9483
-0.19657
34.2528
-0.217715
34.5585
-0.239087
34.8654
-0.260672
35.1734
-0.282459
35.4826
-0.304436
35.793
-0.32659
36.1046
-0.348908
36.4175
-0.371377
36.7316
-0.393984
37.047
-0.416716
37.3637
-0.439559
37.6817
-0.462501
38.001
-0.485526
38.3217
-0.508622
38.6437
-0.531774
38.9671
-0.554969
39.2918
-0.578193
39.618
-0.601431
39.9455
-0.624669
40.2745
-0.647893
40.6049
-0.671088
40.9367
-0.694241
41.2698
-0.717338
41.6048
-0.740357
41.9399
-0.763312
42.2803
-0.786099
42.6102
-0.808983
42.9782
-0.831069
-0.855119
43.2359
23.4749
0.52686
-23.7546
23.2473
0.512177
23.0714
0.498502
22.9448
0.485731
22.8643
0.473746
22.8263
0.46242
22.8266
0.451627
22.8612
0.441244
22.9262
0.431155
23.0179
0.421256
23.133
0.411452
23.2686
0.40166
23.4218
0.391808
23.5905
0.381834
23.7725
0.371682
23.9661
0.361307
24.1697
0.350669
24.3821
0.339736
24.6021
0.32848
24.8286
0.316879
25.061
0.304911
25.2984
0.292563
25.5403
0.279822
25.786
0.266677
26.0353
0.253121
26.2876
0.239149
26.5426
0.224757
26.8001
0.209942
27.0598
0.194704
27.3215
0.179043
27.5851
0.162962
27.8503
0.146462
28.1171
0.129548
28.3853
0.112223
28.6549
0.0944932
28.9258
0.0763644
29.198
0.0578432
29.4713
0.0389368
29.7457
0.0196529
30.0213
0
30.298
-0.0200133
30.5758
-0.0403778
30.8546
-0.0610838
31.1346
-0.0821208
31.4156
-0.103479
31.6976
-0.125147
31.9808
-0.147114
32.265
-0.169368
32.5504
-0.191898
32.8368
-0.214691
33.1244
-0.237735
33.4132
-0.261018
33.7031
-0.284526
33.9941
-0.308246
34.2864
-0.332166
34.5799
-0.35627
34.8746
-0.380547
35.1705
-0.404981
35.4677
-0.429559
35.7662
-0.454266
36.066
-0.479089
36.3671
-0.504011
36.6695
-0.529019
36.9732
-0.554098
37.2783
-0.579233
37.5848
-0.604409
37.8926
-0.62961
38.2017
-0.654822
38.5123
-0.680029
38.8243
-0.705216
39.1376
-0.730368
39.4524
-0.755468
39.7685
-0.780504
40.0863
-0.80545
40.4044
-0.830322
40.7275
-0.85501
41.0408
-0.879794
41.39
-0.903725
-0.929734
41.6353
22.5747
0.566451
-22.7837
22.412
0.552021
22.2942
0.538507
22.2183
0.525788
22.181
0.513739
22.1788
0.50223
22.208
0.49114
22.2653
0.480351
22.3473
0.469759
22.451
0.459266
22.5738
0.448787
22.7132
0.438248
22.8672
0.427584
23.0338
0.416737
23.2114
0.405659
23.3986
0.394309
23.5943
0.382652
23.7972
0.370658
24.0066
0.358302
24.2217
0.345564
24.4416
0.332425
24.666
0.318872
24.8942
0.304894
25.1258
0.290482
25.3605
0.275629
25.598
0.260331
25.8379
0.244585
26.08
0.22839
26.3242
0.211745
26.5702
0.194652
26.818
0.177112
27.0673
0.15913
27.3181
0.140709
27.5703
0.121855
27.8239
0.102573
28.0786
0.08287
28.3346
0.062753
28.5918
0.0422301
28.8501
0.0213094
29.1096
0
29.3701
-0.0216886
29.6318
-0.0437464
29.8945
-0.066163
30.1583
-0.0889278
30.4232
-0.112029
30.6892
-0.135456
30.9563
-0.159197
31.2245
-0.183238
31.4938
-0.207567
31.7642
-0.232172
32.0357
-0.257039
32.3085
-0.282155
32.5823
-0.307506
32.8574
-0.333078
33.1337
-0.358857
33.4111
-0.384828
33.6898
-0.410976
33.9698
-0.437288
34.251
-0.463747
34.5335
-0.490338
34.8172
-0.517047
35.1023
-0.543857
35.3887
-0.570753
35.6764
-0.597719
35.9654
-0.624739
36.2558
-0.651797
36.5475
-0.678878
36.8406
-0.705964
37.1351
-0.733039
37.4309
-0.760088
37.7281
-0.787093
38.0267
-0.814038
38.3266
-0.840909
38.6282
-0.86768
38.93
-0.894366
39.2367
-0.920851
39.5342
-0.947429
39.8656
-0.973103
-1.00096
40.0991
21.7704
0.605726
-21.9192
21.6618
0.591585
21.5912
0.578237
21.5557
0.565556
21.5521
0.553416
21.5773
0.541694
21.6282
0.530274
21.7018
0.51905
21.7956
0.507926
21.9071
0.496815
22.0341
0.48564
22.1748
0.474336
22.3274
0.462844
22.4904
0.451113
22.6626
0.439101
22.8428
0.42677
23.03
0.41409
23.2234
0.401033
23.4223
0.387578
23.6261
0.373705
23.834
0.3594
24.0458
0.344649
24.261
0.329444
24.4792
0.313777
24.7001
0.297641
24.9235
0.281034
25.1491
0.263954
25.3767
0.246399
25.6063
0.228371
25.8375
0.20987
26.0704
0.190901
26.3047
0.171467
26.5405
0.151574
26.7776
0.131225
27.0161
0.110429
27.2557
0.0891913
27.4965
0.067521
27.7385
0.0454263
27.9817
0.0229161
28.2259
0
28.4713
-0.0233119
28.7177
-0.047009
28.9652
-0.0710801
29.2139
-0.095514
29.4636
-0.120299
29.7144
-0.145421
29.9663
-0.17087
30.2193
-0.196631
30.4735
-0.222692
30.7288
-0.249038
30.9852
-0.275656
31.2428
-0.302531
31.5015
-0.329649
31.7615
-0.356994
32.0226
-0.384553
32.285
-0.412309
32.5485
-0.440247
32.8134
-0.468352
33.0794
-0.496607
33.3468
-0.524996
33.6154
-0.553503
33.8853
-0.582111
34.1565
-0.610805
34.429
-0.639566
34.7028
-0.66838
34.978
-0.697227
35.2544
-0.726092
35.5323
-0.754957
35.8114
-0.783806
36.092
-0.812619
36.3738
-0.841382
36.6571
-0.870075
36.9416
-0.898684
37.2277
-0.927181
37.5142
-0.955581
37.8053
-0.983765
38.0878
-1.01204
38.4022
-1.03936
-1.06895
38.6246
21.0474
0.644872
-21.1463
20.9827
0.631
20.9497
0.617783
20.9457
0.605096
20.9679
0.592818
21.0136
0.580837
21.0801
0.569046
21.1652
0.557349
21.2667
0.54566
21.3827
0.533902
21.5113
0.522009
21.6511
0.50992
21.8008
0.497585
21.9592
0.484959
22.1252
0.472004
22.2979
0.458687
22.4765
0.44498
22.6604
0.430859
22.849
0.416306
23.0417
0.401303
23.2381
0.385837
23.4378
0.369898
23.6406
0.353476
23.846
0.336566
24.0538
0.319163
24.2639
0.301264
24.476
0.282868
24.69
0.263976
24.9057
0.244587
25.1231
0.224706
25.3419
0.204336
25.5622
0.183481
25.7838
0.162146
26.0068
0.140339
26.2309
0.118065
26.4563
0.0953331
26.6829
0.0721513
26.9106
0.0485287
27.1394
0.0244748
27.3694
0
27.6004
-0.024885
27.8325
-0.0501691
28.0658
-0.0758405
28.3001
-0.101887
28.5355
-0.128296
28.772
-0.155055
29.0097
-0.18215
29.2484
-0.209567
29.4883
-0.237293
29.7293
-0.265313
29.9714
-0.293612
30.2147
-0.322175
30.4592
-0.350987
30.7048
-0.380032
30.9516
-0.409295
31.1997
-0.438759
31.449
-0.468408
31.6995
-0.498226
31.9512
-0.528195
32.2042
-0.558299
32.4585
-0.588521
32.714
-0.618843
32.9708
-0.649249
33.229
-0.679719
33.4884
-0.710238
33.7491
-0.740786
34.0111
-0.771347
34.2745
-0.801901
34.5392
-0.832431
34.8052
-0.862919
35.0725
-0.893347
35.3412
-0.923695
35.6111
-0.953949
35.8826
-0.984079
36.1545
-1.0141
36.4307
-1.04389
36.6989
-1.07376
36.9972
-1.10265
-1.13386
37.2089
20.3924
0.683995
-20.4509
20.3625
0.670335
20.3588
0.657186
20.3789
0.644431
20.4203
0.631958
20.4808
0.619664
20.5584
0.607454
20.651
0.595243
20.757
0.582955
20.8749
0.570522
21.0031
0.557886
21.1406
0.544994
21.2863
0.531801
21.4392
0.518269
21.5985
0.504362
21.7634
0.490054
21.9334
0.475318
22.1078
0.460135
22.2863
0.444486
22.4684
0.428358
22.6537
0.411739
22.842
0.39462
23.0328
0.376994
23.2261
0.358854
23.4216
0.340199
23.6191
0.321026
23.8185
0.301335
24.0196
0.281126
24.2223
0.260403
24.4265
0.239167
24.6322
0.217423
24.8392
0.195178
25.0475
0.172435
25.2571
0.149203
25.4679
0.125488
25.6799
0.1013
25.893
0.0766474
26.1073
0.0515396
26.3226
0.0259868
26.5391
0
26.7567
-0.0264096
26.9754
-0.0532301
27.1951
-0.0804493
27.416
-0.108054
27.6379
-0.136032
27.8609
-0.164368
28.0851
-0.19305
28.3103
-0.222062
28.5367
-0.25139
28.7642
-0.281019
28.9929
-0.310932
29.2227
-0.341116
29.4537
-0.371553
29.6858
-0.402227
29.9192
-0.433122
30.1537
-0.46422
30.3894
-0.495506
30.6264
-0.52696
30.8646
-0.558567
31.104
-0.590308
31.3447
-0.622165
31.5867
-0.65412
31.8299
-0.686156
32.0743
-0.718253
32.3201
-0.750394
32.5672
-0.782559
32.8155
-0.81473
33.0651
-0.846888
33.3161
-0.879014
33.5683
-0.91109
33.8218
-0.943095
34.0767
-0.975011
34.3327
-1.00682
34.5904
-1.0385
34.8484
-1.07005
35.1105
-1.10136
35.3652
-1.13274
35.6482
-1.1631
-1.19584
35.8498
19.7935
0.723136
-19.82
19.7907
0.709609
19.8094
0.696453
19.8474
0.683559
19.9028
0.670826
19.9738
0.658163
20.0586
0.645486
20.1557
0.632721
20.2638
0.6198
20.3816
0.606665
20.508
0.593263
20.642
0.57955
20.7828
0.565486
20.9297
0.551037
21.0819
0.536173
21.239
0.520869
21.4004
0.505103
21.5656
0.488858
21.7343
0.472118
21.9062
0.454871
22.0808
0.437108
22.2581
0.418819
22.4377
0.4
22.6195
0.380646
22.8033
0.360755
22.9889
0.340327
23.1762
0.31936
23.3652
0.297858
23.5556
0.275823
23.7475
0.253259
23.9408
0.230171
24.1353
0.206564
24.3311
0.182446
24.5282
0.157823
24.7264
0.132704
24.9257
0.107098
25.1262
0.0810136
25.3279
0.0544618
25.5306
0.0274537
25.7344
0
25.9393
-0.0278871
26.1452
-0.0561953
26.3523
-0.0849116
26.5604
-0.114023
26.7697
-0.143515
26.98
-0.173374
27.1914
-0.203584
27.404
-0.234132
27.6177
-0.265002
27.8324
-0.296178
28.0484
-0.327643
28.2654
-0.359382
28.4837
-0.391378
28.7031
-0.423613
28.9236
-0.456071
29.1454
-0.488734
29.3683
-0.521584
29.5925
-0.554603
29.8179
-0.587773
30.0445
-0.621076
30.2723
-0.654493
30.5014
-0.688005
30.7317
-0.721594
30.9633
-0.755239
31.1961
-0.788922
31.4302
-0.822625
31.6656
-0.856325
31.9022
-0.890006
32.1401
-0.923647
32.3793
-0.957227
32.6197
-0.990729
32.8614
-1.02413
33.1044
-1.05741
33.3488
-1.09055
33.5937
-1.12356
33.8424
-1.1563
34.0843
-1.18911
34.3527
-1.22085
-1.25503
34.5446
19.2409
0.762294
-19.2425
19.2587
0.748812
19.294
0.735566
19.345
0.722459
19.4103
0.709403
19.4881
0.696316
19.5773
0.683126
19.6766
0.669767
19.7848
0.656181
19.901
0.642316
20.0244
0.628129
20.1542
0.613579
20.2896
0.598631
20.4301
0.583257
20.5752
0.56743
20.7244
0.551128
20.8773
0.534333
21.0335
0.517029
21.1928
0.499203
21.3548
0.480844
21.5193
0.461945
21.6861
0.442498
21.8551
0.4225
22.026
0.401947
22.1987
0.380837
22.3731
0.359172
22.5491
0.336952
22.7266
0.314179
22.9055
0.290857
23.0858
0.266991
23.2674
0.242586
23.4502
0.217648
23.6342
0.192186
23.8194
0.166205
24.0058
0.139717
24.1933
0.112729
24.3819
0.0852528
24.5716
0.0572981
24.7624
0.0288766
24.9543
0
25.1472
-0.0293191
25.3413
-0.0590676
25.5364
-0.0892322
25.7326
-0.119799
25.9298
-0.150754
26.1282
-0.182081
26.3276
-0.213766
26.5282
-0.245794
26.7298
-0.278147
26.9326
-0.31081
27.1365
-0.343767
27.3416
-0.376999
27.5478
-0.41049
27.7551
-0.444222
27.9636
-0.478178
28.1733
-0.512338
28.3842
-0.546685
28.5962
-0.5812
28.8095
-0.615864
29.0239
-0.650658
29.2396
-0.685562
29.4565
-0.720558
29.6746
-0.755626
29.894
-0.790745
30.1146
-0.825897
30.3364
-0.86106
30.5594
-0.896215
30.7837
-0.931341
31.0093
-0.966418
31.2361
-1.00143
31.4641
-1.03635
31.6934
-1.07115
31.9238
-1.10583
32.1558
-1.14035
32.3881
-1.17473
32.6242
-1.20882
32.8538
-1.24298
33.1085
-1.27604
-1.31157
33.2912
18.7261
0.80144
-18.7089
18.7592
0.787911
18.8065
0.774493
18.8667
0.761103
18.9384
0.747662
19.0205
0.734099
19.1118
0.720352
19.2114
0.706362
19.3183
0.692082
19.432
0.677465
19.5515
0.662472
19.6764
0.647071
19.8061
0.631229
19.9401
0.614923
20.078
0.598129
20.2194
0.580829
20.364
0.563006
20.5115
0.544647
20.6617
0.525741
20.8143
0.506279
20.9691
0.486254
21.126
0.465662
21.2848
0.444498
21.4454
0.422761
21.6077
0.400451
21.7715
0.377568
21.9368
0.354115
22.1035
0.330094
22.2716
0.30551
22.4409
0.280368
22.6115
0.254675
22.7833
0.228436
22.9563
0.20166
23.1304
0.174356
23.3056
0.146533
23.482
0.1182
23.6594
0.0893691
23.8379
0.0600507
24.0175
0.0302569
24.1981
0
24.3798
-0.0307069
24.5626
-0.0618502
24.7464
-0.093416
24.9313
-0.12539
25.1173
-0.157757
25.3044
-0.190502
25.4925
-0.223609
25.6818
-0.257061
25.8721
-0.290843
26.0636
-0.324937
26.2561
-0.359326
26.4498
-0.393993
26.6447
-0.428919
26.8406
-0.464086
27.0377
-0.499476
27.236
-0.53507
27.4354
-0.570849
27.636
-0.606794
27.8378
-0.642885
28.0408
-0.679103
28.245
-0.715427
28.4503
-0.751838
28.6569
-0.788314
28.8647
-0.824837
29.0737
-0.861385
29.2839
-0.897937
29.4953
-0.934473
29.7079
-0.970972
29.9217
-1.00741
30.1368
-1.04377
30.353
-1.08004
30.5705
-1.11618
30.7891
-1.15217
31.0092
-1.188
31.2297
-1.22367
31.4537
-1.25905
31.6717
-1.29447
31.9134
-1.32877
-1.36557
32.0873
18.2423
0.840528
-18.2112
18.2865
0.826862
18.3423
0.813196
18.4085
0.799455
18.4841
0.785572
18.5682
0.771485
18.6599
0.75714
18.7585
0.742488
18.8631
0.727486
18.9733
0.712096
19.0885
0.696282
19.2081
0.680017
19.3319
0.663274
19.4593
0.64603
19.59
0.628268
19.7238
0.609969
19.8604
0.591121
19.9995
0.571713
20.1409
0.551734
20.2846
0.531178
20.4302
0.510039
20.5777
0.488314
20.7269
0.466
20.8777
0.443096
21.0301
0.419603
21.184
0.395523
21.3392
0.370858
21.4958
0.345612
21.6536
0.319791
21.8127
0.293399
21.9729
0.266445
22.1343
0.238935
22.2969
0.210877
22.4605
0.182281
22.6253
0.153157
22.7911
0.123515
22.958
0.0933658
23.126
0.0627221
23.295
0.0315959
23.4651
0
23.6362
-0.032052
23.8084
-0.064546
23.9816
-0.0974676
24.1559
-0.130802
24.3313
-0.164533
24.5077
-0.198646
24.6852
-0.233123
24.8637
-0.267949
25.0434
-0.303106
25.2242
-0.338577
25.406
-0.374343
25.589
-0.410387
25.7731
-0.446691
25.9583
-0.483234
26.1447
-0.519999
26.3321
-0.556967
26.5208
-0.594116
26.7106
-0.631428
26.9015
-0.668883
27.0936
-0.70646
27.2869
-0.744138
27.4813
-0.781898
27.677
-0.819717
27.8738
-0.857576
28.0718
-0.895452
28.271
-0.933326
28.4713
-0.971175
28.6729
-1.00898
28.8756
-1.04671
29.0795
-1.08436
29.2846
-1.12189
29.4909
-1.15929
29.6983
-1.19654
29.9071
-1.2336
30.1164
-1.27049
30.329
-1.30708
30.536
-1.3437
30.7652
-1.37918
-1.41716
30.9308
17.7841
0.879503
-17.7429
17.836
0.865618
17.8973
0.85163
17.9672
0.837478
18.0447
0.823101
18.1293
0.808447
18.2201
0.793469
18.3165
0.778126
18.4181
0.762379
18.5243
0.746197
18.6347
0.729549
18.7489
0.71241
18.8666
0.694758
18.9874
0.676574
19.1111
0.657842
19.2375
0.638548
19.3663
0.618679
19.4973
0.598227
19.6304
0.577184
19.7655
0.555544
19.9024
0.533304
20.0409
0.510459
20.1811
0.48701
20.3227
0.462957
20.4658
0.4383
20.6102
0.413042
20.756
0.387188
20.903
0.36074
21.0512
0.333706
21.2006
0.306091
21.3511
0.277903
21.5028
0.24915
21.6555
0.219841
21.8094
0.189986
21.9643
0.159594
22.1202
0.128677
22.2772
0.0972463
22.4353
0.0653148
22.5944
0.0328948
22.7545
0
22.9156
-0.0333556
23.0778
-0.0671578
23.2411
-0.101391
23.4054
-0.13604
23.5707
-0.17109
23.7371
-0.206522
23.9045
-0.242322
24.0731
-0.278471
24.2426
-0.314952
24.4133
-0.351747
24.5851
-0.388838
24.7579
-0.426206
24.9319
-0.463831
25.1069
-0.501695
25.2831
-0.539778
25.4604
-0.578061
25.6388
-0.616522
25.8184
-0.655141
25.9991
-0.693899
26.1809
-0.732774
26.3639
-0.771745
26.548
-0.810791
26.7333
-0.84989
26.9197
-0.889021
27.1073
-0.928162
27.2961
-0.967292
27.486
-1.00639
27.677
-1.04543
27.8692
-1.08439
28.0626
-1.12325
28.2571
-1.16199
28.4528
-1.20059
28.6496
-1.23902
28.8477
-1.27725
29.0463
-1.3153
29.248
-1.35302
29.4446
-1.39077
29.662
-1.42736
-1.46645
29.8197
17.3471
0.918308
-17.299
17.404
0.904127
17.4687
0.889754
17.5403
0.875134
17.6183
0.860217
17.702
0.844958
17.7909
0.829317
17.8845
0.813256
17.9825
0.796745
18.0843
0.779756
18.1897
0.762262
18.2983
0.744242
18.4099
0.725677
18.5243
0.706552
18.6411
0.686851
18.7603
0.666564
18.8816
0.64568
19.005
0.624192
19.1301
0.602095
19.2571
0.579382
19.3856
0.556052
19.5157
0.532103
19.6473
0.507536
19.7803
0.48235
19.9146
0.456548
20.0502
0.430134
20.187
0.403111
20.325
0.375485
20.4641
0.347263
20.6044
0.318451
20.7458
0.289057
20.8883
0.25909
21.0318
0.22856
21.1764
0.197475
21.322
0.165849
21.4687
0.133691
21.6164
0.101014
21.7651
0.0678307
21.9148
0.0341549
22.0656
0
22.2174
-0.0346193
22.3702
-0.0696881
22.524
-0.105191
22.6789
-0.141112
22.8348
-0.177434
22.9917
-0.214142
23.1497
-0.251217
23.3087
-0.288641
23.4688
-0.326398
23.6299
-0.364467
23.7922
-0.402831
23.9555
-0.44147
24.1199
-0.480365
24.2853
-0.519496
24.4519
-0.558842
24.6195
-0.598384
24.7883
-0.638101
24.9582
-0.677972
25.1292
-0.717975
25.3013
-0.75809
25.4745
-0.798295
25.6489
-0.838567
25.8244
-0.878886
26.001
-0.919229
26.1787
-0.959574
26.3576
-0.999898
26.5376
-1.04018
26.7187
-1.08039
26.901
-1.12052
27.0843
-1.16054
27.2688
-1.20042
27.4544
-1.24015
27.6411
-1.27969
27.8291
-1.31903
28.0175
-1.35817
28.209
-1.39698
28.3956
-1.43579
28.6018
-1.47342
-1.51355
28.7521
16.9278
0.956885
-16.8752
16.9877
0.942341
17.0539
0.927525
17.1259
0.91239
17.2031
0.896893
17.2851
0.880995
17.3714
0.864662
17.4617
0.847863
17.5556
0.830571
17.6528
0.812761
17.7531
0.794413
17.8562
0.775506
17.9618
0.756027
18.0698
0.735959
18.18
0.715293
18.2922
0.694018
18.4064
0.672126
18.5223
0.649611
18.64
0.626468
18.7592
0.602695
18.8799
0.57829
19.002
0.553252
19.1255
0.527582
19.2503
0.501282
19.3763
0.474354
19.5035
0.446804
19.6319
0.418636
19.7614
0.389855
19.8921
0.360469
20.0238
0.330486
20.1566
0.299913
20.2904
0.26876
20.4253
0.237038
20.5612
0.204756
20.6981
0.171926
20.836
0.138561
20.975
0.104672
21.1149
0.0702725
21.2558
0.0353772
21.3978
0
21.5407
-0.0358442
21.6847
-0.07214
21.8296
-0.108871
21.9756
-0.146022
22.1226
-0.183574
22.2706
-0.221512
22.4197
-0.259817
22.5698
-0.298471
22.7209
-0.337456
22.8731
-0.376752
23.0263
-0.416341
23.1806
-0.456202
23.3359
-0.496316
23.4923
-0.536662
23.6498
-0.57722
23.8084
-0.617969
23.968
-0.658888
24.1288
-0.699956
24.2906
-0.74115
24.4535
-0.78245
24.6175
-0.823832
24.7826
-0.865275
24.9488
-0.906756
25.1161
-0.948253
25.2845
-0.989744
25.4541
-1.0312
25.6247
-1.07261
25.7964
-1.11394
25.9692
-1.15518
26.1431
-1.19629
26.3181
-1.23725
26.4941
-1.27805
26.6712
-1.31866
26.8496
-1.35904
27.0285
-1.39921
27.2101
-1.43903
27.3873
-1.47884
27.5829
-1.51747
-1.55858
27.726
16.5234
0.99518
-16.4682
16.5847
0.980213
16.6512
0.964904
16.7224
0.949211
16.798
0.933098
16.8776
0.916533
16.9609
0.899486
17.0474