/*--------------------------------*- C++ -*----------------------------------*\
| =========                 |                                                 |
| \\      /  F ield         | OpenFOAM: The Open Source CFD Toolbox           |
|  \\    /   O peration     | Version:  2312                                  |
|   \\  /    A nd           | Website:  www.openfoam.com                      |
|    \\/     M anipulation  |                                                 |
\*---------------------------------------------------------------------------*/
FoamFile
{
    version     2.0;
    format      ascii;
    arch        "LSB;label=32;scalar=64";
    class       volVectorField;
    location    "0.904";
    object      U;
}
// * * * * * * * * * * * * * * * * * * * * * * * * * * * * * * * * * * * * * //

dimensions      [0 1 -1 0 0 0 0];

internalField   nonuniform List<vector> 
31205
(
(110.711 0 0)
(113.081 0 0)
(115.537 0 0)
(118.053 0 0)
(120.61 0 0)
(123.192 0 0)
(125.785 0 0)
(128.379 0 0)
(130.968 0 0)
(133.545 0 0)
(136.106 0 0)
(138.646 0 0)
(141.164 0 0)
(143.657 0 0)
(146.124 0 0)
(148.565 0 0)
(150.978 0 0)
(153.363 0 0)
(155.72 0 0)
(158.048 0 0)
(160.349 0 0)
(162.622 0 0)
(164.867 0 0)
(167.085 0 0)
(169.276 0 0)
(171.44 0 0)
(173.578 0 0)
(175.69 0 0)
(177.777 0 0)
(179.839 0 0)
(181.876 0 0)
(183.889 0 0)
(185.878 0 0)
(187.844 0 0)
(189.788 0 0)
(191.708 0 0)
(193.607 0 0)
(195.483 0 0)
(197.339 0 0)
(199.173 0 0)
(200.986 0 0)
(202.779 0 0)
(204.552 0 0)
(206.304 0 0)
(208.038 0 0)
(209.752 0 0)
(211.447 0 0)
(213.123 0 0)
(214.78 0 0)
(216.42 0 0)
(218.041 0 0)
(219.644 0 0)
(221.23 0 0)
(222.799 0 0)
(224.35 0 0)
(225.884 0 0)
(227.401 0 0)
(228.902 0 0)
(230.386 0 0)
(231.853 0 0)
(233.305 0 0)
(234.74 0 0)
(236.16 0 0)
(237.563 0 0)
(238.951 0 0)
(240.324 0 0)
(241.681 0 0)
(243.022 0 0)
(244.349 0 0)
(245.66 0 0)
(246.956 0 0)
(248.237 0 0)
(249.504 0 0)
(250.754 0 0)
(251.995 0 0)
(253.203 0 0)
(254.453 0 0)
(255.516 0 0)
(257.093 0 0)
(112.854 0 0)
(115.237 0 0)
(117.68 0 0)
(120.165 0 0)
(122.676 0 0)
(125.2 0 0)
(127.727 0 0)
(130.251 0 0)
(132.766 0 0)
(135.266 0 0)
(137.748 0 0)
(140.209 0 0)
(142.648 0 0)
(145.063 0 0)
(147.453 0 0)
(149.818 0 0)
(152.156 0 0)
(154.467 0 0)
(156.752 0 0)
(159.01 0 0)
(161.242 0 0)
(163.447 0 0)
(165.626 0 0)
(167.78 0 0)
(169.908 0 0)
(172.01 0 0)
(174.088 0 0)
(176.142 0 0)
(178.172 0 0)
(180.178 0 0)
(182.16 0 0)
(184.12 0 0)
(186.058 0 0)
(187.973 0 0)
(189.867 0 0)
(191.739 0 0)
(193.59 0 0)
(195.42 0 0)
(197.23 0 0)
(199.019 0 0)
(200.789 0 0)
(202.54 0 0)
(204.271 0 0)
(205.983 0 0)
(207.677 0 0)
(209.352 0 0)
(211.009 0 0)
(212.648 0 0)
(214.269 0 0)
(215.873 0 0)
(217.459 0 0)
(219.029 0 0)
(220.581 0 0)
(222.117 0 0)
(223.636 0 0)
(225.139 0 0)
(226.625 0 0)
(228.096 0 0)
(229.551 0 0)
(230.99 0 0)
(232.413 0 0)
(233.821 0 0)
(235.214 0 0)
(236.592 0 0)
(237.954 0 0)
(239.302 0 0)
(240.635 0 0)
(241.952 0 0)
(243.256 0 0)
(244.545 0 0)
(245.819 0 0)
(247.079 0 0)
(248.325 0 0)
(249.555 0 0)
(250.777 0 0)
(251.967 0 0)
(253.196 0 0)
(254.247 0 0)
(255.79 0 0)
(115.122 0 0)
(117.494 0 0)
(119.907 0 0)
(122.347 0 0)
(124.801 0 0)
(127.26 0 0)
(129.717 0 0)
(132.167 0 0)
(134.604 0 0)
(137.025 0 0)
(139.428 0 0)
(141.81 0 0)
(144.171 0 0)
(146.508 0 0)
(148.821 0 0)
(151.109 0 0)
(153.373 0 0)
(155.611 0 0)
(157.824 0 0)
(160.013 0 0)
(162.176 0 0)
(164.314 0 0)
(166.428 0 0)
(168.518 0 0)
(170.584 0 0)
(172.626 0 0)
(174.645 0 0)
(176.64 0 0)
(178.613 0 0)
(180.564 0 0)
(182.493 0 0)
(184.4 0 0)
(186.286 0 0)
(188.151 0 0)
(189.995 0 0)
(191.819 0 0)
(193.623 0 0)
(195.408 0 0)
(197.173 0 0)
(198.918 0 0)
(200.645 0 0)
(202.354 0 0)
(204.044 0 0)
(205.716 0 0)
(207.37 0 0)
(209.007 0 0)
(210.626 0 0)
(212.228 0 0)
(213.813 0 0)
(215.381 0 0)
(216.933 0 0)
(218.469 0 0)
(219.988 0 0)
(221.491 0 0)
(222.979 0 0)
(224.45 0 0)
(225.907 0 0)
(227.347 0 0)
(228.773 0 0)
(230.184 0 0)
(231.579 0 0)
(232.96 0 0)
(234.326 0 0)
(235.677 0 0)
(237.014 0 0)
(238.337 0 0)
(239.645 0 0)
(240.94 0 0)
(242.22 0 0)
(243.486 0 0)
(244.738 0 0)
(245.977 0 0)
(247.202 0 0)
(248.412 0 0)
(249.613 0 0)
(250.785 0 0)
(251.994 0 0)
(253.032 0 0)
(254.543 0 0)
(117.428 0 0)
(119.772 0 0)
(122.143 0 0)
(124.528 0 0)
(126.92 0 0)
(129.311 0 0)
(131.696 0 0)
(134.071 0 0)
(136.431 0 0)
(138.775 0 0)
(141.1 0 0)
(143.405 0 0)
(145.688 0 0)
(147.949 0 0)
(150.187 0 0)
(152.402 0 0)
(154.593 0 0)
(156.761 0 0)
(158.905 0 0)
(161.025 0 0)
(163.122 0 0)
(165.196 0 0)
(167.247 0 0)
(169.274 0 0)
(171.28 0 0)
(173.262 0 0)
(175.223 0 0)
(177.163 0 0)
(179.081 0 0)
(180.978 0 0)
(182.854 0 0)
(184.71 0 0)
(186.545 0 0)
(188.361 0 0)
(190.157 0 0)
(191.934 0 0)
(193.692 0 0)
(195.432 0 0)
(197.153 0 0)
(198.855 0 0)
(200.54 0 0)
(202.207 0 0)
(203.857 0 0)
(205.49 0 0)
(207.105 0 0)
(208.704 0 0)
(210.286 0 0)
(211.852 0 0)
(213.401 0 0)
(214.935 0 0)
(216.452 0 0)
(217.954 0 0)
(219.441 0 0)
(220.912 0 0)
(222.368 0 0)
(223.809 0 0)
(225.235 0 0)
(226.646 0 0)
(228.043 0 0)
(229.425 0 0)
(230.793 0 0)
(232.147 0 0)
(233.486 0 0)
(234.812 0 0)
(236.123 0 0)
(237.421 0 0)
(238.705 0 0)
(239.976 0 0)
(241.232 0 0)
(242.476 0 0)
(243.706 0 0)
(244.923 0 0)
(246.127 0 0)
(247.316 0 0)
(248.498 0 0)
(249.65 0 0)
(250.839 0 0)
(251.862 0 0)
(253.344 0 0)
(119.721 0 0)
(122.025 0 0)
(124.344 0 0)
(126.671 0 0)
(128.997 0 0)
(131.319 0 0)
(133.631 0 0)
(135.931 0 0)
(138.216 0 0)
(140.485 0 0)
(142.734 0 0)
(144.964 0 0)
(147.173 0 0)
(149.361 0 0)
(151.527 0 0)
(153.671 0 0)
(155.792 0 0)
(157.892 0 0)
(159.969 0 0)
(162.024 0 0)
(164.057 0 0)
(166.068 0 0)
(168.057 0 0)
(170.025 0 0)
(171.972 0 0)
(173.898 0 0)
(175.803 0 0)
(177.688 0 0)
(179.552 0 0)
(181.397 0 0)
(183.222 0 0)
(185.028 0 0)
(186.815 0 0)
(188.583 0 0)
(190.332 0 0)
(192.064 0 0)
(193.777 0 0)
(195.473 0 0)
(197.151 0 0)
(198.811 0 0)
(200.455 0 0)
(202.082 0 0)
(203.692 0 0)
(205.286 0 0)
(206.864 0 0)
(208.426 0 0)
(209.972 0 0)
(211.502 0 0)
(213.016 0 0)
(214.516 0 0)
(216 0 0)
(217.469 0 0)
(218.923 0 0)
(220.363 0 0)
(221.788 0 0)
(223.199 0 0)
(224.595 0 0)
(225.977 0 0)
(227.345 0 0)
(228.7 0 0)
(230.04 0 0)
(231.367 0 0)
(232.68 0 0)
(233.98 0 0)
(235.266 0 0)
(236.539 0 0)
(237.799 0 0)
(239.046 0 0)
(240.279 0 0)
(241.5 0 0)
(242.708 0 0)
(243.903 0 0)
(245.086 0 0)
(246.255 0 0)
(247.416 0 0)
(248.549 0 0)
(249.718 0 0)
(250.725 0 0)
(252.18 0 0)
(121.976 0 0)
(124.231 0 0)
(126.493 0 0)
(128.756 0 0)
(131.015 0 0)
(133.267 0 0)
(135.508 0 0)
(137.735 0 0)
(139.946 0 0)
(142.141 0 0)
(144.318 0 0)
(146.475 0 0)
(148.612 0 0)
(150.73 0 0)
(152.826 0 0)
(154.902 0 0)
(156.957 0 0)
(158.991 0 0)
(161.004 0 0)
(162.996 0 0)
(164.968 0 0)
(166.919 0 0)
(168.849 0 0)
(170.759 0 0)
(172.65 0 0)
(174.521 0 0)
(176.372 0 0)
(178.204 0 0)
(180.017 0 0)
(181.811 0 0)
(183.587 0 0)
(185.345 0 0)
(187.084 0 0)
(188.806 0 0)
(190.51 0 0)
(192.197 0 0)
(193.867 0 0)
(195.52 0 0)
(197.157 0 0)
(198.777 0 0)
(200.381 0 0)
(201.968 0 0)
(203.54 0 0)
(205.097 0 0)
(206.637 0 0)
(208.163 0 0)
(209.673 0 0)
(211.169 0 0)
(212.649 0 0)
(214.115 0 0)
(215.566 0 0)
(217.003 0 0)
(218.426 0 0)
(219.835 0 0)
(221.23 0 0)
(222.61 0 0)
(223.978 0 0)
(225.331 0 0)
(226.671 0 0)
(227.998 0 0)
(229.311 0 0)
(230.612 0 0)
(231.899 0 0)
(233.173 0 0)
(234.434 0 0)
(235.683 0 0)
(236.919 0 0)
(238.142 0 0)
(239.353 0 0)
(240.551 0 0)
(241.737 0 0)
(242.91 0 0)
(244.072 0 0)
(245.22 0 0)
(246.361 0 0)
(247.474 0 0)
(248.623 0 0)
(249.614 0 0)
(251.043 0 0)
(124.177 0 0)
(126.377 0 0)
(128.578 0 0)
(130.777 0 0)
(132.968 0 0)
(135.15 0 0)
(137.32 0 0)
(139.476 0 0)
(141.617 0 0)
(143.74 0 0)
(145.846 0 0)
(147.934 0 0)
(150.003 0 0)
(152.052 0 0)
(154.082 0 0)
(156.093 0 0)
(158.084 0 0)
(160.055 0 0)
(162.006 0 0)
(163.938 0 0)
(165.85 0 0)
(167.743 0 0)
(169.617 0 0)
(171.472 0 0)
(173.308 0 0)
(175.126 0 0)
(176.925 0 0)
(178.706 0 0)
(180.47 0 0)
(182.215 0 0)
(183.943 0 0)
(185.654 0 0)
(187.348 0 0)
(189.025 0 0)
(190.686 0 0)
(192.33 0 0)
(193.958 0 0)
(195.57 0 0)
(197.166 0 0)
(198.746 0 0)
(200.311 0 0)
(201.861 0 0)
(203.395 0 0)
(204.915 0 0)
(206.42 0 0)
(207.91 0 0)
(209.386 0 0)
(210.848 0 0)
(212.295 0 0)
(213.728 0 0)
(215.148 0 0)
(216.553 0 0)
(217.945 0 0)
(219.323 0 0)
(220.688 0 0)
(222.04 0 0)
(223.379 0 0)
(224.704 0 0)
(226.016 0 0)
(227.316 0 0)
(228.603 0 0)
(229.877 0 0)
(231.139 0 0)
(232.388 0 0)
(233.624 0 0)
(234.849 0 0)
(236.061 0 0)
(237.261 0 0)
(238.449 0 0)
(239.625 0 0)
(240.789 0 0)
(241.941 0 0)
(243.081 0 0)
(244.209 0 0)
(245.329 0 0)
(246.423 0 0)
(247.552 0 0)
(248.527 0 0)
(249.929 0 0)
(126.318 0 0)
(128.459 0 0)
(130.598 0 0)
(132.73 0 0)
(134.855 0 0)
(136.968 0 0)
(139.069 0 0)
(141.156 0 0)
(143.227 0 0)
(145.282 0 0)
(147.32 0 0)
(149.341 0 0)
(151.344 0 0)
(153.328 0 0)
(155.294 0 0)
(157.242 0 0)
(159.171 0 0)
(161.082 0 0)
(162.974 0 0)
(164.848 0 0)
(166.703 0 0)
(168.541 0 0)
(170.36 0 0)
(172.162 0 0)
(173.946 0 0)
(175.712 0 0)
(177.461 0 0)
(179.194 0 0)
(180.909 0 0)
(182.608 0 0)
(184.29 0 0)
(185.956 0 0)
(187.605 0 0)
(189.239 0 0)
(190.857 0 0)
(192.46 0 0)
(194.047 0 0)
(195.619 0 0)
(197.175 0 0)
(198.717 0 0)
(200.245 0 0)
(201.758 0 0)
(203.256 0 0)
(204.74 0 0)
(206.21 0 0)
(207.666 0 0)
(209.108 0 0)
(210.536 0 0)
(211.951 0 0)
(213.353 0 0)
(214.741 0 0)
(216.116 0 0)
(217.478 0 0)
(218.826 0 0)
(220.162 0 0)
(221.485 0 0)
(222.796 0 0)
(224.094 0 0)
(225.379 0 0)
(226.652 0 0)
(227.913 0 0)
(229.161 0 0)
(230.398 0 0)
(231.622 0 0)
(232.835 0 0)
(234.035 0 0)
(235.224 0 0)
(236.401 0 0)
(237.566 0 0)
(238.72 0 0)
(239.862 0 0)
(240.993 0 0)
(242.113 0 0)
(243.22 0 0)
(244.32 0 0)
(245.395 0 0)
(246.503 0 0)
(247.461 0 0)
(248.837 0 0)
(128.395 0 0)
(130.475 0 0)
(132.55 0 0)
(134.618 0 0)
(136.675 0 0)
(138.722 0 0)
(140.755 0 0)
(142.775 0 0)
(144.779 0 0)
(146.768 0 0)
(148.741 0 0)
(150.697 0 0)
(152.636 0 0)
(154.558 0 0)
(156.463 0 0)
(158.35 0 0)
(160.22 0 0)
(162.073 0 0)
(163.908 0 0)
(165.726 0 0)
(167.527 0 0)
(169.311 0 0)
(171.078 0 0)
(172.828 0 0)
(174.562 0 0)
(176.279 0 0)
(177.98 0 0)
(179.665 0 0)
(181.334 0 0)
(182.988 0 0)
(184.625 0 0)
(186.247 0 0)
(187.854 0 0)
(189.446 0 0)
(191.023 0 0)
(192.586 0 0)
(194.133 0 0)
(195.666 0 0)
(197.185 0 0)
(198.69 0 0)
(200.181 0 0)
(201.657 0 0)
(203.121 0 0)
(204.57 0 0)
(206.006 0 0)
(207.429 0 0)
(208.838 0 0)
(210.234 0 0)
(211.618 0 0)
(212.988 0 0)
(214.346 0 0)
(215.69 0 0)
(217.023 0 0)
(218.343 0 0)
(219.65 0 0)
(220.945 0 0)
(222.228 0 0)
(223.499 0 0)
(224.758 0 0)
(226.005 0 0)
(227.24 0 0)
(228.463 0 0)
(229.675 0 0)
(230.875 0 0)
(232.064 0 0)
(233.241 0 0)
(234.406 0 0)
(235.561 0 0)
(236.704 0 0)
(237.836 0 0)
(238.957 0 0)
(240.066 0 0)
(241.165 0 0)
(242.252 0 0)
(243.332 0 0)
(244.388 0 0)
(245.476 0 0)
(246.418 0 0)
(247.768 0 0)
(130.406 0 0)
(132.425 0 0)
(134.436 0 0)
(136.439 0 0)
(138.432 0 0)
(140.413 0 0)
(142.381 0 0)
(144.335 0 0)
(146.275 0 0)
(148.2 0 0)
(150.11 0 0)
(152.004 0 0)
(153.882 0 0)
(155.744 0 0)
(157.59 0 0)
(159.419 0 0)
(161.232 0 0)
(163.029 0 0)
(164.81 0 0)
(166.574 0 0)
(168.323 0 0)
(170.055 0 0)
(171.772 0 0)
(173.473 0 0)
(175.158 0 0)
(176.828 0 0)
(178.482 0 0)
(180.122 0 0)
(181.746 0 0)
(183.355 0 0)
(184.95 0 0)
(186.53 0 0)
(188.096 0 0)
(189.647 0 0)
(191.185 0 0)
(192.708 0 0)
(194.217 0 0)
(195.713 0 0)
(197.195 0 0)
(198.663 0 0)
(200.119 0 0)
(201.56 0 0)
(202.989 0 0)
(204.405 0 0)
(205.808 0 0)
(207.198 0 0)
(208.576 0 0)
(209.941 0 0)
(211.293 0 0)
(212.633 0 0)
(213.961 0 0)
(215.277 0 0)
(216.58 0 0)
(217.872 0 0)
(219.152 0 0)
(220.419 0 0)
(221.676 0 0)
(222.92 0 0)
(224.153 0 0)
(225.374 0 0)
(226.584 0 0)
(227.783 0 0)
(228.97 0 0)
(230.146 0 0)
(231.311 0 0)
(232.465 0 0)
(233.608 0 0)
(234.74 0 0)
(235.862 0 0)
(236.972 0 0)
(238.072 0 0)
(239.16 0 0)
(240.239 0 0)
(241.305 0 0)
(242.366 0 0)
(243.402 0 0)
(244.471 0 0)
(245.397 0 0)
(246.72 0 0)
(132.352 0 0)
(134.308 0 0)
(136.257 0 0)
(138.196 0 0)
(140.125 0 0)
(142.043 0 0)
(143.948 0 0)
(145.839 0 0)
(147.717 0 0)
(149.581 0 0)
(151.43 0 0)
(153.264 0 0)
(155.084 0 0)
(156.888 0 0)
(158.677 0 0)
(160.451 0 0)
(162.209 0 0)
(163.953 0 0)
(165.681 0 0)
(167.394 0 0)
(169.091 0 0)
(170.774 0 0)
(172.442 0 0)
(174.096 0 0)
(175.734 0 0)
(177.358 0 0)
(178.968 0 0)
(180.563 0 0)
(182.144 0 0)
(183.712 0 0)
(185.265 0 0)
(186.804 0 0)
(188.33 0 0)
(189.842 0 0)
(191.341 0 0)
(192.826 0 0)
(194.299 0 0)
(195.758 0 0)
(197.204 0 0)
(198.638 0 0)
(200.058 0 0)
(201.466 0 0)
(202.862 0 0)
(204.245 0 0)
(205.616 0 0)
(206.974 0 0)
(208.321 0 0)
(209.655 0 0)
(210.978 0 0)
(212.288 0 0)
(213.587 0 0)
(214.874 0 0)
(216.15 0 0)
(217.414 0 0)
(218.666 0 0)
(219.907 0 0)
(221.137 0 0)
(222.356 0 0)
(223.563 0 0)
(224.76 0 0)
(225.945 0 0)
(227.12 0 0)
(228.283 0 0)
(229.436 0 0)
(230.578 0 0)
(231.709 0 0)
(232.83 0 0)
(233.94 0 0)
(235.039 0 0)
(236.128 0 0)
(237.207 0 0)
(238.275 0 0)
(239.333 0 0)
(240.38 0 0)
(241.421 0 0)
(242.438 0 0)
(243.487 0 0)
(244.397 0 0)
(245.694 0 0)
(134.231 0 0)
(136.127 0 0)
(138.014 0 0)
(139.891 0 0)
(141.758 0 0)
(143.614 0 0)
(145.458 0 0)
(147.289 0 0)
(149.107 0 0)
(150.912 0 0)
(152.703 0 0)
(154.48 0 0)
(156.243 0 0)
(157.991 0 0)
(159.726 0 0)
(161.446 0 0)
(163.152 0 0)
(164.844 0 0)
(166.522 0 0)
(168.185 0 0)
(169.834 0 0)
(171.469 0 0)
(173.091 0 0)
(174.698 0 0)
(176.292 0 0)
(177.872 0 0)
(179.438 0 0)
(180.991 0 0)
(182.53 0 0)
(184.057 0 0)
(185.57 0 0)
(187.07 0 0)
(188.557 0 0)
(190.031 0 0)
(191.493 0 0)
(192.941 0 0)
(194.378 0 0)
(195.802 0 0)
(197.213 0 0)
(198.613 0 0)
(200 0 0)
(201.375 0 0)
(202.738 0 0)
(204.09 0 0)
(205.429 0 0)
(206.757 0 0)
(208.073 0 0)
(209.378 0 0)
(210.671 0 0)
(211.953 0 0)
(213.224 0 0)
(214.483 0 0)
(215.731 0 0)
(216.968 0 0)
(218.194 0 0)
(219.409 0 0)
(220.613 0 0)
(221.807 0 0)
(222.989 0 0)
(224.161 0 0)
(225.322 0 0)
(226.473 0 0)
(227.613 0 0)
(228.743 0 0)
(229.862 0 0)
(230.971 0 0)
(232.07 0 0)
(233.158 0 0)
(234.236 0 0)
(235.304 0 0)
(236.362 0 0)
(237.41 0 0)
(238.449 0 0)
(239.476 0 0)
(240.497 0 0)
(241.495 0 0)
(242.525 0 0)
(243.419 0 0)
(244.69 0 0)
(136.046 0 0)
(137.881 0 0)
(139.708 0 0)
(141.526 0 0)
(143.333 0 0)
(145.129 0 0)
(146.914 0 0)
(148.687 0 0)
(150.447 0 0)
(152.195 0 0)
(153.93 0 0)
(155.652 0 0)
(157.36 0 0)
(159.056 0 0)
(160.738 0 0)
(162.407 0 0)
(164.063 0 0)
(165.705 0 0)
(167.334 0 0)
(168.949 0 0)
(170.552 0 0)
(172.141 0 0)
(173.717 0 0)
(175.281 0 0)
(176.831 0 0)
(178.368 0 0)
(179.893 0 0)
(181.405 0 0)
(182.904 0 0)
(184.391 0 0)
(185.865 0 0)
(187.327 0 0)
(188.777 0 0)
(190.214 0 0)
(191.64 0 0)
(193.053 0 0)
(194.455 0 0)
(195.844 0 0)
(197.222 0 0)
(198.589 0 0)
(199.943 0 0)
(201.287 0 0)
(202.618 0 0)
(203.939 0 0)
(205.248 0 0)
(206.546 0 0)
(207.833 0 0)
(209.109 0 0)
(210.373 0 0)
(211.627 0 0)
(212.87 0 0)
(214.102 0 0)
(215.324 0 0)
(216.534 0 0)
(217.735 0 0)
(218.924 0 0)
(220.103 0 0)
(221.272 0 0)
(222.43 0 0)
(223.578 0 0)
(224.715 0 0)
(225.843 0 0)
(226.96 0 0)
(228.067 0 0)
(229.164 0 0)
(230.251 0 0)
(231.328 0 0)
(232.395 0 0)
(233.453 0 0)
(234.5 0 0)
(235.538 0 0)
(236.566 0 0)
(237.584 0 0)
(238.592 0 0)
(239.594 0 0)
(240.574 0 0)
(241.584 0 0)
(242.462 0 0)
(243.707 0 0)
(137.797 0 0)
(139.574 0 0)
(141.342 0 0)
(143.102 0 0)
(144.851 0 0)
(146.59 0 0)
(148.317 0 0)
(150.034 0 0)
(151.739 0 0)
(153.432 0 0)
(155.113 0 0)
(156.782 0 0)
(158.439 0 0)
(160.083 0 0)
(161.715 0 0)
(163.335 0 0)
(164.942 0 0)
(166.536 0 0)
(168.119 0 0)
(169.688 0 0)
(171.246 0 0)
(172.791 0 0)
(174.324 0 0)
(175.844 0 0)
(177.352 0 0)
(178.849 0 0)
(180.333 0 0)
(181.805 0 0)
(183.266 0 0)
(184.714 0 0)
(186.151 0 0)
(187.576 0 0)
(188.99 0 0)
(190.392 0 0)
(191.782 0 0)
(193.161 0 0)
(194.529 0 0)
(195.886 0 0)
(197.231 0 0)
(198.565 0 0)
(199.889 0 0)
(201.201 0 0)
(202.502 0 0)
(203.793 0 0)
(205.072 0 0)
(206.341 0 0)
(207.599 0 0)
(208.847 0 0)
(210.084 0 0)
(211.311 0 0)
(212.527 0 0)
(213.732 0 0)
(214.928 0 0)
(216.113 0 0)
(217.288 0 0)
(218.452 0 0)
(219.607 0 0)
(220.751 0 0)
(221.886 0 0)
(223.01 0 0)
(224.124 0 0)
(225.229 0 0)
(226.324 0 0)
(227.409 0 0)
(228.484 0 0)
(229.549 0 0)
(230.605 0 0)
(231.651 0 0)
(232.688 0 0)
(233.715 0 0)
(234.733 0 0)
(235.741 0 0)
(236.74 0 0)
(237.728 0 0)
(238.712 0 0)
(239.673 0 0)
(240.664 0 0)
(241.526 0 0)
(242.746 0 0)
(139.486 0 0)
(141.206 0 0)
(142.918 0 0)
(144.621 0 0)
(146.314 0 0)
(147.997 0 0)
(149.671 0 0)
(151.333 0 0)
(152.985 0 0)
(154.625 0 0)
(156.255 0 0)
(157.873 0 0)
(159.48 0 0)
(161.075 0 0)
(162.658 0 0)
(164.23 0 0)
(165.791 0 0)
(167.34 0 0)
(168.877 0 0)
(170.402 0 0)
(171.916 0 0)
(173.419 0 0)
(174.91 0 0)
(176.389 0 0)
(177.857 0 0)
(179.314 0 0)
(180.759 0 0)
(182.193 0 0)
(183.616 0 0)
(185.028 0 0)
(186.428 0 0)
(187.818 0 0)
(189.197 0 0)
(190.564 0 0)
(191.921 0 0)
(193.267 0 0)
(194.602 0 0)
(195.926 0 0)
(197.24 0 0)
(198.543 0 0)
(199.836 0 0)
(201.118 0 0)
(202.389 0 0)
(203.651 0 0)
(204.902 0 0)
(206.142 0 0)
(207.373 0 0)
(208.593 0 0)
(209.803 0 0)
(211.003 0 0)
(212.193 0 0)
(213.373 0 0)
(214.543 0 0)
(215.703 0 0)
(216.853 0 0)
(217.993 0 0)
(219.124 0 0)
(220.244 0 0)
(221.355 0 0)
(222.457 0 0)
(223.549 0 0)
(224.631 0 0)
(225.704 0 0)
(226.767 0 0)
(227.821 0 0)
(228.865 0 0)
(229.9 0 0)
(230.926 0 0)
(231.942 0 0)
(232.949 0 0)
(233.947 0 0)
(234.936 0 0)
(235.915 0 0)
(236.885 0 0)
(237.849 0 0)
(238.793 0 0)
(239.765 0 0)
(240.612 0 0)
(241.806 0 0)
(141.115 0 0)
(142.78 0 0)
(144.437 0 0)
(146.085 0 0)
(147.725 0 0)
(149.355 0 0)
(150.975 0 0)
(152.586 0 0)
(154.186 0 0)
(155.776 0 0)
(157.356 0 0)
(158.925 0 0)
(160.484 0 0)
(162.032 0 0)
(163.569 0 0)
(165.095 0 0)
(166.611 0 0)
(168.116 0 0)
(169.609 0 0)
(171.092 0 0)
(172.565 0 0)
(174.026 0 0)
(175.477 0 0)
(176.917 0 0)
(178.346 0 0)
(179.764 0 0)
(181.172 0 0)
(182.569 0 0)
(183.956 0 0)
(185.332 0 0)
(186.697 0 0)
(188.052 0 0)
(189.397 0 0)
(190.731 0 0)
(192.055 0 0)
(193.369 0 0)
(194.672 0 0)
(195.966 0 0)
(197.249 0 0)
(198.522 0 0)
(199.784 0 0)
(201.037 0 0)
(202.28 0 0)
(203.513 0 0)
(204.736 0 0)
(205.949 0 0)
(207.153 0 0)
(208.346 0 0)
(209.53 0 0)
(210.704 0 0)
(211.868 0 0)
(213.023 0 0)
(214.168 0 0)
(215.304 0 0)
(216.43 0 0)
(217.546 0 0)
(218.653 0 0)
(219.751 0 0)
(220.839 0 0)
(221.918 0 0)
(222.988 0 0)
(224.048 0 0)
(225.1 0 0)
(226.141 0 0)
(227.174 0 0)
(228.198 0 0)
(229.212 0 0)
(230.218 0 0)
(231.214 0 0)
(232.202 0 0)
(233.18 0 0)
(234.15 0 0)
(235.111 0 0)
(236.062 0 0)
(237.008 0 0)
(237.933 0 0)
(238.886 0 0)
(239.718 0 0)
(240.888 0 0)
(142.686 0 0)
(144.297 0 0)
(145.901 0 0)
(147.497 0 0)
(149.085 0 0)
(150.663 0 0)
(152.233 0 0)
(153.794 0 0)
(155.345 0 0)
(156.887 0 0)
(158.419 0 0)
(159.941 0 0)
(161.453 0 0)
(162.956 0 0)
(164.448 0 0)
(165.931 0 0)
(167.403 0 0)
(168.865 0 0)
(170.317 0 0)
(171.76 0 0)
(173.192 0 0)
(174.613 0 0)
(176.025 0 0)
(177.427 0 0)
(178.818 0 0)
(180.2 0 0)
(181.571 0 0)
(182.933 0 0)
(184.285 0 0)
(185.626 0 0)
(186.958 0 0)
(188.28 0 0)
(189.591 0 0)
(190.893 0 0)
(192.186 0 0)
(193.468 0 0)
(194.741 0 0)
(196.004 0 0)
(197.257 0 0)
(198.501 0 0)
(199.735 0 0)
(200.959 0 0)
(202.174 0 0)
(203.38 0 0)
(204.576 0 0)
(205.762 0 0)
(206.939 0 0)
(208.107 0 0)
(209.265 0 0)
(210.414 0 0)
(211.553 0 0)
(212.683 0 0)
(213.804 0 0)
(214.916 0 0)
(216.019 0 0)
(217.112 0 0)
(218.196 0 0)
(219.271 0 0)
(220.337 0 0)
(221.394 0 0)
(222.442 0 0)
(223.481 0 0)
(224.511 0 0)
(225.532 0 0)
(226.544 0 0)
(227.548 0 0)
(228.542 0 0)
(229.528 0 0)
(230.505 0 0)
(231.473 0 0)
(232.432 0 0)
(233.383 0 0)
(234.325 0 0)
(235.258 0 0)
(236.185 0 0)
(237.093 0 0)
(238.028 0 0)
(238.845 0 0)
(239.99 0 0)
(144.2 0 0)
(145.76 0 0)
(147.313 0 0)
(148.858 0 0)
(150.396 0 0)
(151.925 0 0)
(153.446 0 0)
(154.959 0 0)
(156.463 0 0)
(157.958 0 0)
(159.444 0 0)
(160.921 0 0)
(162.389 0 0)
(163.848 0 0)
(165.297 0 0)
(166.738 0 0)
(168.168 0 0)
(169.59 0 0)
(171.002 0 0)
(172.404 0 0)
(173.798 0 0)
(175.181 0 0)
(176.556 0 0)
(177.921 0 0)
(179.276 0 0)
(180.622 0 0)
(181.958 0 0)
(183.285 0 0)
(184.603 0 0)
(185.911 0 0)
(187.21 0 0)
(188.5 0 0)
(189.78 0 0)
(191.051 0 0)
(192.312 0 0)
(193.565 0 0)
(194.807 0 0)
(196.041 0 0)
(197.266 0 0)
(198.481 0 0)
(199.687 0 0)
(200.884 0 0)
(202.072 0 0)
(203.25 0 0)
(204.42 0 0)
(205.58 0 0)
(206.732 0 0)
(207.874 0 0)
(209.007 0 0)
(210.131 0 0)
(211.247 0 0)
(212.353 0 0)
(213.45 0 0)
(214.539 0 0)
(215.619 0 0)
(216.689 0 0)
(217.751 0 0)
(218.804 0 0)
(219.848 0 0)
(220.884 0 0)
(221.911 0 0)
(222.929 0 0)
(223.938 0 0)
(224.939 0 0)
(225.931 0 0)
(226.914 0 0)
(227.889 0 0)
(228.855 0 0)
(229.813 0 0)
(230.762 0 0)
(231.702 0 0)
(232.635 0 0)
(233.559 0 0)
(234.473 0 0)
(235.383 0 0)
(236.273 0 0)
(237.189 0 0)
(237.992 0 0)
(239.112 0 0)
(145.66 0 0)
(147.171 0 0)
(148.674 0 0)
(150.171 0 0)
(151.66 0 0)
(153.142 0 0)
(154.616 0 0)
(156.083 0 0)
(157.541 0 0)
(158.991 0 0)
(160.434 0 0)
(161.867 0 0)
(163.293 0 0)
(164.709 0 0)
(166.117 0 0)
(167.517 0 0)
(168.908 0 0)
(170.29 0 0)
(171.663 0 0)
(173.028 0 0)
(174.384 0 0)
(175.731 0 0)
(177.069 0 0)
(178.398 0 0)
(179.719 0 0)
(181.03 0 0)
(182.333 0 0)
(183.627 0 0)
(184.912 0 0)
(186.188 0 0)
(187.455 0 0)
(188.713 0 0)
(189.963 0 0)
(191.203 0 0)
(192.435 0 0)
(193.658 0 0)
(194.872 0 0)
(196.078 0 0)
(197.274 0 0)
(198.462 0 0)
(199.641 0 0)
(200.811 0 0)
(201.972 0 0)
(203.125 0 0)
(204.269 0 0)
(205.404 0 0)
(206.53 0 0)
(207.648 0 0)
(208.757 0 0)
(209.857 0 0)
(210.949 0 0)
(212.032 0 0)
(213.107 0 0)
(214.172 0 0)
(215.23 0 0)
(216.278 0 0)
(217.318 0 0)
(218.35 0 0)
(219.373 0 0)
(220.387 0 0)
(221.393 0 0)
(222.391 0 0)
(223.38 0 0)
(224.361 0 0)
(225.333 0 0)
(226.297 0 0)
(227.252 0 0)
(228.199 0 0)
(229.138 0 0)
(230.069 0 0)
(230.991 0 0)
(231.905 0 0)
(232.811 0 0)
(233.708 0 0)
(234.6 0 0)
(235.473 0 0)
(236.371 0 0)
(237.158 0 0)
(238.255 0 0)
(147.068 0 0)
(148.531 0 0)
(149.987 0 0)
(151.436 0 0)
(152.88 0 0)
(154.316 0 0)
(155.745 0 0)
(157.167 0 0)
(158.582 0 0)
(159.989 0 0)
(161.389 0 0)
(162.781 0 0)
(164.165 0 0)
(165.541 0 0)
(166.91 0 0)
(168.27 0 0)
(169.623 0 0)
(170.967 0 0)
(172.303 0 0)
(173.631 0 0)
(174.951 0 0)
(176.262 0 0)
(177.566 0 0)
(178.861 0 0)
(180.147 0 0)
(181.426 0 0)
(182.696 0 0)
(183.957 0 0)
(185.211 0 0)
(186.456 0 0)
(187.692 0 0)
(188.92 0 0)
(190.14 0 0)
(191.351 0 0)
(192.554 0 0)
(193.749 0 0)
(194.935 0 0)
(196.113 0 0)
(197.282 0 0)
(198.443 0 0)
(199.596 0 0)
(200.74 0 0)
(201.876 0 0)
(203.003 0 0)
(204.122 0 0)
(205.233 0 0)
(206.335 0 0)
(207.429 0 0)
(208.514 0 0)
(209.591 0 0)
(210.66 0 0)
(211.72 0 0)
(212.772 0 0)
(213.816 0 0)
(214.851 0 0)
(215.879 0 0)
(216.897 0 0)
(217.908 0 0)
(218.91 0 0)
(219.904 0 0)
(220.89 0 0)
(221.867 0 0)
(222.837 0 0)
(223.798 0 0)
(224.751 0 0)
(225.695 0 0)
(226.632 0 0)
(227.56 0 0)
(228.481 0 0)
(229.393 0 0)
(230.297 0 0)
(231.193 0 0)
(232.081 0 0)
(232.961 0 0)
(233.835 0 0)
(234.691 0 0)
(235.572 0 0)
(236.345 0 0)
(237.418 0 0)
(148.425 0 0)
(149.842 0 0)
(151.252 0 0)
(152.657 0 0)
(154.056 0 0)
(155.448 0 0)
(156.834 0 0)
(158.213 0 0)
(159.586 0 0)
(160.952 0 0)
(162.311 0 0)
(163.663 0 0)
(165.007 0 0)
(166.345 0 0)
(167.675 0 0)
(168.998 0 0)
(170.313 0 0)
(171.621 0 0)
(172.921 0 0)
(174.214 0 0)
(175.499 0 0)
(176.777 0 0)
(178.046 0 0)
(179.308 0 0)
(180.562 0 0)
(181.809 0 0)
(183.047 0 0)
(184.278 0 0)
(185.5 0 0)
(186.715 0 0)
(187.922 0 0)
(189.121 0 0)
(190.312 0 0)
(191.495 0 0)
(192.67 0 0)
(193.837 0 0)
(194.996 0 0)
(196.147 0 0)
(197.29 0 0)
(198.425 0 0)
(199.552 0 0)
(200.671 0 0)
(201.782 0 0)
(202.885 0 0)
(203.98 0 0)
(205.066 0 0)
(206.145 0 0)
(207.216 0 0)
(208.278 0 0)
(209.333 0 0)
(210.379 0 0)
(211.417 0 0)
(212.447 0 0)
(213.47 0 0)
(214.484 0 0)
(215.49 0 0)
(216.488 0 0)
(217.478 0 0)
(218.46 0 0)
(219.434 0 0)
(220.4 0 0)
(221.358 0 0)
(222.308 0 0)
(223.249 0 0)
(224.183 0 0)
(225.109 0 0)
(226.027 0 0)
(226.938 0 0)
(227.84 0 0)
(228.734 0 0)
(229.62 0 0)
(230.499 0 0)
(231.37 0 0)
(232.232 0 0)
(233.089 0 0)
(233.929 0 0)
(234.792 0 0)
(235.551 0 0)
(236.6 0 0)
(149.734 0 0)
(151.106 0 0)
(152.473 0 0)
(153.834 0 0)
(155.19 0 0)
(156.54 0 0)
(157.885 0 0)
(159.223 0 0)
(160.555 0 0)
(161.881 0 0)
(163.201 0 0)
(164.514 0 0)
(165.821 0 0)
(167.121 0 0)
(168.415 0 0)
(169.701 0 0)
(170.981 0 0)
(172.254 0 0)
(173.519 0 0)
(174.778 0 0)
(176.03 0 0)
(177.274 0 0)
(178.511 0 0)
(179.741 0 0)
(180.964 0 0)
(182.179 0 0)
(183.387 0 0)
(184.588 0 0)
(185.781 0 0)
(186.967 0 0)
(188.145 0 0)
(189.316 0 0)
(190.479 0 0)
(191.634 0 0)
(192.782 0 0)
(193.923 0 0)
(195.056 0 0)
(196.181 0 0)
(197.298 0 0)
(198.408 0 0)
(199.51 0 0)
(200.605 0 0)
(201.691 0 0)
(202.77 0 0)
(203.842 0 0)
(204.905 0 0)
(205.961 0 0)
(207.009 0 0)
(208.049 0 0)
(209.081 0 0)
(210.106 0 0)
(211.123 0 0)
(212.132 0 0)
(213.133 0 0)
(214.126 0 0)
(215.112 0 0)
(216.09 0 0)
(217.06 0 0)
(218.022 0 0)
(218.976 0 0)
(219.923 0 0)
(220.862 0 0)
(221.793 0 0)
(222.716 0 0)
(223.631 0 0)
(224.539 0 0)
(225.439 0 0)
(226.331 0 0)
(227.215 0 0)
(228.092 0 0)
(228.961 0 0)
(229.822 0 0)
(230.676 0 0)
(231.521 0 0)
(232.362 0 0)
(233.185 0 0)
(234.031 0 0)
(234.776 0 0)
(235.802 0 0)
(150.996 0 0)
(152.325 0 0)
(153.65 0 0)
(154.969 0 0)
(156.284 0 0)
(157.594 0 0)
(158.898 0 0)
(160.198 0 0)
(161.491 0 0)
(162.779 0 0)
(164.061 0 0)
(165.337 0 0)
(166.607 0 0)
(167.871 0 0)
(169.129 0 0)
(170.381 0 0)
(171.626 0 0)
(172.865 0 0)
(174.098 0 0)
(175.324 0 0)
(176.543 0 0)
(177.755 0 0)
(178.961 0 0)
(180.161 0 0)
(181.353 0 0)
(182.538 0 0)
(183.717 0 0)
(184.888 0 0)
(186.053 0 0)
(187.211 0 0)
(188.361 0 0)
(189.504 0 0)
(190.641 0 0)
(191.77 0 0)
(192.891 0 0)
(194.006 0 0)
(195.113 0 0)
(196.213 0 0)
(197.306 0 0)
(198.392 0 0)
(199.47 0 0)
(200.54 0 0)
(201.604 0 0)
(202.659 0 0)
(203.708 0 0)
(204.749 0 0)
(205.782 0 0)
(206.808 0 0)
(207.826 0 0)
(208.837 0 0)
(209.841 0 0)
(210.837 0 0)
(211.825 0 0)
(212.806 0 0)
(213.779 0 0)
(214.744 0 0)
(215.703 0 0)
(216.653 0 0)
(217.596 0 0)
(218.531 0 0)
(219.459 0 0)
(220.379 0 0)
(221.291 0 0)
(222.196 0 0)
(223.093 0 0)
(223.983 0 0)
(224.865 0 0)
(225.74 0 0)
(226.607 0 0)
(227.466 0 0)
(228.318 0 0)
(229.163 0 0)
(230 0 0)
(230.828 0 0)
(231.652 0 0)
(232.46 0 0)
(233.289 0 0)
(234.02 0 0)
(235.023 0 0)
(152.213 0 0)
(153.501 0 0)
(154.785 0 0)
(156.065 0 0)
(157.34 0 0)
(158.611 0 0)
(159.877 0 0)
(161.138 0 0)
(162.394 0 0)
(163.645 0 0)
(164.891 0 0)
(166.132 0 0)
(167.367 0 0)
(168.596 0 0)
(169.82 0 0)
(171.038 0 0)
(172.25 0 0)
(173.457 0 0)
(174.657 0 0)
(175.851 0 0)
(177.039 0 0)
(178.221 0 0)
(179.397 0 0)
(180.566 0 0)
(181.729 0 0)
(182.886 0 0)
(184.036 0 0)
(185.18 0 0)
(186.316 0 0)
(187.447 0 0)
(188.57 0 0)
(189.687 0 0)
(190.797 0 0)
(191.901 0 0)
(192.997 0 0)
(194.087 0 0)
(195.17 0 0)
(196.245 0 0)
(197.314 0 0)
(198.376 0 0)
(199.43 0 0)
(200.478 0 0)
(201.518 0 0)
(202.552 0 0)
(203.578 0 0)
(204.597 0 0)
(205.609 0 0)
(206.613 0 0)
(207.61 0 0)
(208.601 0 0)
(209.583 0 0)
(210.559 0 0)
(211.527 0 0)
(212.488 0 0)
(213.441 0 0)
(214.387 0 0)
(215.326 0 0)
(216.257 0 0)
(217.181 0 0)
(218.098 0 0)
(219.007 0 0)
(219.909 0 0)
(220.803 0 0)
(221.69 0 0)
(222.57 0 0)
(223.442 0 0)
(224.307 0 0)
(225.164 0 0)
(226.014 0 0)
(226.857 0 0)
(227.692 0 0)
(228.52 0 0)
(229.34 0 0)
(230.153 0 0)
(230.961 0 0)
(231.752 0 0)
(232.564 0 0)
(233.282 0 0)
(234.263 0 0)
(153.387 0 0)
(154.636 0 0)
(155.881 0 0)
(157.122 0 0)
(158.359 0 0)
(159.592 0 0)
(160.822 0 0)
(162.046 0 0)
(163.267 0 0)
(164.482 0 0)
(165.693 0 0)
(166.899 0 0)
(168.101 0 0)
(169.297 0 0)
(170.488 0 0)
(171.673 0 0)
(172.854 0 0)
(174.029 0 0)
(175.198 0 0)
(176.362 0 0)
(177.52 0 0)
(178.672 0 0)
(179.819 0 0)
(180.959 0 0)
(182.094 0 0)
(183.223 0 0)
(184.345 0 0)
(185.462 0 0)
(186.572 0 0)
(187.676 0 0)
(188.773 0 0)
(189.865 0 0)
(190.95 0 0)
(192.028 0 0)
(193.1 0 0)
(194.165 0 0)
(195.224 0 0)
(196.276 0 0)
(197.322 0 0)
(198.36 0 0)
(199.392 0 0)
(200.417 0 0)
(201.436 0 0)
(202.447 0 0)
(203.452 0 0)
(204.449 0 0)
(205.44 0 0)
(206.424 0 0)
(207.401 0 0)
(208.37 0 0)
(209.333 0 0)
(210.289 0 0)
(211.237 0 0)
(212.179 0 0)
(213.113 0 0)
(214.04 0 0)
(214.96 0 0)
(215.873 0 0)
(216.778 0 0)
(217.677 0 0)
(218.568 0 0)
(219.452 0 0)
(220.329 0 0)
(221.198 0 0)
(222.06 0 0)
(222.915 0 0)
(223.763 0 0)
(224.604 0 0)
(225.437 0 0)
(226.263 0 0)
(227.082 0 0)
(227.893 0 0)
(228.698 0 0)
(229.494 0 0)
(230.286 0 0)
(231.062 0 0)
(231.858 0 0)
(232.563 0 0)
(233.522 0 0)
(154.519 0 0)
(155.73 0 0)
(156.937 0 0)
(158.142 0 0)
(159.343 0 0)
(160.54 0 0)
(161.734 0 0)
(162.923 0 0)
(164.109 0 0)
(165.291 0 0)
(166.468 0 0)
(167.641 0 0)
(168.81 0 0)
(169.974 0 0)
(171.133 0 0)
(172.287 0 0)
(173.437 0 0)
(174.582 0 0)
(175.721 0 0)
(176.856 0 0)
(177.985 0 0)
(179.108 0 0)
(180.227 0 0)
(181.34 0 0)
(182.447 0 0)
(183.549 0 0)
(184.645 0 0)
(185.735 0 0)
(186.819 0 0)
(187.898 0 0)
(188.97 0 0)
(190.037 0 0)
(191.097 0 0)
(192.151 0 0)
(193.2 0 0)
(194.241 0 0)
(195.277 0 0)
(196.306 0 0)
(197.329 0 0)
(198.345 0 0)
(199.355 0 0)
(200.359 0 0)
(201.356 0 0)
(202.346 0 0)
(203.33 0 0)
(204.307 0 0)
(205.277 0 0)
(206.24 0 0)
(207.197 0 0)
(208.147 0 0)
(209.09 0 0)
(210.026 0 0)
(210.956 0 0)
(211.878 0 0)
(212.794 0 0)
(213.702 0 0)
(214.604 0 0)
(215.499 0 0)
(216.386 0 0)
(217.267 0 0)
(218.141 0 0)
(219.007 0 0)
(219.867 0 0)
(220.719 0 0)
(221.564 0 0)
(222.403 0 0)
(223.234 0 0)
(224.058 0 0)
(224.875 0 0)
(225.685 0 0)
(226.487 0 0)
(227.283 0 0)
(228.072 0 0)
(228.852 0 0)
(229.629 0 0)
(230.39 0 0)
(231.17 0 0)
(231.861 0 0)
(232.799 0 0)
(155.612 0 0)
(156.786 0 0)
(157.957 0 0)
(159.126 0 0)
(160.292 0 0)
(161.455 0 0)
(162.614 0 0)
(163.77 0 0)
(164.923 0 0)
(166.072 0 0)
(167.217 0 0)
(168.358 0 0)
(169.495 0 0)
(170.628 0 0)
(171.757 0 0)
(172.881 0 0)
(174.001 0 0)
(175.117 0 0)
(176.227 0 0)
(177.333 0 0)
(178.435 0 0)
(179.531 0 0)
(180.622 0 0)
(181.708 0 0)
(182.789 0 0)
(183.865 0 0)
(184.935 0 0)
(186 0 0)
(187.059 0 0)
(188.113 0 0)
(189.161 0 0)
(190.204 0 0)
(191.24 0 0)
(192.271 0 0)
(193.296 0 0)
(194.315 0 0)
(195.328 0 0)
(196.336 0 0)
(197.336 0 0)
(198.331 0 0)
(199.32 0 0)
(200.302 0 0)
(201.278 0 0)