/*--------------------------------*- C++ -*----------------------------------*\
| =========                 |                                                 |
| \\      /  F ield         | OpenFOAM: The Open Source CFD Toolbox           |
|  \\    /   O peration     | Version:  2312                                  |
|   \\  /    A nd           | Website:  www.openfoam.com                      |
|    \\/     M anipulation  |                                                 |
\*---------------------------------------------------------------------------*/
FoamFile
{
    version     2.0;
    format      ascii;
    arch        "LSB;label=32;scalar=64";
    class       volVectorField;
    location    "0.569";
    object      U;
}
// * * * * * * * * * * * * * * * * * * * * * * * * * * * * * * * * * * * * * //

dimensions      [0 1 -1 0 0 0 0];

internalField   nonuniform List<vector> 
31205
(
(296.043 0 0)
(295.468 0 0)
(294.852 0 0)
(294.196 0 0)
(293.499 0 0)
(292.761 0 0)
(291.98 0 0)
(291.156 0 0)
(290.287 0 0)
(289.374 0 0)
(288.414 0 0)
(287.407 0 0)
(286.352 0 0)
(285.246 0 0)
(284.089 0 0)
(282.879 0 0)
(281.613 0 0)
(280.291 0 0)
(278.909 0 0)
(277.466 0 0)
(275.959 0 0)
(274.384 0 0)
(272.739 0 0)
(271.02 0 0)
(269.223 0 0)
(267.343 0 0)
(265.375 0 0)
(263.314 0 0)
(261.152 0 0)
(258.882 0 0)
(256.495 0 0)
(253.98 0 0)
(251.326 0 0)
(248.517 0 0)
(245.535 0 0)
(242.359 0 0)
(238.961 0 0)
(235.305 0 0)
(231.34 0 0)
(226.99 0 0)
(222.191 0 0)
(216.904 0 0)
(210.821 0 0)
(202.53 0 0)
(189.265 0 0)
(169.638 0 0)
(147.324 0 0)
(128.641 0 0)
(116.53 0 0)
(109.905 0 0)
(106.632 0 0)
(105.165 0 0)
(104.648 0 0)
(104.65 0 0)
(104.954 0 0)
(105.446 0 0)
(106.064 0 0)
(106.77 0 0)
(107.542 0 0)
(108.364 0 0)
(109.225 0 0)
(110.117 0 0)
(111.034 0 0)
(111.973 0 0)
(112.929 0 0)
(113.9 0 0)
(114.883 0 0)
(115.876 0 0)
(116.878 0 0)
(117.887 0 0)
(118.903 0 0)
(119.923 0 0)
(120.949 0 0)
(121.976 0 0)
(123.012 0 0)
(124.034 0 0)
(125.108 0 0)
(126.03 0 0)
(127.424 0 0)
(295.43 0 0)
(294.831 0 0)
(294.195 0 0)
(293.52 0 0)
(292.806 0 0)
(292.052 0 0)
(291.257 0 0)
(290.421 0 0)
(289.542 0 0)
(288.621 0 0)
(287.655 0 0)
(286.643 0 0)
(285.585 0 0)
(284.478 0 0)
(283.322 0 0)
(282.115 0 0)
(280.855 0 0)
(279.54 0 0)
(278.169 0 0)
(276.737 0 0)
(275.245 0 0)
(273.687 0 0)
(272.062 0 0)
(270.365 0 0)
(268.593 0 0)
(266.742 0 0)
(264.807 0 0)
(262.781 0 0)
(260.66 0 0)
(258.434 0 0)
(256.097 0 0)
(253.638 0 0)
(251.046 0 0)
(248.307 0 0)
(245.404 0 0)
(242.316 0 0)
(239.019 0 0)
(235.481 0 0)
(231.656 0 0)
(227.476 0 0)
(222.87 0 0)
(217.8 0 0)
(212.103 0 0)
(204.792 0 0)
(193.413 0 0)
(175.725 0 0)
(153.737 0 0)
(133.566 0 0)
(119.52 0 0)
(111.469 0 0)
(107.359 0 0)
(105.429 0 0)
(104.649 0 0)
(104.488 0 0)
(104.679 0 0)
(105.086 0 0)
(105.634 0 0)
(106.28 0 0)
(106.997 0 0)
(107.768 0 0)
(108.582 0 0)
(109.429 0 0)
(110.304 0 0)
(111.201 0 0)
(112.116 0 0)
(113.048 0 0)
(113.992 0 0)
(114.947 0 0)
(115.912 0 0)
(116.885 0 0)
(117.864 0 0)
(118.849 0 0)
(119.84 0 0)
(120.833 0 0)
(121.834 0 0)
(122.822 0 0)
(123.861 0 0)
(124.755 0 0)
(126.1 0 0)
(294.758 0 0)
(294.137 0 0)
(293.481 0 0)
(292.787 0 0)
(292.057 0 0)
(291.287 0 0)
(290.479 0 0)
(289.631 0 0)
(288.743 0 0)
(287.813 0 0)
(286.84 0 0)
(285.823 0 0)
(284.762 0 0)
(283.654 0 0)
(282.499 0 0)
(281.294 0 0)
(280.038 0 0)
(278.73 0 0)
(277.366 0 0)
(275.946 0 0)
(274.465 0 0)
(272.923 0 0)
(271.315 0 0)
(269.639 0 0)
(267.89 0 0)
(266.065 0 0)
(264.158 0 0)
(262.166 0 0)
(260.08 0 0)
(257.895 0 0)
(255.603 0 0)
(253.194 0 0)
(250.658 0 0)
(247.981 0 0)
(245.149 0 0)
(242.141 0 0)
(238.934 0 0)
(235.5 0 0)
(231.798 0 0)
(227.766 0 0)
(223.332 0 0)
(218.452 0 0)
(213.036 0 0)
(206.415 0 0)
(196.536 0 0)
(180.77 0 0)
(159.647 0 0)
(138.541 0 0)
(122.747 0 0)
(113.238 0 0)
(108.224 0 0)
(105.789 0 0)
(104.723 0 0)
(104.388 0 0)
(104.462 0 0)
(104.782 0 0)
(105.259 0 0)
(105.844 0 0)
(106.507 0 0)
(107.229 0 0)
(107.995 0 0)
(108.798 0 0)
(109.63 0 0)
(110.486 0 0)
(111.362 0 0)
(112.254 0 0)
(113.16 0 0)
(114.078 0 0)
(115.007 0 0)
(115.943 0 0)
(116.887 0 0)
(117.837 0 0)
(118.793 0 0)
(119.752 0 0)
(120.72 0 0)
(121.676 0 0)
(122.679 0 0)
(123.546 0 0)
(124.842 0 0)
(294.048 0 0)
(293.407 0 0)
(292.732 0 0)
(292.022 0 0)
(291.275 0 0)
(290.492 0 0)
(289.672 0 0)
(288.813 0 0)
(287.915 0 0)
(286.977 0 0)
(285.999 0 0)
(284.978 0 0)
(283.914 0 0)
(282.805 0 0)
(281.65 0 0)
(280.448 0 0)
(279.197 0 0)
(277.894 0 0)
(276.539 0 0)
(275.129 0 0)
(273.661 0 0)
(272.133 0 0)
(270.542 0 0)
(268.885 0 0)
(267.158 0 0)
(265.357 0 0)
(263.478 0 0)
(261.516 0 0)
(259.465 0 0)
(257.318 0 0)
(255.068 0 0)
(252.706 0 0)
(250.223 0 0)
(247.604 0 0)
(244.837 0 0)
(241.903 0 0)
(238.78 0 0)
(235.442 0 0)
(231.851 0 0)
(227.954 0 0)
(223.679 0 0)
(218.974 0 0)
(213.785 0 0)
(207.674 0 0)
(198.995 0 0)
(185.044 0 0)
(165.15 0 0)
(143.602 0 0)
(126.255 0 0)
(115.248 0 0)
(109.247 0 0)
(106.25 0 0)
(104.868 0 0)
(104.345 0 0)
(104.295 0 0)
(104.524 0 0)
(104.93 0 0)
(105.454 0 0)
(106.063 0 0)
(106.736 0 0)
(107.456 0 0)
(108.215 0 0)
(109.005 0 0)
(109.821 0 0)
(110.657 0 0)
(111.511 0 0)
(112.38 0 0)
(113.262 0 0)
(114.154 0 0)
(115.056 0 0)
(115.965 0 0)
(116.881 0 0)
(117.803 0 0)
(118.728 0 0)
(119.662 0 0)
(120.586 0 0)
(121.556 0 0)
(122.395 0 0)
(123.646 0 0)
(293.31 0 0)
(292.651 0 0)
(291.96 0 0)
(291.234 0 0)
(290.474 0 0)
(289.679 0 0)
(288.847 0 0)
(287.979 0 0)
(287.074 0 0)
(286.13 0 0)
(285.146 0 0)
(284.122 0 0)
(283.056 0 0)
(281.947 0 0)
(280.794 0 0)
(279.595 0 0)
(278.349 0 0)
(277.053 0 0)
(275.706 0 0)
(274.307 0 0)
(272.851 0 0)
(271.338 0 0)
(269.764 0 0)
(268.126 0 0)
(266.421 0 0)
(264.644 0 0)
(262.793 0 0)
(260.861 0 0)
(258.843 0 0)
(256.733 0 0)
(254.525 0 0)
(252.209 0 0)
(249.775 0 0)
(247.214 0 0)
(244.509 0 0)
(241.646 0 0)
(238.604 0 0)
(235.357 0 0)
(231.872 0 0)
(228.101 0 0)
(223.977 0 0)
(219.44 0 0)
(214.452 0 0)
(208.738 0 0)
(201.038 0 0)
(188.787 0 0)
(170.402 0 0)
(148.866 0 0)
(130.162 0 0)
(117.592 0 0)
(110.483 0 0)
(106.837 0 0)
(105.093 0 0)
(104.358 0 0)
(104.173 0 0)
(104.307 0 0)
(104.638 0 0)
(105.1 0 0)
(105.655 0 0)
(106.278 0 0)
(106.952 0 0)
(107.668 0 0)
(108.417 0 0)
(109.192 0 0)
(109.99 0 0)
(110.806 0 0)
(111.639 0 0)
(112.484 0 0)
(113.341 0 0)
(114.208 0 0)
(115.083 0 0)
(115.965 0 0)
(116.854 0 0)
(117.747 0 0)
(118.649 0 0)
(119.541 0 0)
(120.477 0 0)
(121.289 0 0)
(122.497 0 0)
(292.55 0 0)
(291.876 0 0)
(291.169 0 0)
(290.43 0 0)
(289.658 0 0)
(288.852 0 0)
(288.012 0 0)
(287.136 0 0)
(286.224 0 0)
(285.275 0 0)
(284.288 0 0)
(283.262 0 0)
(282.196 0 0)
(281.088 0 0)
(279.937 0 0)
(278.743 0 0)
(277.502 0 0)
(276.214 0 0)
(274.877 0 0)
(273.488 0 0)
(272.046 0 0)
(270.548 0 0)
(268.991 0 0)
(267.373 0 0)
(265.689 0 0)
(263.937 0 0)
(262.113 0 0)
(260.211 0 0)
(258.227 0 0)
(256.154 0 0)
(253.986 0 0)
(251.715 0 0)
(249.331 0 0)
(246.825 0 0)
(244.182 0 0)
(241.388 0 0)
(238.424 0 0)
(235.265 0 0)
(231.882 0 0)
(228.232 0 0)
(224.252 0 0)
(219.88 0 0)
(215.077 0 0)
(209.683 0 0)
(202.78 0 0)
(192.09 0 0)
(175.416 0 0)
(154.353 0 0)
(134.547 0 0)
(120.359 0 0)
(111.992 0 0)
(107.584 0 0)
(105.413 0 0)
(104.433 0 0)
(104.097 0 0)
(104.127 0 0)
(104.38 0 0)
(104.778 0 0)
(105.277 0 0)
(105.85 0 0)
(106.479 0 0)
(107.151 0 0)
(107.858 0 0)
(108.594 0 0)
(109.354 0 0)
(110.133 0 0)
(110.929 0 0)
(111.74 0 0)
(112.562 0 0)
(113.395 0 0)
(114.236 0 0)
(115.085 0 0)
(115.941 0 0)
(116.802 0 0)
(117.672 0 0)
(118.533 0 0)
(119.437 0 0)
(120.221 0 0)
(121.388 0 0)
(291.772 0 0)
(291.083 0 0)
(290.364 0 0)
(289.613 0 0)
(288.831 0 0)
(288.016 0 0)
(287.168 0 0)
(286.287 0 0)
(285.37 0 0)
(284.417 0 0)
(283.428 0 0)
(282.401 0 0)
(281.336 0 0)
(280.23 0 0)
(279.083 0 0)
(277.894 0 0)
(276.66 0 0)
(275.38 0 0)
(274.053 0 0)
(272.676 0 0)
(271.248 0 0)
(269.766 0 0)
(268.227 0 0)
(266.628 0 0)
(264.967 0 0)
(263.24 0 0)
(261.443 0 0)
(259.571 0 0)
(257.62 0 0)
(255.584 0 0)
(253.456 0 0)
(251.23 0 0)
(248.895 0 0)
(246.443 0 0)
(243.861 0 0)
(241.135 0 0)
(238.246 0 0)
(235.174 0 0)
(231.889 0 0)
(228.355 0 0)
(224.515 0 0)
(220.303 0 0)
(215.678 0 0)
(210.549 0 0)
(204.286 0 0)
(194.983 0 0)
(180.132 0 0)
(159.995 0 0)
(139.43 0 0)
(123.623 0 0)
(113.84 0 0)
(108.531 0 0)
(105.85 0 0)
(104.583 0 0)
(104.073 0 0)
(103.988 0 0)
(104.156 0 0)
(104.487 0 0)
(104.929 0 0)
(105.451 0 0)
(106.034 0 0)
(106.663 0 0)
(107.329 0 0)
(108.026 0 0)
(108.747 0 0)
(109.49 0 0)
(110.25 0 0)
(111.026 0 0)
(111.814 0 0)
(112.613 0 0)
(113.421 0 0)
(114.238 0 0)
(115.062 0 0)
(115.891 0 0)
(116.729 0 0)
(117.559 0 0)
(118.432 0 0)
(119.19 0 0)
(120.315 0 0)
(290.977 0 0)
(290.276 0 0)
(289.546 0 0)
(288.786 0 0)
(287.995 0 0)
(287.173 0 0)
(286.319 0 0)
(285.432 0 0)
(284.512 0 0)
(283.557 0 0)
(282.567 0 0)
(281.541 0 0)
(280.477 0 0)
(279.375 0 0)
(278.232 0 0)
(277.049 0 0)
(275.823 0 0)
(274.553 0 0)
(273.236 0 0)
(271.872 0 0)
(270.458 0 0)
(268.992 0 0)
(267.471 0 0)
(265.893 0 0)
(264.255 0 0)
(262.553 0 0)
(260.783 0 0)
(258.941 0 0)
(257.024 0 0)
(255.024 0 0)
(252.937 0 0)
(250.754 0 0)
(248.469 0 0)
(246.07 0 0)
(243.548 0 0)
(240.888 0 0)
(238.074 0 0)
(235.085 0 0)
(231.896 0 0)
(228.474 0 0)
(224.767 0 0)
(220.712 0 0)
(216.26 0 0)
(211.357 0 0)
(205.6 0 0)
(197.486 0 0)
(184.471 0 0)
(165.67 0 0)
(144.784 0 0)
(127.443 0 0)
(116.095 0 0)
(109.724 0 0)
(106.43 0 0)
(104.819 0 0)
(104.108 0 0)
(103.893 0 0)
(103.97 0 0)
(104.229 0 0)
(104.612 0 0)
(105.082 0 0)
(105.617 0 0)
(106.203 0 0)
(106.828 0 0)
(107.486 0 0)
(108.17 0 0)
(108.876 0 0)
(109.601 0 0)
(110.341 0 0)
(111.096 0 0)
(111.862 0 0)
(112.638 0 0)
(113.422 0 0)
(114.215 0 0)
(115.012 0 0)
(115.82 0 0)
(116.62 0 0)
(117.461 0 0)
(118.193 0 0)
(119.278 0 0)
(290.167 0 0)
(289.456 0 0)
(288.717 0 0)
(287.949 0 0)
(287.151 0 0)
(286.323 0 0)
(285.465 0 0)
(284.574 0 0)
(283.652 0 0)
(282.696 0 0)
(281.707 0 0)
(280.682 0 0)
(279.621 0 0)
(278.523 0 0)
(277.386 0 0)
(276.21 0 0)
(274.992 0 0)
(273.732 0 0)
(272.427 0 0)
(271.076 0 0)
(269.677 0 0)
(268.228 0 0)
(266.726 0 0)
(265.168 0 0)
(263.553 0 0)
(261.876 0 0)
(260.134 0 0)
(258.323 0 0)
(256.438 0 0)
(254.475 0 0)
(252.427 0 0)
(250.289 0 0)
(248.051 0 0)
(245.706 0 0)
(243.242 0 0)
(240.647 0 0)
(237.906 0 0)
(234.998 0 0)
(231.903 0 0)
(228.588 0 0)
(225.009 0 0)
(221.106 0 0)
(216.823 0 0)
(212.123 0 0)
(206.763 0 0)
(199.632 0 0)
(188.368 0 0)
(171.23 0 0)
(150.53 0 0)
(131.856 0 0)
(118.83 0 0)
(111.218 0 0)
(107.184 0 0)
(105.159 0 0)
(104.21 0 0)
(103.847 0 0)
(103.822 0 0)
(104.006 0 0)
(104.326 0 0)
(104.743 0 0)
(105.23 0 0)
(105.771 0 0)
(106.355 0 0)
(106.974 0 0)
(107.62 0 0)
(108.29 0 0)
(108.98 0 0)
(109.686 0 0)
(110.407 0 0)
(111.141 0 0)
(111.884 0 0)
(112.637 0 0)
(113.399 0 0)
(114.166 0 0)
(114.943 0 0)
(115.714 0 0)
(116.524 0 0)
(117.23 0 0)
(118.276 0 0)
(289.346 0 0)
(288.626 0 0)
(287.879 0 0)
(287.104 0 0)
(286.301 0 0)
(285.468 0 0)
(284.607 0 0)
(283.714 0 0)
(282.791 0 0)
(281.835 0 0)
(280.847 0 0)
(279.825 0 0)
(278.768 0 0)
(277.675 0 0)
(276.544 0 0)
(275.376 0 0)
(274.168 0 0)
(272.918 0 0)
(271.626 0 0)
(270.289 0 0)
(268.905 0 0)
(267.473 0 0)
(265.99 0 0)
(264.454 0 0)
(262.861 0 0)
(261.21 0 0)
(259.495 0 0)
(257.715 0 0)
(255.863 0 0)
(253.936 0 0)
(251.928 0 0)
(249.833 0 0)
(247.643 0 0)
(245.35 0 0)
(242.943 0 0)
(240.412 0 0)
(237.742 0 0)
(234.914 0 0)
(231.909 0 0)
(228.697 0 0)
(225.241 0 0)
(221.484 0 0)
(217.367 0 0)
(212.855 0 0)
(207.811 0 0)
(201.465 0 0)
(191.788 0 0)
(176.523 0 0)
(156.545 0 0)
(136.87 0 0)
(122.119 0 0)
(113.079 0 0)
(108.153 0 0)
(105.624 0 0)
(104.391 0 0)
(103.856 0 0)
(103.718 0 0)
(103.818 0 0)
(104.073 0 0)
(104.434 0 0)
(104.872 0 0)
(105.368 0 0)
(105.911 0 0)
(106.49 0 0)
(107.099 0 0)
(107.733 0 0)
(108.388 0 0)
(109.061 0 0)
(109.749 0 0)
(110.449 0 0)
(111.162 0 0)
(111.884 0 0)
(112.614 0 0)
(113.351 0 0)
(114.098 0 0)
(114.84 0 0)
(115.62 0 0)
(116.3 0 0)
(117.308 0 0)
(288.513 0 0)
(287.786 0 0)
(287.033 0 0)
(286.253 0 0)
(285.445 0 0)
(284.61 0 0)
(283.746 0 0)
(282.853 0 0)
(281.929 0 0)
(280.975 0 0)
(279.989 0 0)
(278.97 0 0)
(277.918 0 0)
(276.831 0 0)
(275.708 0 0)
(274.548 0 0)
(273.35 0 0)
(272.112 0 0)
(270.832 0 0)
(269.509 0 0)
(268.142 0 0)
(266.728 0 0)
(265.264 0 0)
(263.749 0 0)
(262.18 0 0)
(260.554 0 0)
(258.868 0 0)
(257.117 0 0)
(255.299 0 0)
(253.408 0 0)
(251.439 0 0)
(249.386 0 0)
(247.243 0 0)
(245.001 0 0)
(242.652 0 0)
(240.183 0 0)
(237.582 0 0)
(234.832 0 0)
(231.914 0 0)
(228.803 0 0)
(225.464 0 0)
(221.847 0 0)
(217.892 0 0)
(213.559 0 0)
(208.773 0 0)
(203.037 0 0)
(194.73 0 0)
(181.415 0 0)
(162.666 0 0)
(142.451 0 0)
(126.029 0 0)
(115.382 0 0)
(109.387 0 0)
(106.243 0 0)
(104.665 0 0)
(103.928 0 0)
(103.66 0 0)
(103.669 0 0)
(103.853 0 0)
(104.156 0 0)
(104.543 0 0)
(104.994 0 0)
(105.495 0 0)
(106.034 0 0)
(106.606 0 0)
(107.204 0 0)
(107.824 0 0)
(108.464 0 0)
(109.119 0 0)
(109.788 0 0)
(110.469 0 0)
(111.16 0 0)
(111.86 0 0)
(112.568 0 0)
(113.285 0 0)
(113.998 0 0)
(114.749 0 0)
(115.404 0 0)
(116.374 0 0)
(287.672 0 0)
(286.939 0 0)
(286.181 0 0)
(285.397 0 0)
(284.586 0 0)
(283.749 0 0)
(282.884 0 0)
(281.991 0 0)
(281.069 0 0)
(280.117 0 0)
(279.134 0 0)
(278.12 0 0)
(277.073 0 0)
(275.993 0 0)
(274.878 0 0)
(273.727 0 0)
(272.539 0 0)
(271.313 0 0)
(270.047 0 0)
(268.739 0 0)
(267.388 0 0)
(265.992 0 0)
(264.548 0 0)
(263.055 0 0)
(261.509 0 0)
(259.909 0 0)
(258.25 0 0)
(256.53 0 0)
(254.745 0 0)
(252.889 0 0)
(250.959 0 0)
(248.949 0 0)
(246.852 0 0)
(244.661 0 0)
(242.367 0 0)
(239.959 0 0)
(237.426 0 0)
(234.752 0 0)
(231.919 0 0)
(228.904 0 0)
(225.678 0 0)
(222.194 0 0)
(218.397 0 0)
(214.237 0 0)
(209.672 0 0)
(204.403 0 0)
(197.225 0 0)
(185.805 0 0)
(168.706 0 0)
(148.514 0 0)
(130.61 0 0)
(118.214 0 0)
(110.949 0 0)
(107.052 0 0)
(105.052 0 0)
(104.073 0 0)
(103.655 0 0)
(103.561 0 0)
(103.669 0 0)
(103.91 0 0)
(104.245 0 0)
(104.65 0 0)
(105.107 0 0)
(105.607 0 0)
(106.141 0 0)
(106.704 0 0)
(107.289 0 0)
(107.895 0 0)
(108.518 0 0)
(109.155 0 0)
(109.805 0 0)
(110.466 0 0)
(111.137 0 0)
(111.815 0 0)
(112.503 0 0)
(113.188 0 0)
(113.91 0 0)
(114.54 0 0)
(115.473 0 0)
(286.824 0 0)
(286.086 0 0)
(285.324 0 0)
(284.537 0 0)
(283.725 0 0)
(282.887 0 0)
(282.022 0 0)
(281.13 0 0)
(280.21 0 0)
(279.261 0 0)
(278.282 0 0)
(277.273 0 0)
(276.233 0 0)
(275.16 0 0)
(274.054 0 0)
(272.913 0 0)
(271.736 0 0)
(270.523 0 0)
(269.27 0 0)
(267.978 0 0)
(266.644 0 0)
(265.266 0 0)
(263.842 0 0)
(262.37 0 0)
(260.849 0 0)
(259.274 0 0)
(257.643 0 0)
(255.953 0 0)
(254.201 0 0)
(252.381 0 0)
(250.49 0 0)
(248.521 0 0)
(246.47 0 0)
(244.328 0 0)
(242.088 0 0)
(239.741 0 0)
(237.274 0 0)
(234.674 0 0)
(231.923 0 0)
(229.002 0 0)
(225.883 0 0)
(222.527 0 0)
(218.88 0 0)
(214.891 0 0)
(210.523 0 0)
(205.612 0 0)
(199.327 0 0)
(189.638 0 0)
(174.471 0 0)
(154.915 0 0)
(135.878 0 0)
(121.664 0 0)
(112.917 0 0)
(108.098 0 0)
(105.577 0 0)
(104.304 0 0)
(103.709 0 0)
(103.499 0 0)
(103.523 0 0)
(103.698 0 0)
(103.978 0 0)
(104.334 0 0)
(104.749 0 0)
(105.208 0 0)
(105.705 0 0)
(106.231 0 0)
(106.782 0 0)
(107.355 0 0)
(107.946 0 0)
(108.552 0 0)
(109.171 0 0)
(109.802 0 0)
(110.443 0 0)
(111.092 0 0)
(111.752 0 0)
(112.41 0 0)
(113.102 0 0)
(113.709 0 0)
(114.605 0 0)
(285.969 0 0)
(285.228 0 0)
(284.463 0 0)
(283.675 0 0)
(282.862 0 0)
(282.024 0 0)
(281.16 0 0)
(280.27 0 0)
(279.353 0 0)
(278.408 0 0)
(277.434 0 0)
(276.431 0 0)
(275.398 0 0)
(274.334 0 0)
(273.237 0 0)
(272.106 0 0)
(270.942 0 0)
(269.741 0 0)
(268.503 0 0)
(267.226 0 0)
(265.909 0 0)
(264.549 0 0)
(263.146 0 0)
(261.697 0 0)
(260.199 0 0)
(258.65 0 0)
(257.047 0 0)
(255.387 0 0)
(253.667 0 0)
(251.882 0 0)
(250.029 0 0)
(248.102 0 0)
(246.096 0 0)
(244.003 0 0)
(241.817 0 0)
(239.528 0 0)
(237.126 0 0)
(234.597 0 0)
(231.927 0 0)
(229.096 0 0)
(226.08 0 0)
(222.845 0 0)
(219.343 0 0)
(215.52 0 0)
(211.336 0 0)
(206.708 0 0)
(201.104 0 0)
(192.906 0 0)
(179.788 0 0)
(161.46 0 0)
(141.798 0 0)
(125.814 0 0)
(115.384 0 0)
(109.443 0 0)
(106.275 0 0)
(104.639 0 0)
(103.831 0 0)
(103.487 0 0)
(103.417 0 0)
(103.522 0 0)
(103.743 0 0)
(104.05 0 0)
(104.419 0 0)
(104.838 0 0)
(105.296 0 0)
(105.786 0 0)
(106.303 0 0)
(106.843 0 0)
(107.402 0 0)
(107.976 0 0)
(108.566 0 0)
(109.167 0 0)
(109.779 0 0)
(110.4 0 0)
(111.032 0 0)
(111.662 0 0)
(112.326 0 0)
(112.908 0 0)
(113.769 0 0)
(285.11 0 0)
(284.366 0 0)
(283.6 0 0)
(282.811 0 0)
(281.999 0 0)
(281.162 0 0)
(280.3 0 0)
(279.413 0 0)
(278.499 0 0)
(277.559 0 0)
(276.591 0 0)
(275.595 0 0)
(274.57 0 0)
(273.514 0 0)
(272.427 0 0)
(271.308 0 0)
(270.155 0 0)
(268.968 0 0)
(267.744 0 0)
(266.483 0 0)
(265.184 0 0)
(263.843 0 0)
(262.461 0 0)
(261.033 0 0)
(259.559 0 0)
(258.036 0 0)
(256.461 0 0)
(254.831 0 0)
(253.143 0 0)
(251.394 0 0)
(249.578 0 0)
(247.692 0 0)
(245.73 0 0)
(243.685 0 0)
(241.552 0 0)
(239.32 0 0)
(236.981 0 0)
(234.522 0 0)
(231.93 0 0)
(229.187 0 0)
(226.27 0 0)
(223.151 0 0)
(219.786 0 0)
(216.123 0 0)
(212.117 0 0)
(207.721 0 0)
(202.626 0 0)
(195.643 0 0)
(184.528 0 0)
(167.916 0 0)
(148.266 0 0)
(130.727 0 0)
(118.452 0 0)
(111.162 0 0)
(107.189 0 0)
(105.101 0 0)
(104.035 0 0)
(103.533 0 0)
(103.357 0 0)
(103.382 0 0)
(103.542 0 0)
(103.796 0 0)
(104.119 0 0)
(104.496 0 0)
(104.916 0 0)
(105.37 0 0)
(105.852 0 0)
(106.359 0 0)
(106.886 0 0)
(107.43 0 0)
(107.989 0 0)
(108.561 0 0)
(109.144 0 0)
(109.737 0 0)
(110.341 0 0)
(110.944 0 0)
(111.58 0 0)
(112.139 0 0)
(112.964 0 0)
(284.248 0 0)
(283.503 0 0)
(282.736 0 0)
(281.948 0 0)
(281.136 0 0)
(280.301 0 0)
(279.442 0 0)
(278.559 0 0)
(277.65 0 0)
(276.715 0 0)
(275.754 0 0)
(274.765 0 0)
(273.748 0 0)
(272.701 0 0)
(271.625 0 0)
(270.517 0 0)
(269.377 0 0)
(268.203 0 0)
(266.995 0 0)
(265.751 0 0)
(264.469 0 0)
(263.148 0 0)
(261.785 0 0)
(260.38 0 0)
(258.93 0 0)
(257.433 0 0)
(255.886 0 0)
(254.286 0 0)
(252.63 0 0)
(250.915 0 0)
(249.137 0 0)
(247.291 0 0)
(245.372 0 0)
(243.375 0 0)
(241.293 0 0)
(239.117 0 0)
(236.84 0 0)
(234.449 0 0)
(231.933 0 0)
(229.274 0 0)
(226.453 0 0)
(223.443 0 0)
(220.209 0 0)
(216.7 0 0)
(212.867 0 0)
(208.674 0 0)
(203.958 0 0)
(197.918 0 0)
(188.619 0 0)
(174.044 0 0)
(155.105 0 0)
(136.416 0 0)
(122.23 0 0)
(113.353 0 0)
(108.379 0 0)
(105.723 0 0)
(104.338 0 0)
(103.645 0 0)
(103.345 0 0)
(103.284 0 0)
(103.376 0 0)
(103.575 0 0)
(103.85 0 0)
(104.184 0 0)
(104.564 0 0)
(104.982 0 0)
(105.429 0 0)
(105.903 0 0)
(106.398 0 0)
(106.911 0 0)
(107.44 0 0)
(107.983 0 0)
(108.538 0 0)
(109.103 0 0)
(109.679 0 0)
(110.255 0 0)
(110.865 0 0)
(111.4 0 0)
(112.191 0 0)
(283.383 0 0)
(282.638 0 0)
(281.872 0 0)
(281.084 0 0)
(280.275 0 0)
(279.443 0 0)
(278.587 0 0)
(277.708 0 0)
(276.805 0 0)
(275.876 0 0)
(274.922 0 0)
(273.941 0 0)
(272.933 0 0)
(271.896 0 0)
(270.831 0 0)
(269.735 0 0)
(268.608 0 0)
(267.448 0 0)
(266.256 0 0)
(265.028 0 0)
(263.764 0 0)
(262.462 0 0)
(261.121 0 0)
(259.738 0 0)
(258.312 0 0)
(256.84 0 0)
(255.321 0 0)
(253.75 0 0)
(252.127 0 0)
(250.446 0 0)
(248.704 0 0)
(246.898 0 0)
(245.023 0 0)
(243.072 0 0)
(241.04 0 0)
(238.92 0 0)
(236.702 0 0)
(234.378 0 0)
(231.935 0 0)
(229.358 0 0)
(226.628 0 0)
(223.725 0 0)
(220.614 0 0)
(217.251 0 0)
(213.586 0 0)
(209.582 0 0)
(205.156 0 0)
(199.816 0 0)
(192.056 0 0)
(179.634 0 0)
(162.066 0 0)
(142.827 0 0)
(126.813 0 0)
(116.127 0 0)
(109.922 0 0)
(106.549 0 0)
(104.761 0 0)
(103.835 0 0)
(103.39 0 0)
(103.23 0 0)
(103.248 0 0)
(103.387 0 0)
(103.612 0 0)
(103.902 0 0)
(104.242 0 0)
(104.622 0 0)
(105.034 0 0)
(105.474 0 0)
(105.937 0 0)
(106.42 0 0)
(106.919 0 0)
(107.433 0 0)
(107.96 0 0)
(108.497 0 0)
(109.047 0 0)
(109.597 0 0)
(110.179 0 0)
(110.691 0 0)
(111.448 0 0)
(282.517 0 0)
(281.773 0 0)
(281.008 0 0)
(280.223 0 0)
(279.416 0 0)
(278.587 0 0)
(277.736 0 0)
(276.862 0 0)
(275.965 0 0)
(275.043 0 0)
(274.096 0 0)
(273.124 0 0)
(272.125 0 0)
(271.099 0 0)
(270.045 0 0)
(268.961 0 0)
(267.848 0 0)
(266.703 0 0)
(265.526 0 0)
(264.315 0 0)
(263.069 0 0)
(261.787 0 0)
(260.466 0 0)
(259.106 0 0)
(257.704 0 0)
(256.258 0 0)
(254.766 0 0)
(253.225 0 0)
(251.633 0 0)
(249.986 0 0)
(248.281 0 0)
(246.514 0 0)
(244.681 0 0)
(242.776 0 0)
(240.793 0 0)
(238.727 0 0)
(236.568 0 0)
(234.308 0 0)
(231.936 0 0)
(229.438 0 0)
(226.798 0 0)
(223.995 0 0)
(221.001 0 0)
(217.778 0 0)
(214.274 0 0)
(210.45 0 0)
(206.259 0 0)
(201.428 0 0)
(194.89 0 0)
(184.539 0 0)
(168.861 0 0)
(149.814 0 0)
(132.264 0 0)
(119.612 0 0)
(111.916 0 0)
(107.636 0 0)
(105.337 0 0)
(104.121 0 0)
(103.501 0 0)
(103.225 0 0)
(103.16 0 0)
(103.235 0 0)
(103.406 0 0)
(103.65 0 0)
(103.948 0 0)
(104.29 0 0)
(104.668 0 0)
(105.074 0 0)
(105.505 0 0)
(105.957 0 0)
(106.427 0 0)
(106.912 0 0)
(107.411 0 0)
(107.921 0 0)
(108.443 0 0)
(108.967 0 0)
(109.522 0 0)
(110.012 0 0)
(110.735 0 0)
(281.652 0 0)
(280.908 0 0)
(280.146 0 0)
(279.363 0 0)
(278.56 0 0)
(277.736 0 0)
(276.89 0 0)
(276.022 0 0)
(275.131 0 0)
(274.216 0 0)
(273.278 0 0)
(272.314 0 0)
(271.325 0 0)
(270.31 0 0)
(269.268 0 0)
(268.197 0 0)
(267.097 0 0)
(265.967 0 0)
(264.806 0 0)
(263.612 0 0)
(262.385 0 0)
(261.122 0 0)
(259.823 0 0)
(258.485 0 0)
(257.107 0 0)
(255.686 0 0)
(254.222 0 0)
(252.71 0 0)
(251.149 0 0)
(249.536 0 0)
(247.867 0 0)
(246.139 0 0)
(244.347 0 0)
(242.487 0 0)
(240.553 0 0)
(238.539 0 0)
(236.438 0 0)
(234.24 0 0)
(231.937 0 0)
(229.516 0 0)
(226.961 0 0)
(224.254 0 0)
(221.372 0 0)
(218.28 0 0)
(214.932 0 0)
(211.281 0 0)
(207.294 0 0)
(202.833 0 0)
(197.214 0 0)
(188.69 0 0)
(175.204 0 0)
(157.133 0 0)
(138.575 0 0)
(123.933 0 0)
(114.481 0 0)
(109.061 0 0)
(106.108 0 0)
(104.524 0 0)
(103.688 0 0)
(103.276 0 0)
(103.117 0 0)
(103.12 0 0)
(103.235 0 0)
(103.43 0 0)
(103.685 0 0)
(103.988 0 0)
(104.329 0 0)
(104.702 0 0)
(105.101 0 0)
(105.522 0 0)
(105.962 0 0)
(106.418 0 0)
(106.889 0 0)
(107.372 0 0)
(107.868 0 0)
(108.366 0 0)
(108.895 0 0)
(109.363 0 0)
(110.053 0 0)
(280.787 0 0)
(280.046 0 0)
(279.286 0 0)
(278.507 0 0)
(277.708 0 0)
(276.889 0 0)
(276.049 0 0)
(275.187 0 0)
(274.303 0 0)
(273.396 0 0)
(272.466 0 0)
(271.513 0 0)
(270.534 0 0)
(269.53 0 0)
(268.499 0 0)
(267.442 0 0)
(266.356 0 0)
(265.241 0 0)
(264.096 0 0)
(262.92 0 0)
(261.711 0 0)
(260.468 0 0)
(259.189 0 0)
(257.874 0 0)
(256.52 0 0)
(255.125 0 0)
(253.688 0 0)
(252.205 0 0)
(250.676 0 0)
(249.095 0 0)
(247.462 0 0)
(245.772 0 0)
(244.021 0 0)
(242.204 0 0)
(240.318 0 0)
(238.355 0 0)
(236.31 0 0)
(234.174 0 0)
(231.938 0 0)
(229.591 0 0)
(227.118 0 0)
(224.504 0 0)
(221.728 0 0)
(218.759 0 0)
(215.558 0 0)
(212.076 0 0)
(208.277 0 0)
(204.095 0 0)
(199.136 0 0)
(192.107 0 0)
(180.863 0 0)
(164.463 0 0)
(145.64 0 0)
(129.191 0 0)
(117.761 0 0)
(110.927 0 0)
(107.133 0 0)
(105.076 0 0)
(103.97 0 0)
(103.392 0 0)
(103.123 0 0)
(103.047 0 0)
(103.099 0 0)
(103.242 0 0)
(103.453 0 0)
(103.715 0 0)
(104.02 0 0)
(104.358 0 0)
(104.724 0 0)
(105.114 0 0)
(105.525 0 0)
(105.953 0 0)
(106.396 0 0)
(106.851 0 0)
(107.321 0 0)
(107.794 0 0)
(108.296 0 0)
(108.742 0 0)
(109.399 0 0)
(279.924 0 0)
(279.186 0 0)
(278.43 0 0)
(277.655 0 0)
(276.861 0 0)
(276.047 0 0)
(275.213 0 0)
(274.358 0 0)
(273.482 0 0)
(272.583 0 0)
(271.663 0 0)
(270.719 0 0)
(269.751 0 0)
(268.758 0 0)
(267.74 0 0)
(266.696 0 0)
(265.625 0 0)
(264.525 0 0)
(263.397 0 0)
(262.238 0 0)
(261.047 0 0)
(259.824 0 0)
(258.567 0 0)
(257.274 0 0)
(255.944 0 0)
(254.574 0 0)
(253.164 0 0)
(251.71 0 0)
(250.211 0 0)
(248.664 0 0)
(247.066 0 0)
(245.413 0 0)
(243.702 0 0)
(241.929 0 0)
(240.089 0 0)
(238.177 0 0)
(236.186 0 0)
(234.109 0 0)
(231.938 0 0)
(229.663 0 0)
(227.27 0 0)
(224.745 0 0)
(222.069 0 0)
(219.217 0 0)
(216.154 0 0)
(212.834 0 0)
(209.215 0 0)
(205.26 0 0)
(200.765 0 0)
(194.874 0 0)
(185.696 0 0)
(171.45 0 0)
(153.229 0 0)
(135.423 0 0)
(121.905 0 0)
(113.363 0 0)
(108.492 0 0)
(105.821 0 0)
(104.369 0 0)
(103.586 0 0)
(103.187 0 0)
(103.019 0 0)
(103.003 0 0)
(103.09 0 0)
(103.253 0 0)
(103.473 0 0)
(103.739 0 0)
(104.042 0 0)
(104.376 0 0)
(104.735 0 0)
(105.115 0 0)
(105.514 0 0)
(105.93 0 0)
(106.359 0 0)
(106.802 0 0)
(107.249 0 0)
(107.726 0 0)
(108.149 0 0)
(108.775 0 0)
(279.063 0 0)
(278.329 0 0)
(277.577 0 0)
(276.807 0 0)
(276.018 0 0)
(275.21 0 0)
(274.383 0 0)
(273.536 0 0)
(272.667 0 0)
(271.778 0 0)
(270.867 0 0)
(269.933 0 0)
(268.977 0 0)
(267.996 0 0)
(266.991 0 0)
(265.96 0 0)
(264.904 0 0)
(263.82 0 0)
(262.707 0 0)
(261.566 0 0)
(260.394 0 0)
(259.191 0 0)
(257.955 0 0)
(256.684 0 0)
(255.378 0 0)
(254.034 0 0)
(252.65 0 0)
(251.225 0 0)
(249.757 0 0)
(248.242 0 0)
(246.678 0 0)
(245.062 0 0)
(243.391 0 0)
(241.66 0 0)
(239.866 0 0)
(238.003 0 0)
(236.065 0 0)
(234.046 0 0)
(231.938 0 0)
(229.732 0 0)
(227.416 0 0)
(224.976 0 0)
(222.397 0 0)
(219.655 0 0)
(216.722 0 0)
(213.555 0 0)
(210.111 0 0)
(206.355 0 0)
(202.193 0 0)
(197.117 0 0)
(189.674 0 0)
(177.775 0 0)
(160.996 0 0)
(142.562 0 0)
(127.049 0 0)
(116.525 0 0)
(110.291 0 0)
(106.82 0 0)
(104.917 0 0)
(103.876 0 0)
(103.317 0 0)
(103.042 0 0)
(102.948 0 0)
(102.974 0 0)
(103.086 0 0)
(103.262 0 0)
(103.489 0 0)
(103.756 0 0)
(104.056 0 0)
(104.383 0 0)
(104.734 0 0)
(105.104 0 0)
(105.492 0 0)
(105.894 0 0)
(106.311 0 0)
(106.733 0 0)
(107.184 0 0)
(107.586 0 0)
(108.179 0 0)
(278.206 0 0)
(277.476 0 0)
(276.729 0 0)
(275.964 0 0)
(275.181 0 0)
(274.38 0 0)
(273.56 0 0)
(272.72 0 0)
(271.861 0 0)
(270.981 0 0)
(270.08 0 0)
(269.157 0 0)
(268.211 0 0)
(267.243 0 0)
(266.251 0 0)
(265.234 0 0)
(264.192 0 0)
(263.124 0 0)
(262.029 0 0)
(260.905 0 0)
(259.752 0 0)
(258.569 0 0)
(257.353 0 0)
(256.105 0 0)
(254.822 0 0)
(253.504 0 0)
(252.147 0 0)
(250.75 0 0)
(249.311 0 0)
(247.828 0 0)
(246.299 0 0)
(244.719 0 0)
(243.087 0 0)
(241.398 0 0)
(239.648 0 0)
(237.833 0 0)
(235.947 0 0)
(233.984 0 0)
(231.938 0 0)
(229.798 0 0)
(227.556 0 0)
(225.199 0 0)
(222.711 0 0)
(220.075 0 0)
(217.263 0 0)
(214.241 0 0)
(210.964 0 0)
(207.394 0 0)
(203.485 0 0)
(198.973 0 0)
(192.868 0 0)
(183.22 0 0)
(168.529 0 0)
(150.391 0 0)
(133.27 0 0)
(120.589 0 0)
(112.67 0 0)
(108.156 0 0)
(105.662 0 0)
(104.285 0 0)
(103.526 0 0)
(103.124 0 0)
(102.939 0 0)
(102.897 0 0)
(102.954 0 0)
(103.084 0 0)
(103.27 0 0)
(103.499 0 0)
(103.765 0 0)
(104.06 0 0)
(104.38 0 0)
(104.721 0 0)
(105.081 0 0)
(105.456 0 0)
(105.847 0 0)
(106.244 0 0)
(106.67 0 0)
(107.05 0 0)
(107.612 0 0)
(277.353 0 0)
(276.627 0 0)
(275.886 0 0)
(275.127 0 0)
(274.351 0 0)
(273.557 0 0)
(272.744 0 0)
(271.913 0 0)
(271.062 0 0)
(270.192 0 0)
(269.301 0 0)
(268.389 0 0)
(267.455 0 0)
(266.5 0 0)
(265.521 0 0)
(264.518 0 0)
(263.491 0 0)
(262.439 0 0)
(261.36 0 0)
(260.254 0 0)
(259.12 0 0)
(257.957 0 0)
(256.763 0 0)
(255.537 0 0)
(254.277 0 0)
(252.983 0 0)
(251.653 0 0)
(250.284 0 0)
(248.876 0 0)
(247.424 0 0)
(245.928 0 0)
(244.384 0 0)
(242.79 0 0)
(241.141 0 0)
(239.435 0 0)
(237.667 0 0)
(235.832 0 0)
(233.924 0 0)
(231.937 0 0)
(229.862 0 0)
(227.692 0 0)
(225.413 0 0)
(223.014 0 0)
(220.477 0 0)
(217.78 0 0)
(214.893 0 0)
(211.774 0 0)
(208.383 0 0)
(204.687 0 0)
(200.562 0 0)
(195.415 0 0)
(187.7 0 0)
(175.425 0 0)
(158.545 0 0)
(140.531 0 0)
(125.722 0 0)
(115.805 0 0)
(109.946 0 0)
(106.666 0 0)
(104.848 0 0)
(103.834 0 0)
(103.274 0 0)
(102.984 0 0)
(102.864 0 0)
(102.861 0 0)
(102.94 0 0)
(103.082 0 0)
(103.273 0 0)
(103.503 0 0)
(103.766 0 0)
(104.055 0 0)
(104.367 0 0)
(104.699 0 0)
(105.047 0 0)
(105.411 0 0)
(105.784 0 0)
(106.184 0 0)
(106.542 0 0)
(107.073 0 0)
(276.504 0 0)
(275.784 0 0)
(275.048 0 0)
(274.296 0 0)
(273.527 0 0)
(272.74 0 0)
(271.936 0 0)
(271.113 0 0)
(270.272 0 0)
(269.411 0 0)
(268.531 0 0)
(267.63 0 0)
(266.709 0 0)
(265.766 0 0)
(264.801 0 0)
(263.812 0 0)
(262.8 0 0)
(261.764 0 0)
(260.702 0 0)
(259.614 0 0)
(258.499 0 0)
(257.355 0 0)
(256.182 0 0)
(254.978 0 0)
(253.743 0 0)
(252.474 0 0)
(251.169 0 0)
(249.828 0 0)
(248.449 0 0)
(247.029 0 0)
(245.566 0 0)
(244.057 0 0)
(242.5 0 0)
(240.892 0 0)
(239.228 0 0)
(237.506 0 0)
(235.72 0 0)
(233.865 0 0)
(231.936 0 0)
(229.924 0 0)
(227.822 0 0)
(225.62 0 0)
(223.305 0 0)
(220.862 0 0)
(218.274 0 0)
(215.513 0 0)
(212.543 0 0)
(209.324 0 0)
(205.82 0 0)
(201.975 0 0)
(197.48 0 0)
(191.267 0 0)
(181.384 0 0)
(166.547 0 0)
(148.624 0 0)
(132.033 0 0)
(119.893 0 0)
(112.342 0 0)
(108.023 0 0)
(105.616 0 0)
(104.267 0 0)
(103.507 0 0)
(103.089 0 0)
(102.88 0 0)
(102.808 0 0)
(102.833 0 0)
(102.929 0 0)
(103.079 0 0)
(103.272 0 0)
(103.5 0 0)
(103.758 0 0)
(104.04 0 0)
(104.344 0 0)
(104.665 0 0)
(105.003 0 0)
(105.35 0 0)
(105.725 0 0)
(106.062 0 0)
(106.562 0 0)
(275.661 0 0)
(274.947 0 0)
(274.217 0 0)
(273.472 0 0)
(272.71 0 0)
(271.931 0 0)
(271.135 0 0)
(270.322 0 0)
(269.49 0 0)
(268.64 0 0)
(267.77 0 0)
(266.881 0 0)
(265.972 0 0)
(265.042 0 0)
(264.09 0 0)
(263.117 0 0)
(262.12 0 0)
(261.1 0 0)
(260.055 0 0)
(258.985 0 0)
(257.888 0 0)
(256.764 0 0)
(255.612 0 0)
(254.431 0 0)
(253.218 0 0)
(251.974 0 0)
(250.695 0 0)
(249.382 0 0)
(248.031 0 0)
(246.642 0 0)
(245.211 0 0)
(243.737 0 0)
(242.217 0 0)
(240.648 0 0)
(239.026 0 0)
(237.349 0 0)
(235.611 0 0)
(233.808 0 0)
(231.934 0 0)
(229.984 0 0)
(227.948 0 0)
(225.819 0 0)
(223.585 0 0)
(221.233 0 0)
(218.746 0 0)
(216.103 0 0)
(213.273 0 0)
(210.217 0 0)
(206.895 0 0)
(203.275 0 0)
(199.213 0 0)
(194.071 0 0)
(186.271 0 0)
(173.915 0 0)
(157.15 0 0)
(139.506 0 0)
(125.134 0 0)
(115.542 0 0)
(109.861 0 0)
(106.659 0 0)
(104.864 0 0)
(103.845 0 0)
(103.266 0 0)
(102.95 0 0)
(102.801 0 0)
(102.765 0 0)
(102.81 0 0)
(102.917 0 0)
(103.072 0 0)
(103.265 0 0)
(103.49 0 0)
(103.742 0 0)
(104.017 0 0)
(104.311 0 0)
(104.623 0 0)
(104.945 0 0)
(105.294 0 0)
(105.609 0 0)
(106.079 0 0)
(274.823 0 0)
(274.115 0 0)
(273.393 0 0)
(272.654 0 0)
(271.9 0 0)
(271.13 0 0)
(270.343 0 0)
(269.539 0 0)
(268.717 0 0)
(267.878 0 0)
(267.019 0 0)
(266.142 0 0)
(265.245 0 0)
(264.328 0 0)
(263.39 0 0)
(262.431 0 0)
(261.45 0 0)
(260.446 0 0)
(259.418 0 0)
(258.366 0 0)
(257.288 0 0)
(256.184 0 0)
(255.053 0 0)
(253.893 0 0)
(252.704 0 0)
(251.484 0 0)
(250.231 0 0)
(248.945 0 0)
(247.623 0 0)
(246.264 0 0)
(244.865 0 0)
(243.425 0 0)
(241.941 0 0)
(240.41 0 0)
(238.829 0 0)
(237.195 0 0)
(235.504 0 0)
(233.752 0 0)
(231.933 0 0)
(230.041 0 0)
(228.069 0 0)
(226.01 0 0)