/*--------------------------------*- C++ -*----------------------------------*\
| =========                 |                                                 |
| \\      /  F ield         | OpenFOAM: The Open Source CFD Toolbox           |
|  \\    /   O peration     | Version:  2312                                  |
|   \\  /    A nd           | Website:  www.openfoam.com                      |
|    \\/     M anipulation  |                                                 |
\*---------------------------------------------------------------------------*/
FoamFile
{
    version     2.0;
    format      ascii;
    arch        "LSB;label=32;scalar=64";
    class       volVectorField;
    location    "1.2";
    object      flux;
}
// * * * * * * * * * * * * * * * * * * * * * * * * * * * * * * * * * * * * * //

dimensions      [0 1 -1 1 0 0 0];

internalField   nonuniform List<vector> 
100
(
(-6.48812 0 0)
(-6.36351 0 0)
(-6.23165 0 0)
(-6.09336 0 0)
(-5.94942 0 0)
(-5.80057 0 0)
(-5.6475 0 0)
(-5.49089 0 0)
(-5.33135 0 0)
(-5.16947 0 0)
(-5.00582 0 0)
(-4.84092 0 0)
(-4.67524 0 0)
(-4.50926 0 0)
(-4.34339 0 0)
(-4.17805 0 0)
(-4.01359 0 0)
(-3.85036 0 0)
(-3.68868 0 0)
(-3.52884 0 0)
(-3.3711 0 0)
(-3.21571 0 0)
(-3.06289 0 0)
(-2.91285 0 0)
(-2.76576 0 0)
(-2.62178 0 0)
(-2.48105 0 0)
(-2.34371 0 0)
(-2.20987 0 0)
(-2.0796 0 0)
(-1.953 0 0)
(-1.83013 0 0)
(-1.71104 0 0)
(-1.59577 0 0)
(-1.48434 0 0)
(-1.37678 0 0)
(-1.27309 0 0)
(-1.17327 0 0)
(-1.07731 0 0)
(-0.985183 0 0)
(-0.896867 0 0)
(-0.812326 0 0)
(-0.731521 0 0)
(-0.654406 0 0)
(-0.580928 0 0)
(-0.511031 0 0)
(-0.444655 0 0)
(-0.381736 0 0)
(-0.322204 0 0)
(-0.265989 0 0)
(-0.213017 0 0)
(-0.163212 0 0)
(-0.116496 0 0)
(-0.0727898 0 0)
(-0.0320116 0 0)
(0.00592021 0 0)
(0.0410885 0 0)
(0.0735765 0 0)
(0.103468 0 0)
(0.130846 0 0)
(0.155795 0 0)
(0.178397 0 0)
(0.198735 0 0)
(0.216892 0 0)
(0.232949 0 0)
(0.246985 0 0)
(0.259081 0 0)
(0.269314 0 0)
(0.277762 0 0)
(0.2845 0 0)
(0.289602 0 0)
(0.293142 0 0)
(0.295191 0 0)
(0.295818 0 0)
(0.295094 0 0)
(0.293083 0 0)
(0.289853 0 0)
(0.285466 0 0)
(0.279985 0 0)
(0.273471 0 0)
(0.265983 0 0)
(0.25758 0 0)
(0.248317 0 0)
(0.238249 0 0)
(0.227431 0 0)
(0.215914 0 0)
(0.203751 0 0)
(0.19099 0 0)
(0.177681 0 0)
(0.163872 0 0)
(0.149609 0 0)
(0.134939 0 0)
(0.119906 0 0)
(0.104555 0 0)
(0.0889304 0 0)
(0.0730745 0 0)
(0.0570303 0 0)
(0.04084 0 0)
(0.0245456 0 0)
(0.00818879 0 0)
)
;

boundaryField
{
    movingWall
    {
        type            calculated;
        value           uniform (-6.54851 0 0);
    }
    fixedWalls
    {
        type            calculated;
        value           nonuniform List<vector> 
201
(
(-6.48812 0 0)
(-6.36351 0 0)
(-6.23165 0 0)
(-6.09336 0 0)
(-5.94942 0 0)
(-5.80057 0 0)
(-5.6475 0 0)
(-5.49089 0 0)
(-5.33135 0 0)
(-5.16947 0 0)
(-5.00582 0 0)
(-4.84092 0 0)
(-4.67524 0 0)
(-4.50926 0 0)
(-4.34339 0 0)
(-4.17805 0 0)
(-4.01359 0 0)
(-3.85036 0 0)
(-3.68868 0 0)
(-3.52884 0 0)
(-3.3711 0 0)
(-3.21571 0 0)
(-3.06289 0 0)
(-2.91285 0 0)
(-2.76576 0 0)
(-2.62178 0 0)
(-2.48105 0 0)
(-2.34371 0 0)
(-2.20987 0 0)
(-2.0796 0 0)
(-1.953 0 0)
(-1.83013 0 0)
(-1.71104 0 0)
(-1.59577 0 0)
(-1.48434 0 0)
(-1.37678 0 0)
(-1.27309 0 0)
(-1.17327 0 0)
(-1.07731 0 0)
(-0.985183 0 0)
(-0.896867 0 0)
(-0.812326 0 0)
(-0.731521 0 0)
(-0.654406 0 0)
(-0.580928 0 0)
(-0.511031 0 0)
(-0.444655 0 0)
(-0.381736 0 0)
(-0.322204 0 0)
(-0.265989 0 0)
(-0.213017 0 0)
(-0.163212 0 0)
(-0.116496 0 0)
(-0.0727898 0 0)
(-0.0320116 0 0)
(0.00592021 0 0)
(0.0410885 0 0)
(0.0735765 0 0)
(0.103468 0 0)
(0.130846 0 0)
(0.155795 0 0)
(0.178397 0 0)
(0.198735 0 0)
(0.216892 0 0)
(0.232949 0 0)
(0.246985 0 0)
(0.259081 0 0)
(0.269314 0 0)
(0.277762 0 0)
(0.2845 0 0)
(0.289602 0 0)
(0.293142 0 0)
(0.295191 0 0)
(0.295818 0 0)
(0.295094 0 0)
(0.293083 0 0)
(0.289853 0 0)
(0.285466 0 0)
(0.279985 0 0)
(0.273471 0 0)
(0.265983 0 0)
(0.25758 0 0)
(0.248317 0 0)
(0.238249 0 0)
(0.227431 0 0)
(0.215914 0 0)
(0.203751 0 0)
(0.19099 0 0)
(0.177681 0 0)
(0.163872 0 0)
(0.149609 0 0)
(0.134939 0 0)
(0.119906 0 0)
(0.104555 0 0)
(0.0889304 0 0)
(0.0730745 0 0)
(0.0570303 0 0)
(0.04084 0 0)
(0.0245456 0 0)
(0.00818879 0 0)
(0 0 0)
(-6.48812 0 0)
(-6.36351 0 0)
(-6.23165 0 0)
(-6.09336 0 0)
(-5.94942 0 0)
(-5.80057 0 0)
(-5.6475 0 0)
(-5.49089 0 0)
(-5.33135 0 0)
(-5.16947 0 0)
(-5.00582 0 0)
(-4.84092 0 0)
(-4.67524 0 0)
(-4.50926 0 0)
(-4.34339 0 0)
(-4.17805 0 0)
(-4.01359 0 0)
(-3.85036 0 0)
(-3.68868 0 0)
(-3.52884 0 0)
(-3.3711 0 0)
(-3.21571 0 0)
(-3.06289 0 0)
(-2.91285 0 0)
(-2.76576 0 0)
(-2.62178 0 0)
(-2.48105 0 0)
(-2.34371 0 0)
(-2.20987 0 0)
(-2.0796 0 0)
(-1.953 0 0)
(-1.83013 0 0)
(-1.71104 0 0)
(-1.59577 0 0)
(-1.48434 0 0)
(-1.37678 0 0)
(-1.27309 0 0)
(-1.17327 0 0)
(-1.07731 0 0)
(-0.985183 0 0)
(-0.896867 0 0)
(-0.812326 0 0)
(-0.731521 0 0)
(-0.654406 0 0)
(-0.580928 0 0)
(-0.511031 0 0)
(-0.444655 0 0)
(-0.381736 0 0)
(-0.322204 0 0)
(-0.265989 0 0)
(-0.213017 0 0)
(-0.163212 0 0)
(-0.116496 0 0)
(-0.0727898 0 0)
(-0.0320116 0 0)
(0.00592021 0 0)
(0.0410885 0 0)
(0.0735765 0 0)
(0.103468 0 0)
(0.130846 0 0)
(0.155795 0 0)
(0.178397 0 0)
(0.198735 0 0)
(0.216892 0 0)
(0.232949 0 0)
(0.246985 0 0)
(0.259081 0 0)
(0.269314 0 0)
(0.277762 0 0)
(0.2845 0 0)
(0.289602 0 0)
(0.293142 0 0)
(0.295191 0 0)
(0.295818 0 0)
(0.295094 0 0)
(0.293083 0 0)
(0.289853 0 0)
(0.285466 0 0)
(0.279985 0 0)
(0.273471 0 0)
(0.265983 0 0)
(0.25758 0 0)
(0.248317 0 0)
(0.238249 0 0)
(0.227431 0 0)
(0.215914 0 0)
(0.203751 0 0)
(0.19099 0 0)
(0.177681 0 0)
(0.163872 0 0)
(0.149609 0 0)
(0.134939 0 0)
(0.119906 0 0)
(0.104555 0 0)
(0.0889304 0 0)
(0.0730745 0 0)
(0.0570303 0 0)
(0.04084 0 0)
(0.0245456 0 0)
(0.00818879 0 0)
)
;
    }
    frontAndBack
    {
        type            empty;
    }
}


// ************************************************************************* //
