/*--------------------------------*- C++ -*----------------------------------*\
| =========                 |                                                 |
| \\      /  F ield         | OpenFOAM: The Open Source CFD Toolbox           |
|  \\    /   O peration     | Version:  2312                                  |
|   \\  /    A nd           | Website:  www.openfoam.com                      |
|    \\/     M anipulation  |                                                 |
\*---------------------------------------------------------------------------*/
FoamFile
{
    version     2.0;
    format      ascii;
    arch        "LSB;label=32;scalar=64";
    class       volScalarField;
    location    "1.2";
    object      gradTx;
}
// * * * * * * * * * * * * * * * * * * * * * * * * * * * * * * * * * * * * * //

dimensions      [0 -1 0 1 0 0 0];

internalField   nonuniform List<scalar> 
100
(
-6.48812
-6.36351
-6.23165
-6.09336
-5.94942
-5.80057
-5.6475
-5.49089
-5.33135
-5.16947
-5.00582
-4.84092
-4.67524
-4.50926
-4.34339
-4.17805
-4.01359
-3.85036
-3.68868
-3.52884
-3.3711
-3.21571
-3.06289
-2.91285
-2.76576
-2.62178
-2.48105
-2.34371
-2.20987
-2.0796
-1.953
-1.83013
-1.71104
-1.59577
-1.48434
-1.37678
-1.27309
-1.17327
-1.07731
-0.985183
-0.896867
-0.812326
-0.731521
-0.654406
-0.580928
-0.511031
-0.444655
-0.381736
-0.322204
-0.265989
-0.213017
-0.163212
-0.116496
-0.0727898
-0.0320116
0.00592021
0.0410885
0.0735765
0.103468
0.130846
0.155795
0.178397
0.198735
0.216892
0.232949
0.246985
0.259081
0.269314
0.277762
0.2845
0.289602
0.293142
0.295191
0.295818
0.295094
0.293083
0.289853
0.285466
0.279985
0.273471
0.265983
0.25758
0.248317
0.238249
0.227431
0.215914
0.203751
0.19099
0.177681
0.163872
0.149609
0.134939
0.119906
0.104555
0.0889304
0.0730745
0.0570303
0.04084
0.0245456
0.00818879
)
;

boundaryField
{
    movingWall
    {
        type            calculated;
        value           uniform -6.54851;
    }
    fixedWalls
    {
        type            calculated;
        value           nonuniform List<scalar> 
201
(
-6.48812
-6.36351
-6.23165
-6.09336
-5.94942
-5.80057
-5.6475
-5.49089
-5.33135
-5.16947
-5.00582
-4.84092
-4.67524
-4.50926
-4.34339
-4.17805
-4.01359
-3.85036
-3.68868
-3.52884
-3.3711
-3.21571
-3.06289
-2.91285
-2.76576
-2.62178
-2.48105
-2.34371
-2.20987
-2.0796
-1.953
-1.83013
-1.71104
-1.59577
-1.48434
-1.37678
-1.27309
-1.17327
-1.07731
-0.985183
-0.896867
-0.812326
-0.731521
-0.654406
-0.580928
-0.511031
-0.444655
-0.381736
-0.322204
-0.265989
-0.213017
-0.163212
-0.116496
-0.0727898
-0.0320116
0.00592021
0.0410885
0.0735765
0.103468
0.130846
0.155795
0.178397
0.198735
0.216892
0.232949
0.246985
0.259081
0.269314
0.277762
0.2845
0.289602
0.293142
0.295191
0.295818
0.295094
0.293083
0.289853
0.285466
0.279985
0.273471
0.265983
0.25758
0.248317
0.238249
0.227431
0.215914
0.203751
0.19099
0.177681
0.163872
0.149609
0.134939
0.119906
0.104555
0.0889304
0.0730745
0.0570303
0.04084
0.0245456
0.00818879
0
-6.48812
-6.36351
-6.23165
-6.09336
-5.94942
-5.80057
-5.6475
-5.49089
-5.33135
-5.16947
-5.00582
-4.84092
-4.67524
-4.50926
-4.34339
-4.17805
-4.01359
-3.85036
-3.68868
-3.52884
-3.3711
-3.21571
-3.06289
-2.91285
-2.76576
-2.62178
-2.48105
-2.34371
-2.20987
-2.0796
-1.953
-1.83013
-1.71104
-1.59577
-1.48434
-1.37678
-1.27309
-1.17327
-1.07731
-0.985183
-0.896867
-0.812326
-0.731521
-0.654406
-0.580928
-0.511031
-0.444655
-0.381736
-0.322204
-0.265989
-0.213017
-0.163212
-0.116496
-0.0727898
-0.0320116
0.00592021
0.0410885
0.0735765
0.103468
0.130846
0.155795
0.178397
0.198735
0.216892
0.232949
0.246985
0.259081
0.269314
0.277762
0.2845
0.289602
0.293142
0.295191
0.295818
0.295094
0.293083
0.289853
0.285466
0.279985
0.273471
0.265983
0.25758
0.248317
0.238249
0.227431
0.215914
0.203751
0.19099
0.177681
0.163872
0.149609
0.134939
0.119906
0.104555
0.0889304
0.0730745
0.0570303
0.04084
0.0245456
0.00818879
)
;
    }
    frontAndBack
    {
        type            empty;
    }
}


// ************************************************************************* //
