/*--------------------------------*- C++ -*----------------------------------*\
| =========                 |                                                 |
| \\      /  F ield         | OpenFOAM: The Open Source CFD Toolbox           |
|  \\    /   O peration     | Version:  2312                                  |
|   \\  /    A nd           | Website:  www.openfoam.com                      |
|    \\/     M anipulation  |                                                 |
\*---------------------------------------------------------------------------*/
FoamFile
{
    version     2.0;
    format      ascii;
    arch        "LSB;label=32;scalar=64";
    class       volVectorField;
    location    "0.691";
    object      U;
}
// * * * * * * * * * * * * * * * * * * * * * * * * * * * * * * * * * * * * * //

dimensions      [0 1 -1 0 0 0 0];

internalField   nonuniform List<vector> 
31205
(
(262.384 0 0)
(260.599 0 0)
(258.757 0 0)
(256.854 0 0)
(254.889 0 0)
(252.858 0 0)
(250.76 0 0)
(248.589 0 0)
(246.342 0 0)
(244.016 0 0)
(241.604 0 0)
(239.103 0 0)
(236.506 0 0)
(233.806 0 0)
(230.995 0 0)
(228.064 0 0)
(225.004 0 0)
(221.801 0 0)
(218.442 0 0)
(214.909 0 0)
(211.181 0 0)
(207.234 0 0)
(203.034 0 0)
(198.542 0 0)
(193.704 0 0)
(188.45 0 0)
(182.68 0 0)
(176.241 0 0)
(168.905 0 0)
(160.441 0 0)
(150.843 0 0)
(140.599 0 0)
(130.673 0 0)
(122.066 0 0)
(115.338 0 0)
(110.513 0 0)
(107.283 0 0)
(105.255 0 0)
(104.087 0 0)
(103.523 0 0)
(103.383 0 0)
(103.545 0 0)
(103.928 0 0)
(104.474 0 0)
(105.145 0 0)
(105.911 0 0)
(106.753 0 0)
(107.654 0 0)
(108.604 0 0)
(109.593 0 0)
(110.615 0 0)
(111.663 0 0)
(112.733 0 0)
(113.822 0 0)
(114.927 0 0)
(116.044 0 0)
(117.172 0 0)
(118.31 0 0)
(119.454 0 0)
(120.605 0 0)
(121.761 0 0)
(122.921 0 0)
(124.084 0 0)
(125.25 0 0)
(126.418 0 0)
(127.587 0 0)
(128.757 0 0)
(129.927 0 0)
(131.098 0 0)
(132.268 0 0)
(133.437 0 0)
(134.605 0 0)
(135.773 0 0)
(136.937 0 0)
(138.106 0 0)
(139.255 0 0)
(140.457 0 0)
(141.488 0 0)
(143.037 0 0)
(260.486 0 0)
(258.697 0 0)
(256.851 0 0)
(254.946 0 0)
(252.98 0 0)
(250.95 0 0)
(248.852 0 0)
(246.684 0 0)
(244.44 0 0)
(242.118 0 0)
(239.712 0 0)
(237.218 0 0)
(234.628 0 0)
(231.936 0 0)
(229.134 0 0)
(226.214 0 0)
(223.164 0 0)
(219.974 0 0)
(216.627 0 0)
(213.106 0 0)
(209.392 0 0)
(205.457 0 0)
(201.27 0 0)
(196.789 0 0)
(191.959 0 0)
(186.71 0 0)
(180.938 0 0)
(174.484 0 0)
(167.125 0 0)
(158.658 0 0)
(149.135 0 0)
(139.092 0 0)
(129.48 0 0)
(121.223 0 0)
(114.801 0 0)
(110.197 0 0)
(107.104 0 0)
(105.15 0 0)
(104.013 0 0)
(103.452 0 0)
(103.298 0 0)
(103.437 0 0)
(103.789 0 0)
(104.302 0 0)
(104.935 0 0)
(105.663 0 0)
(106.466 0 0)
(107.328 0 0)
(108.238 0 0)
(109.187 0 0)
(110.169 0 0)
(111.177 0 0)
(112.208 0 0)
(113.258 0 0)
(114.323 0 0)
(115.402 0 0)
(116.491 0 0)
(117.59 0 0)
(118.697 0 0)
(119.81 0 0)
(120.929 0 0)
(122.052 0 0)
(123.178 0 0)
(124.308 0 0)
(125.439 0 0)
(126.572 0 0)
(127.707 0 0)
(128.842 0 0)
(129.977 0 0)
(131.112 0 0)
(132.247 0 0)
(133.381 0 0)
(134.514 0 0)
(135.645 0 0)
(136.78 0 0)
(137.896 0 0)
(139.063 0 0)
(140.066 0 0)
(141.566 0 0)
(258.486 0 0)
(256.692 0 0)
(254.842 0 0)
(252.934 0 0)
(250.966 0 0)
(248.934 0 0)
(246.836 0 0)
(244.668 0 0)
(242.425 0 0)
(240.105 0 0)
(237.702 0 0)
(235.21 0 0)
(232.625 0 0)
(229.937 0 0)
(227.141 0 0)
(224.226 0 0)
(221.183 0 0)
(217.998 0 0)
(214.657 0 0)
(211.142 0 0)
(207.432 0 0)
(203.5 0 0)
(199.314 0 0)
(194.83 0 0)
(189.994 0 0)
(184.73 0 0)
(178.93 0 0)
(172.429 0 0)
(165.011 0 0)
(156.513 0 0)
(147.06 0 0)
(137.248 0 0)
(128.006 0 0)
(120.166 0 0)
(114.112 0 0)
(109.78 0 0)
(106.865 0 0)
(105.013 0 0)
(103.927 0 0)
(103.384 0 0)
(103.227 0 0)
(103.35 0 0)
(103.678 0 0)
(104.16 0 0)
(104.761 0 0)
(105.454 0 0)
(106.22 0 0)
(107.044 0 0)
(107.916 0 0)
(108.827 0 0)
(109.77 0 0)
(110.741 0 0)
(111.733 0 0)
(112.744 0 0)
(113.772 0 0)
(114.812 0 0)
(115.864 0 0)
(116.926 0 0)
(117.996 0 0)
(119.072 0 0)
(120.154 0 0)
(121.241 0 0)
(122.332 0 0)
(123.425 0 0)
(124.522 0 0)
(125.62 0 0)
(126.719 0 0)
(127.819 0 0)
(128.92 0 0)
(130.021 0 0)
(131.122 0 0)
(132.222 0 0)
(133.322 0 0)
(134.42 0 0)
(135.522 0 0)
(136.606 0 0)
(137.738 0 0)
(138.715 0 0)
(140.166 0 0)
(256.441 0 0)
(254.641 0 0)
(252.787 0 0)
(250.876 0 0)
(248.905 0 0)
(246.871 0 0)
(244.772 0 0)
(242.603 0 0)
(240.361 0 0)
(238.042 0 0)
(235.64 0 0)
(233.15 0 0)
(230.566 0 0)
(227.882 0 0)
(225.088 0 0)
(222.176 0 0)
(219.136 0 0)
(215.953 0 0)
(212.614 0 0)
(209.1 0 0)
(205.39 0 0)
(201.455 0 0)
(197.262 0 0)
(192.767 0 0)
(187.913 0 0)
(182.62 0 0)
(176.774 0 0)
(170.204 0 0)
(162.706 0 0)
(154.168 0 0)
(144.798 0 0)
(135.246 0 0)
(126.409 0 0)
(119.016 0 0)
(113.355 0 0)
(109.315 0 0)
(106.592 0 0)
(104.855 0 0)
(103.831 0 0)
(103.314 0 0)
(103.161 0 0)
(103.274 0 0)
(103.582 0 0)
(104.039 0 0)
(104.61 0 0)
(105.27 0 0)
(106.002 0 0)
(106.791 0 0)
(107.627 0 0)
(108.501 0 0)
(109.408 0 0)
(110.341 0 0)
(111.297 0 0)
(112.271 0 0)
(113.262 0 0)
(114.266 0 0)
(115.281 0 0)
(116.307 0 0)
(117.341 0 0)
(118.381 0 0)
(119.428 0 0)
(120.479 0 0)
(121.535 0 0)
(122.594 0 0)
(123.655 0 0)
(124.719 0 0)
(125.784 0 0)
(126.851 0 0)
(127.918 0 0)
(128.986 0 0)
(130.054 0 0)
(131.121 0 0)
(132.188 0 0)
(133.253 0 0)
(134.323 0 0)
(135.375 0 0)
(136.474 0 0)
(137.424 0 0)
(138.829 0 0)
(254.375 0 0)
(252.571 0 0)
(250.713 0 0)
(248.799 0 0)
(246.826 0 0)
(244.791 0 0)
(242.69 0 0)
(240.521 0 0)
(238.279 0 0)
(235.96 0 0)
(233.559 0 0)
(231.071 0 0)
(228.489 0 0)
(225.806 0 0)
(223.015 0 0)
(220.105 0 0)
(217.065 0 0)
(213.884 0 0)
(210.544 0 0)
(207.029 0 0)
(203.315 0 0)
(199.374 0 0)
(195.17 0 0)
(190.659 0 0)
(185.779 0 0)
(180.448 0 0)
(174.544 0 0)
(167.894 0 0)
(160.311 0 0)
(151.745 0 0)
(142.485 0 0)
(133.224 0 0)
(124.813 0 0)
(117.873 0 0)
(112.6 0 0)
(108.847 0 0)
(106.314 0 0)
(104.693 0 0)
(103.732 0 0)
(103.244 0 0)
(103.098 0 0)
(103.202 0 0)
(103.493 0 0)
(103.926 0 0)
(104.469 0 0)
(105.1 0 0)
(105.799 0 0)
(106.555 0 0)
(107.356 0 0)
(108.195 0 0)
(109.067 0 0)
(109.964 0 0)
(110.884 0 0)
(111.823 0 0)
(112.778 0 0)
(113.747 0 0)
(114.727 0 0)
(115.717 0 0)
(116.716 0 0)
(117.722 0 0)
(118.734 0 0)
(119.751 0 0)
(120.773 0 0)
(121.798 0 0)
(122.825 0 0)
(123.856 0 0)
(124.888 0 0)
(125.921 0 0)
(126.956 0 0)
(127.991 0 0)
(129.026 0 0)
(130.061 0 0)
(131.096 0 0)
(132.13 0 0)
(133.167 0 0)
(134.189 0 0)
(135.256 0 0)
(136.178 0 0)
(137.541 0 0)
(252.299 0 0)
(250.492 0 0)
(248.631 0 0)
(246.715 0 0)
(244.74 0 0)
(242.703 0 0)
(240.602 0 0)
(238.433 0 0)
(236.192 0 0)
(233.873 0 0)
(231.474 0 0)
(228.987 0 0)
(226.407 0 0)
(223.726 0 0)
(220.935 0 0)
(218.027 0 0)
(214.988 0 0)
(211.806 0 0)
(208.466 0 0)
(204.947 0 0)
(201.228 0 0)
(197.278 0 0)
(193.06 0 0)
(188.529 0 0)
(183.619 0 0)
(178.244 0 0)
(172.274 0 0)
(165.536 0 0)
(157.873 0 0)
(149.3 0 0)
(140.185 0 0)
(131.246 0 0)
(123.272 0 0)
(116.777 0 0)
(111.878 0 0)
(108.398 0 0)
(106.045 0 0)
(104.534 0 0)
(103.634 0 0)
(103.174 0 0)
(103.035 0 0)
(103.133 0 0)
(103.408 0 0)
(103.819 0 0)
(104.336 0 0)
(104.938 0 0)
(105.606 0 0)
(106.329 0 0)
(107.098 0 0)
(107.903 0 0)
(108.74 0 0)
(109.604 0 0)
(110.489 0 0)
(111.394 0 0)
(112.314 0 0)
(113.248 0 0)
(114.194 0 0)
(115.151 0 0)
(116.115 0 0)
(117.087 0 0)
(118.066 0 0)
(119.049 0 0)
(120.038 0 0)
(121.029 0 0)
(122.025 0 0)
(123.022 0 0)
(124.022 0 0)
(125.023 0 0)
(126.025 0 0)
(127.028 0 0)
(128.032 0 0)
(129.036 0 0)
(130.04 0 0)
(131.042 0 0)
(132.048 0 0)
(133.04 0 0)
(134.075 0 0)
(134.97 0 0)
(136.292 0 0)
(250.218 0 0)
(248.408 0 0)
(246.545 0 0)
(244.627 0 0)
(242.651 0 0)
(240.614 0 0)
(238.513 0 0)
(236.344 0 0)
(234.104 0 0)
(231.787 0 0)
(229.388 0 0)
(226.903 0 0)
(224.324 0 0)
(221.645 0 0)
(218.856 0 0)
(215.948 0 0)
(212.91 0 0)
(209.727 0 0)
(206.384 0 0)
(202.862 0 0)
(199.135 0 0)
(195.174 0 0)
(190.94 0 0)
(186.385 0 0)
(181.441 0 0)
(176.015 0 0)
(169.972 0 0)
(163.145 0 0)
(155.413 0 0)
(146.861 0 0)
(137.929 0 0)
(129.339 0 0)
(121.806 0 0)
(115.743 0 0)
(111.199 0 0)
(107.975 0 0)
(105.791 0 0)
(104.383 0 0)
(103.54 0 0)
(103.108 0 0)
(102.976 0 0)
(103.067 0 0)
(103.327 0 0)
(103.717 0 0)
(104.209 0 0)
(104.783 0 0)
(105.421 0 0)
(106.114 0 0)
(106.85 0 0)
(107.623 0 0)
(108.427 0 0)
(109.257 0 0)
(110.109 0 0)
(110.98 0 0)
(111.867 0 0)
(112.768 0 0)
(113.681 0 0)
(114.604 0 0)
(115.535 0 0)
(116.475 0 0)
(117.42 0 0)
(118.371 0 0)
(119.327 0 0)
(120.287 0 0)
(121.25 0 0)
(122.215 0 0)
(123.183 0 0)
(124.153 0 0)
(125.124 0 0)
(126.096 0 0)
(127.069 0 0)
(128.042 0 0)
(129.015 0 0)
(129.987 0 0)
(130.963 0 0)
(131.925 0 0)
(132.929 0 0)
(133.798 0 0)
(135.079 0 0)
(248.133 0 0)
(246.321 0 0)
(244.457 0 0)
(242.538 0 0)
(240.561 0 0)
(238.525 0 0)
(236.424 0 0)
(234.256 0 0)
(232.016 0 0)
(229.701 0 0)
(227.304 0 0)
(224.82 0 0)
(222.243 0 0)
(219.565 0 0)
(216.777 0 0)
(213.87 0 0)
(210.831 0 0)
(207.647 0 0)
(204.301 0 0)
(200.773 0 0)
(197.037 0 0)
(193.063 0 0)
(188.811 0 0)
(184.228 0 0)
(179.245 0 0)
(173.762 0 0)
(167.641 0 0)
(160.727 0 0)
(152.941 0 0)
(144.444 0 0)
(135.731 0 0)
(127.512 0 0)
(120.42 0 0)
(114.775 0 0)
(110.565 0 0)
(107.58 0 0)
(105.553 0 0)
(104.241 0 0)
(103.452 0 0)
(103.044 0 0)
(102.919 0 0)
(103.004 0 0)
(103.249 0 0)
(103.619 0 0)
(104.088 0 0)
(104.634 0 0)
(105.245 0 0)
(105.907 0 0)
(106.612 0 0)
(107.354 0 0)
(108.126 0 0)
(108.924 0 0)
(109.744 0 0)
(110.582 0 0)
(111.437 0 0)
(112.305 0 0)
(113.185 0 0)
(114.076 0 0)
(114.975 0 0)
(115.882 0 0)
(116.796 0 0)
(117.715 0 0)
(118.64 0 0)
(119.568 0 0)
(120.5 0 0)
(121.434 0 0)
(122.371 0 0)
(123.31 0 0)
(124.251 0 0)
(125.192 0 0)
(126.135 0 0)
(127.078 0 0)
(128.021 0 0)
(128.963 0 0)
(129.91 0 0)
(130.842 0 0)
(131.816 0 0)
(132.66 0 0)
(133.902 0 0)
(246.044 0 0)
(244.231 0 0)
(242.366 0 0)
(240.447 0 0)
(238.471 0 0)
(236.435 0 0)
(234.335 0 0)
(232.168 0 0)
(229.93 0 0)
(227.616 0 0)
(225.221 0 0)
(222.739 0 0)
(220.163 0 0)
(217.486 0 0)
(214.699 0 0)
(211.792 0 0)
(208.752 0 0)
(205.566 0 0)
(202.215 0 0)
(198.68 0 0)
(194.934 0 0)
(190.945 0 0)
(186.67 0 0)
(182.057 0 0)
(177.029 0 0)
(171.483 0 0)
(165.28 0 0)
(158.283 0 0)
(150.465 0 0)
(142.058 0 0)
(133.6 0 0)
(125.77 0 0)
(119.116 0 0)
(113.87 0 0)
(109.973 0 0)
(107.211 0 0)
(105.331 0 0)
(104.108 0 0)
(103.368 0 0)
(102.984 0 0)
(102.864 0 0)
(102.944 0 0)
(103.175 0 0)
(103.526 0 0)
(103.972 0 0)
(104.493 0 0)
(105.075 0 0)
(105.709 0 0)
(106.385 0 0)
(107.096 0 0)
(107.837 0 0)
(108.603 0 0)
(109.392 0 0)
(110.199 0 0)
(111.022 0 0)
(111.858 0 0)
(112.707 0 0)
(113.566 0 0)
(114.434 0 0)
(115.31 0 0)
(116.193 0 0)
(117.081 0 0)
(117.975 0 0)
(118.872 0 0)
(119.774 0 0)
(120.678 0 0)
(121.585 0 0)
(122.494 0 0)
(123.404 0 0)
(124.316 0 0)
(125.229 0 0)
(126.143 0 0)
(127.057 0 0)
(127.97 0 0)
(128.888 0 0)
(129.792 0 0)
(130.736 0 0)
(131.555 0 0)
(132.758 0 0)
(243.952 0 0)
(242.138 0 0)
(240.274 0 0)
(238.355 0 0)
(236.38 0 0)
(234.344 0 0)
(232.246 0 0)
(230.081 0 0)
(227.844 0 0)
(225.532 0 0)
(223.138 0 0)
(220.658 0 0)
(218.084 0 0)
(215.408 0 0)
(212.621 0 0)
(209.713 0 0)
(206.672 0 0)
(203.482 0 0)
(200.126 0 0)
(196.582 0 0)
(192.824 0 0)
(188.816 0 0)
(184.517 0 0)
(179.868 0 0)
(174.791 0 0)
(169.176 0 0)
(162.889 0 0)
(155.817 0 0)
(147.993 0 0)
(139.714 0 0)
(131.543 0 0)
(124.116 0 0)
(117.892 0 0)
(113.025 0 0)
(109.423 0 0)
(106.868 0 0)
(105.122 0 0)
(103.982 0 0)
(103.289 0 0)
(102.927 0 0)
(102.813 0 0)
(102.887 0 0)
(103.105 0 0)
(103.438 0 0)
(103.861 0 0)
(104.357 0 0)
(104.913 0 0)
(105.519 0 0)
(106.166 0 0)
(106.848 0 0)
(107.559 0 0)
(108.295 0 0)
(109.053 0 0)
(109.829 0 0)
(110.622 0 0)
(111.428 0 0)
(112.246 0 0)
(113.075 0 0)
(113.912 0 0)
(114.758 0 0)
(115.61 0 0)
(116.468 0 0)
(117.332 0 0)
(118.2 0 0)
(119.071 0 0)
(119.946 0 0)
(120.823 0 0)
(121.703 0 0)
(122.585 0 0)
(123.468 0 0)
(124.352 0 0)
(125.237 0 0)
(126.123 0 0)
(127.008 0 0)
(127.897 0 0)
(128.773 0 0)
(129.688 0 0)
(130.482 0 0)
(131.648 0 0)
(241.858 0 0)
(240.045 0 0)
(238.181 0 0)
(236.263 0 0)
(234.289 0 0)
(232.255 0 0)
(230.158 0 0)
(227.994 0 0)
(225.759 0 0)
(223.449 0 0)
(221.057 0 0)
(218.578 0 0)
(216.005 0 0)
(213.329 0 0)
(210.542 0 0)
(207.633 0 0)
(204.589 0 0)
(201.395 0 0)
(198.032 0 0)
(194.478 0 0)
(190.705 0 0)
(186.677 0 0)
(182.349 0 0)
(177.66 0 0)
(172.528 0 0)
(166.839 0 0)
(160.467 0 0)
(153.335 0 0)
(145.534 0 0)
(137.421 0 0)
(129.566 0 0)
(122.55 0 0)
(116.745 0 0)
(112.239 0 0)
(108.911 0 0)
(106.548 0 0)
(104.928 0 0)
(103.865 0 0)
(103.215 0 0)
(102.874 0 0)
(102.764 0 0)
(102.833 0 0)
(103.039 0 0)
(103.353 0 0)
(103.755 0 0)
(104.228 0 0)
(104.759 0 0)
(105.337 0 0)
(105.957 0 0)
(106.61 0 0)
(107.292 0 0)
(107.999 0 0)
(108.728 0 0)
(109.474 0 0)
(110.237 0 0)
(111.013 0 0)
(111.802 0 0)
(112.601 0 0)
(113.409 0 0)
(114.224 0 0)
(115.047 0 0)
(115.876 0 0)
(116.71 0 0)
(117.549 0 0)
(118.392 0 0)
(119.238 0 0)
(120.086 0 0)
(120.938 0 0)
(121.791 0 0)
(122.646 0 0)
(123.502 0 0)
(124.359 0 0)
(125.217 0 0)
(126.074 0 0)
(126.935 0 0)
(127.785 0 0)
(128.671 0 0)
(129.442 0 0)
(130.571 0 0)
(239.763 0 0)
(237.95 0 0)
(236.087 0 0)
(234.17 0 0)
(232.197 0 0)
(230.165 0 0)
(228.07 0 0)
(225.908 0 0)
(223.675 0 0)
(221.366 0 0)
(218.976 0 0)
(216.498 0 0)
(213.926 0 0)
(211.25 0 0)
(208.463 0 0)
(205.552 0 0)
(202.504 0 0)
(199.304 0 0)
(195.933 0 0)
(192.366 0 0)
(188.576 0 0)
(184.525 0 0)
(180.164 0 0)
(175.431 0 0)
(170.237 0 0)
(164.47 0 0)
(158.017 0 0)
(150.843 0 0)
(143.098 0 0)
(135.188 0 0)
(127.674 0 0)
(121.073 0 0)
(115.673 0 0)
(111.507 0 0)
(108.435 0 0)
(106.25 0 0)
(104.746 0 0)
(103.754 0 0)
(103.145 0 0)
(102.823 0 0)
(102.718 0 0)
(102.781 0 0)
(102.975 0 0)
(103.273 0 0)
(103.655 0 0)
(104.105 0 0)
(104.611 0 0)
(105.164 0 0)
(105.756 0 0)
(106.382 0 0)
(107.036 0 0)
(107.715 0 0)
(108.415 0 0)
(109.132 0 0)
(109.866 0 0)
(110.614 0 0)
(111.373 0 0)
(112.143 0 0)
(112.922 0 0)
(113.71 0 0)
(114.504 0 0)
(115.304 0 0)
(116.11 0 0)
(116.92 0 0)
(117.735 0 0)
(118.553 0 0)
(119.374 0 0)
(120.197 0 0)
(121.022 0 0)
(121.85 0 0)
(122.678 0 0)
(123.508 0 0)
(124.339 0 0)
(125.169 0 0)
(126.003 0 0)
(126.826 0 0)
(127.685 0 0)
(128.432 0 0)
(129.525 0 0)
(237.667 0 0)
(235.855 0 0)
(233.993 0 0)
(232.078 0 0)
(230.107 0 0)
(228.076 0 0)
(225.983 0 0)
(223.823 0 0)
(221.592 0 0)
(219.284 0 0)
(216.895 0 0)
(214.419 0 0)
(211.847 0 0)
(209.171 0 0)
(206.382 0 0)
(203.468 0 0)
(200.415 0 0)
(197.208 0 0)
(193.827 0 0)
(190.246 0 0)
(186.436 0 0)
(182.358 0 0)
(177.961 0 0)
(173.177 0 0)
(167.916 0 0)
(162.069 0 0)
(155.543 0 0)
(148.348 0 0)
(140.697 0 0)
(133.025 0 0)
(125.873 0 0)
(119.684 0 0)
(114.674 0 0)
(110.828 0 0)
(107.993 0 0)
(105.972 0 0)
(104.576 0 0)
(103.651 0 0)
(103.079 0 0)
(102.775 0 0)
(102.675 0 0)
(102.733 0 0)
(102.915 0 0)
(103.197 0 0)
(103.559 0 0)
(103.987 0 0)
(104.469 0 0)
(104.997 0 0)
(105.564 0 0)
(106.163 0 0)
(106.79 0 0)
(107.442 0 0)
(108.114 0 0)
(108.804 0 0)
(109.51 0 0)
(110.229 0 0)
(110.961 0 0)
(111.703 0 0)
(112.454 0 0)
(113.213 0 0)
(113.979 0 0)
(114.752 0 0)
(115.53 0 0)
(116.313 0 0)
(117.1 0 0)
(117.89 0 0)
(118.684 0 0)
(119.48 0 0)
(120.279 0 0)
(121.079 0 0)
(121.881 0 0)
(122.684 0 0)
(123.488 0 0)
(124.292 0 0)
(125.1 0 0)
(125.897 0 0)
(126.729 0 0)
(127.453 0 0)
(128.511 0 0)
(235.57 0 0)
(233.76 0 0)
(231.899 0 0)
(229.986 0 0)
(228.016 0 0)
(225.988 0 0)
(223.896 0 0)
(221.738 0 0)
(219.509 0 0)
(217.203 0 0)
(214.815 0 0)
(212.339 0 0)
(209.767 0 0)
(207.09 0 0)
(204.298 0 0)
(201.38 0 0)
(198.322 0 0)
(195.106 0 0)
(191.713 0 0)
(188.115 0 0)
(184.283 0 0)
(180.174 0 0)
(175.736 0 0)
(170.897 0 0)
(165.564 0 0)
(159.637 0 0)
(153.049 0 0)
(145.861 0 0)
(138.34 0 0)
(130.94 0 0)
(124.164 0 0)
(118.383 0 0)
(113.744 0 0)
(110.197 0 0)
(107.583 0 0)
(105.714 0 0)
(104.417 0 0)
(103.553 0 0)
(103.017 0 0)
(102.73 0 0)
(102.633 0 0)
(102.687 0 0)
(102.858 0 0)
(103.124 0 0)
(103.468 0 0)
(103.875 0 0)
(104.335 0 0)
(104.839 0 0)
(105.38 0 0)
(105.954 0 0)
(106.555 0 0)
(107.18 0 0)
(107.825 0 0)
(108.488 0 0)
(109.167 0 0)
(109.859 0 0)
(110.563 0 0)
(111.278 0 0)
(112.002 0 0)
(112.734 0 0)
(113.473 0 0)
(114.219 0 0)
(114.97 0 0)
(115.726 0 0)
(116.486 0 0)
(117.25 0 0)
(118.017 0 0)
(118.787 0 0)
(119.559 0 0)
(120.333 0 0)
(121.109 0 0)
(121.886 0 0)
(122.664 0 0)
(123.443 0 0)
(124.225 0 0)
(124.997 0 0)
(125.802 0 0)
(126.504 0 0)
(127.528 0 0)
(233.473 0 0)
(231.664 0 0)
(229.806 0 0)
(227.894 0 0)
(225.927 0 0)
(223.9 0 0)
(221.811 0 0)
(219.654 0 0)
(217.426 0 0)
(215.122 0 0)
(212.735 0 0)
(210.258 0 0)
(207.685 0 0)
(205.007 0 0)
(202.212 0 0)
(199.289 0 0)
(196.223 0 0)
(192.997 0 0)
(189.589 0 0)
(185.973 0 0)
(182.115 0 0)
(177.971 0 0)
(173.487 0 0)
(168.587 0 0)
(163.18 0 0)
(157.175 0 0)
(150.542 0 0)
(143.394 0 0)
(136.04 0 0)
(128.941 0 0)
(122.55 0 0)
(117.167 0 0)
(112.881 0 0)
(109.612 0 0)
(107.202 0 0)
(105.473 0 0)
(104.268 0 0)
(103.462 0 0)
(102.958 0 0)
(102.687 0 0)
(102.594 0 0)
(102.643 0 0)
(102.804 0 0)
(103.055 0 0)
(103.381 0 0)
(103.768 0 0)
(104.206 0 0)
(104.687 0 0)
(105.204 0 0)
(105.753 0 0)
(106.329 0 0)
(106.928 0 0)
(107.547 0 0)
(108.184 0 0)
(108.837 0 0)
(109.502 0 0)
(110.18 0 0)
(110.869 0 0)
(111.566 0 0)
(112.272 0 0)
(112.985 0 0)
(113.704 0 0)
(114.429 0 0)
(115.159 0 0)
(115.893 0 0)
(116.631 0 0)
(117.372 0 0)
(118.116 0 0)
(118.863 0 0)
(119.611 0 0)
(120.362 0 0)
(121.113 0 0)
(121.867 0 0)
(122.62 0 0)
(123.377 0 0)
(124.124 0 0)
(124.903 0 0)
(125.584 0 0)
(126.574 0 0)
(231.376 0 0)
(229.569 0 0)
(227.713 0 0)
(225.803 0 0)
(223.838 0 0)
(221.813 0 0)
(219.726 0 0)
(217.571 0 0)
(215.344 0 0)
(213.04 0 0)
(210.654 0 0)
(208.177 0 0)
(205.603 0 0)
(202.921 0 0)
(200.122 0 0)
(197.193 0 0)
(194.118 0 0)
(190.88 0 0)
(187.456 0 0)
(183.817 0 0)
(179.93 0 0)
(175.747 0 0)
(171.212 0 0)
(166.246 0 0)
(160.763 0 0)
(154.688 0 0)
(148.031 0 0)
(140.956 0 0)
(133.808 0 0)
(127.033 0 0)
(121.032 0 0)
(116.035 0 0)
(112.08 0 0)
(109.071 0 0)
(106.849 0 0)
(105.249 0 0)
(104.13 0 0)
(103.377 0 0)
(102.903 0 0)
(102.646 0 0)
(102.557 0 0)
(102.602 0 0)
(102.753 0 0)
(102.99 0 0)
(103.298 0 0)
(103.666 0 0)
(104.083 0 0)
(104.542 0 0)
(105.036 0 0)
(105.561 0 0)
(106.112 0 0)
(106.687 0 0)
(107.281 0 0)
(107.892 0 0)
(108.519 0 0)
(109.16 0 0)
(109.812 0 0)
(110.475 0 0)
(111.147 0 0)
(111.827 0 0)
(112.514 0 0)
(113.208 0 0)
(113.907 0 0)
(114.612 0 0)
(115.32 0 0)
(116.033 0 0)
(116.749 0 0)
(117.468 0 0)
(118.189 0 0)
(118.913 0 0)
(119.639 0 0)
(120.366 0 0)
(121.094 0 0)
(121.823 0 0)
(122.555 0 0)
(123.279 0 0)
(124.033 0 0)
(124.692 0 0)
(125.649 0 0)
(229.279 0 0)
(227.474 0 0)
(225.62 0 0)
(223.713 0 0)
(221.749 0 0)
(219.727 0 0)
(217.641 0 0)
(215.487 0 0)
(213.262 0 0)
(210.959 0 0)
(208.572 0 0)
(206.094 0 0)
(203.517 0 0)
(200.832 0 0)
(198.028 0 0)
(195.091 0 0)
(192.006 0 0)
(188.753 0 0)
(185.31 0 0)
(181.646 0 0)
(177.725 0 0)
(173.5 0 0)
(168.908 0 0)
(163.873 0 0)
(158.313 0 0)
(152.181 0 0)
(145.526 0 0)
(138.562 0 0)
(131.653 0 0)
(125.222 0 0)
(119.609 0 0)
(114.982 0 0)
(111.339 0 0)
(108.57 0 0)
(106.522 0 0)
(105.041 0 0)
(104 0 0)
(103.296 0 0)
(102.851 0 0)
(102.608 0 0)
(102.522 0 0)
(102.562 0 0)
(102.704 0 0)
(102.928 0 0)
(103.22 0 0)
(103.569 0 0)
(103.966 0 0)
(104.403 0 0)
(104.875 0 0)
(105.377 0 0)
(105.905 0 0)
(106.455 0 0)
(107.025 0 0)
(107.612 0 0)
(108.214 0 0)
(108.83 0 0)
(109.457 0 0)
(110.095 0 0)
(110.742 0 0)
(111.397 0 0)
(112.06 0 0)
(112.729 0 0)
(113.403 0 0)
(114.083 0 0)
(114.767 0 0)
(115.455 0 0)
(116.147 0 0)
(116.841 0 0)
(117.538 0 0)
(118.238 0 0)
(118.939 0 0)
(119.642 0 0)
(120.347 0 0)
(121.051 0 0)
(121.76 0 0)
(122.46 0 0)
(123.19 0 0)
(123.828 0 0)
(124.753 0 0)
(227.183 0 0)
(225.38 0 0)
(223.528 0 0)
(221.623 0 0)
(219.662 0 0)
(217.641 0 0)
(215.556 0 0)
(213.404 0 0)
(211.179 0 0)
(208.876 0 0)
(206.488 0 0)
(204.008 0 0)
(201.429 0 0)
(198.739 0 0)
(195.928 0 0)
(192.982 0 0)
(189.884 0 0)
(186.615 0 0)
(183.15 0 0)
(179.458 0 0)
(175.5 0 0)
(171.227 0 0)
(166.574 0 0)
(161.466 0 0)
(155.835 0 0)
(149.66 0 0)
(143.039 0 0)
(136.222 0 0)
(129.584 0 0)
(123.51 0 0)
(118.28 0 0)
(114.006 0 0)
(110.654 0 0)
(108.107 0 0)
(106.218 0 0)
(104.848 0 0)
(103.879 0 0)
(103.221 0 0)
(102.803 0 0)
(102.572 0 0)
(102.489 0 0)
(102.525 0 0)
(102.658 0 0)
(102.869 0 0)
(103.145 0 0)
(103.476 0 0)
(103.854 0 0)
(104.271 0 0)
(104.721 0 0)
(105.201 0 0)
(105.706 0 0)
(106.233 0 0)
(106.78 0 0)
(107.343 0 0)
(107.922 0 0)
(108.513 0 0)
(109.116 0 0)
(109.73 0 0)
(110.353 0 0)
(110.984 0 0)
(111.622 0 0)
(112.267 0 0)
(112.917 0 0)
(113.573 0 0)
(114.233 0 0)
(114.897 0 0)
(115.565 0 0)
(116.236 0 0)
(116.909 0 0)
(117.585 0 0)
(118.263 0 0)
(118.942 0 0)
(119.623 0 0)
(120.305 0 0)
(120.99 0 0)
(121.667 0 0)
(122.373 0 0)
(122.991 0 0)
(123.885 0 0)
(225.087 0 0)
(223.287 0 0)
(221.437 0 0)
(219.533 0 0)
(217.574 0 0)
(215.555 0 0)
(213.472 0 0)
(211.32 0 0)
(209.095 0 0)
(206.791 0 0)
(204.402 0 0)
(201.92 0 0)
(199.336 0 0)
(196.641 0 0)
(193.821 0 0)
(190.864 0 0)
(187.752 0 0)
(184.464 0 0)
(180.974 0 0)
(177.25 0 0)
(173.251 0 0)
(168.925 0 0)
(164.207 0 0)
(159.026 0 0)
(153.331 0 0)
(147.137 0 0)
(140.582 0 0)
(133.95 0 0)
(127.608 0 0)
(121.899 0 0)
(117.042 0 0)
(113.102 0 0)
(110.022 0 0)
(107.679 0 0)
(105.937 0 0)
(104.668 0 0)
(103.766 0 0)
(103.15 0 0)
(102.756 0 0)
(102.538 0 0)
(102.458 0 0)
(102.49 0 0)
(102.614 0 0)
(102.813 0 0)
(103.074 0 0)
(103.389 0 0)
(103.747 0 0)
(104.145 0 0)
(104.575 0 0)
(105.033 0 0)
(105.516 0 0)
(106.021 0 0)
(106.545 0 0)
(107.085 0 0)
(107.64 0 0)
(108.209 0 0)
(108.788 0 0)
(109.379 0 0)
(109.978 0 0)
(110.586 0 0)
(111.2 0 0)
(111.822 0 0)
(112.449 0 0)
(113.081 0 0)
(113.718 0 0)
(114.359 0 0)
(115.003 0 0)
(115.651 0 0)
(116.301 0 0)
(116.954 0 0)
(117.609 0 0)
(118.265 0 0)
(118.924 0 0)
(119.582 0 0)
(120.245 0 0)
(120.9 0 0)
(121.582 0 0)
(122.18 0 0)
(123.044 0 0)
(222.991 0 0)
(221.193 0 0)
(219.345 0 0)
(217.444 0 0)
(215.487 0 0)
(213.469 0 0)
(211.386 0 0)
(209.235 0 0)
(207.01 0 0)
(204.705 0 0)
(202.314 0 0)
(199.828 0 0)
(197.239 0 0)
(194.536 0 0)
(191.707 0 0)
(188.737 0 0)
(185.608 0 0)
(182.298 0 0)
(178.78 0 0)
(175.021 0 0)
(170.976 0 0)
(166.592 0 0)
(161.806 0 0)
(156.555 0 0)
(150.808 0 0)
(144.62 0 0)
(138.169 0 0)
(131.756 0 0)
(125.732 0 0)
(120.39 0 0)
(115.893 0 0)
(112.268 0 0)
(109.438 0 0)
(107.284 0 0)
(105.677 0 0)
(104.501 0 0)
(103.661 0 0)
(103.084 0 0)
(102.713 0 0)
(102.505 0 0)
(102.428 0 0)
(102.457 0 0)
(102.572 0 0)
(102.76 0 0)
(103.007 0 0)
(103.305 0 0)
(103.646 0 0)
(104.024 0 0)
(104.434 0 0)
(104.872 0 0)
(105.334 0 0)
(105.817 0 0)
(106.319 0 0)
(106.837 0 0)
(107.37 0 0)
(107.916 0 0)
(108.473 0 0)
(109.041 0 0)
(109.617 0 0)
(110.202 0 0)
(110.794 0 0)
(111.393 0 0)
(111.997 0 0)
(112.606 0 0)
(113.221 0 0)
(113.839 0 0)
(114.461 0 0)
(115.086 0 0)
(115.713 0 0)
(116.344 0 0)
(116.976 0 0)
(117.611 0 0)
(118.247 0 0)
(118.883 0 0)
(119.524 0 0)
(120.157 0 0)
(120.816 0 0)
(121.395 0 0)
(122.23 0 0)
(220.896 0 0)
(219.1 0 0)
(217.255 0 0)
(215.355 0 0)
(213.399 0 0)
(211.382 0 0)
(209.3 0 0)
(207.149 0 0)
(204.923 0 0)
(202.616 0 0)
(200.221 0 0)
(197.731 0 0)
(195.135 0 0)
(192.424 0 0)
(189.583 0 0)
(186.599 0 0)
(183.45 0 0)
(180.116 0 0)
(176.567 0 0)
(172.767 0 0)
(168.672 0 0)
(164.227 0 0)
(159.371 0 0)
(154.055 0 0)
(148.275 0 0)
(142.123 0 0)
(135.812 0 0)
(129.65 0 0)
(123.959 0 0)
(118.981 0 0)
(114.829 0 0)
(111.498 0 0)
(108.9 0 0)
(106.919 0 0)
(105.435 0 0)
(104.345 0 0)
(103.562 0 0)
(103.022 0 0)
(102.672 0 0)
(102.475 0 0)
(102.4 0 0)
(102.426 0 0)
(102.533 0 0)
(102.709 0 0)
(102.943 0 0)
(103.225 0 0)
(103.549 0 0)
(103.909 0 0)
(104.3 0 0)
(104.718 0 0)
(105.16 0 0)
(105.622 0 0)
(106.103 0 0)
(106.6 0 0)
(107.111 0 0)
(107.635 0 0)
(108.17 0 0)
(108.716 0 0)
(109.27 0 0)
(109.833 0 0)
(110.403 0 0)
(110.979 0 0)
(111.561 0 0)
(112.149 0 0)
(112.741 0 0)
(113.337 0 0)
(113.937 0 0)
(114.54 0 0)
(115.146 0 0)
(115.755 0 0)
(116.365 0 0)
(116.978 0 0)
(117.592 0 0)
(118.207 0 0)
(118.826 0 0)
(119.438 0 0)
(120.075 0 0)
(120.636 0 0)
(121.441 0 0)
(218.801 0 0)
(217.008 0 0)
(215.164 0 0)
(213.266 0 0)
(211.311 0 0)
(209.294 0 0)
(207.212 0 0)
(205.06 0 0)
(202.833 0 0)
(200.523 0 0)
(198.124 0 0)
(195.628 0 0)
(193.025 0 0)
(190.303 0 0)
(187.449 0 0)
(184.447 0 0)
(181.277 0 0)
(177.915 0 0)
(174.331 0 0)
(170.487 0 0)
(166.337 0 0)
(161.828 0 0)
(156.903 0 0)
(151.532 0 0)
(145.742 0 0)
(139.66 0 0)
(133.525 0 0)
(127.641 0 0)
(122.292 0 0)
(117.67 0 0)
(113.846 0 0)
(110.788 0 0)
(108.404 0 0)
(106.582 0 0)
(105.212 0 0)
(104.2 0 0)
(103.47 0 0)
(102.964 0 0)
(102.634 0 0)
(102.446 0 0)
(102.374 0 0)
(102.396 0 0)
(102.496 0 0)
(102.661 0 0)
(102.882 0 0)
(103.15 0 0)
(103.457 0 0)
(103.8 0 0)
(104.172 0 0)
(104.571 0 0)
(104.993 0 0)
(105.435 0 0)
(105.896 0 0)
(106.372 0 0)
(106.862 0 0)
(107.365 0 0)
(107.879 0 0)
(108.403 0 0)
(108.936 0 0)
(109.477 0 0)
(110.026 0 0)
(110.581 0 0)
(111.142 0 0)
(111.708 0 0)
(112.278 0 0)
(112.853 0 0)
(113.432 0 0)
(114.013 0 0)
(114.598 0 0)
(115.185 0 0)
(115.775 0 0)
(116.366 0 0)
(116.96 0 0)
(117.554 0 0)
(118.152 0 0)
(118.743 0 0)
(119.358 0 0)
(119.9 0 0)
(120.678 0 0)
(216.706 0 0)
(214.915 0 0)
(213.072 0 0)
(211.176 0 0)
(209.221 0 0)
(207.205 0 0)
(205.123 0 0)
(202.969 0 0)
(200.739 0 0)
(198.426 0 0)
(196.022 0 0)
(193.519 0 0)
(190.906 0 0)
(188.172 0 0)
(185.303 0 0)
(182.282 0 0)
(179.087 0 0)
(175.693 0 0)
(172.07 0 0)
(168.178 0 0)
(163.97 0 0)
(159.394 0 0)
(154.405 0 0)
(148.994 0 0)
(143.22 0 0)
(137.244 0 0)
(131.32 0 0)
(125.734 0 0)
(120.731 0 0)
(116.455 0 0)
(112.94 0 0)
(110.135 0 0)
(107.948 0 0)
(106.271 0 0)
(105.005 0 0)
(104.065 0 0)
(103.384 0 0)
(102.909 0 0)
(102.598 0 0)
(102.419 0 0)
(102.349 0 0)
(102.368 0 0)
(102.461 0 0)
(102.616 0 0)
(102.824 0 0)
(103.078 0 0)
(103.37 0 0)
(103.695 0 0)
(104.05 0 0)
(104.431 0 0)
(104.834 0 0)
(105.257 0 0)
(105.697 0 0)
(106.153 0 0)
(106.623 0 0)
(107.106 0 0)
(107.599 0 0)
(108.103 0 0)
(108.615 0 0)
(109.136 0 0)
(109.663 0 0)
(110.197 0 0)
(110.737 0 0)
(111.282 0 0)
(111.832 0 0)
(112.386 0 0)
(112.944 0 0)
(113.505 0 0)
(114.069 0 0)
(114.636 0 0)
(115.205 0 0)
(115.776 0 0)
(116.348 0 0)
(116.922 0 0)
(117.499 0 0)
(118.07 0 0)
(118.665 0 0)
(119.189 0 0)
(119.939 0 0)
(214.611 0 0)
(212.821 0 0)
(210.98 0 0)
(209.084 0 0)
(207.13 0 0)
(205.114 0 0)
(203.03 0 0)
(200.875 0 0)
(198.641 0 0)
(196.323 0 0)
(193.913 0 0)
(191.401 0 0)
(188.778 0 0)
(186.03 0 0)
(183.143 0 0)
(180.099 0 0)
(176.877 0 0)
(173.449 0 0)
(169.782 0 0)
(165.837 0 0)
(161.567 0 0)
(156.926 0 0)
(151.882 0 0)
(146.45 0 0)
(140.724 0 0)
(134.89 0 0)
(129.206 0 0)
(123.935 0 0)
(119.276 0 0)
(115.332 0 0)
(112.105 0 0)
(109.535 0 0)
(107.527 0 0)
(105.983 0 0)
(104.813 0 0)
(103.94 0 0)
(103.304 0 0)
(102.857 0 0)
(102.564 0 0)
(102.394 0 0)
(102.325 0 0)
(102.341 0 0)
(102.428 0 0)
(102.573 0 0)
(102.77 0 0)
(103.009 0 0)
(103.286 0 0)
(103.596 0 0)
(103.934 0 0)
(104.297 0 0)
(104.682 0 0)
(105.086 0 0)
(105.507 0 0)
(105.944 0 0)
(106.394 0 0)
(106.857 0 0)
(107.331 0 0)
(107.814 0 0)
(108.307 0 0)
(108.807 0 0)
(109.314 0 0)
(109.828 0 0)
(110.348 0 0)
(110.873 0 0)
(111.402 0 0)
(111.936 0 0)
(112.474 0 0)
(113.015 0 0)
(113.559 0 0)
(114.105 0 0)
(114.654 0 0)
(115.205 0 0)
(115.758 0 0)
(116.312 0 0)
(116.869 0 0)
(117.42 0 0)
(117.994 0 0)
(118.501 0 0)
(119.224 0 0)
(212.515 0 0)
(210.727 0 0)
(208.887 0 0)
(206.991 0 0)
(205.037 0 0)
(203.02 0 0)
(200.934 0 0)
(198.776 0 0)
(196.538 0 0)
(194.214 0 0)
(191.796 0 0)
(189.275 0 0)
(186.638 0 0)
(183.875 0 0)
(180.968 0 0)
(177.899 0 0)
(174.645 0 0)
(171.178 0 0)
(167.464 0 0)
(163.463 0 0)
(159.13 0 0)
(154.427 0 0)
(149.341 0 0)
(143.913 0 0)
(138.268 0 0)
(132.611 0 0)
(127.193 0 0)
(122.245 0 0)
(117.925 0 0)
(114.295 0 0)
(111.338 0 0)
(108.983 0 0)
(107.14 0 0)
(105.718 0 0)
(104.634 0 0)
(103.823 0 0)
(103.229 0 0)
(102.809 0 0)
(102.532 0 0)
(102.37 0 0)
(102.303 0 0)
(102.316 0 0)
(102.396 0 0)
(102.533 0 0)
(102.718 0 0)
(102.944 0 0)
(103.207 0 0)
(103.501 0 0)
(103.823 0 0)
(104.169 0 0)
(104.536 0 0)
(104.922 0 0)
(105.325 0 0)
(105.743 0 0)
(106.175 0 0)
(106.619 0 0)
(107.073 0 0)
(107.537 0 0)
(108.01 0 0)
(108.491 0 0)
(108.979 0 0)
(109.473 0 0)
(109.973 0 0)
(110.478 0 0)
(110.988 0 0)
(111.502 0 0)
(112.02 0 0)
(112.542 0 0)
(113.066 0 0)
(113.593 0 0)
(114.122 0 0)
(114.654 0 0)
(115.187 0 0)
(115.722 0 0)
(116.259 0 0)
(116.792 0 0)
(117.346 0 0)
(117.835 0 0)
(118.533 0 0)
(210.419 0 0)
(208.631 0 0)
(206.792 0 0)
(204.896 0 0)
(202.941 0 0)
(200.922 0 0)
(198.834 0 0)
(196.671 0 0)
(194.428 0 0)
(192.097 0 0)
(189.67 0 0)
(187.137 0 0)
(184.486 0 0)
(181.704 0 0)
(178.774 0 0)
(175.677 0 0)
(172.388 0 0)
(168.879 0 0)
(165.114 0 0)
(161.054 0 0)
(156.659 0 0)
(151.902 0 0)
(146.79 0 0)
(141.395 0 0)
(135.867 0 0)
(130.42 0 0)
(125.288 0 0)
(120.667 0 0)
(116.674 0 0)
(113.341 0 0)
(110.633 0 0)
(108.476 0 0)
(106.783 0 0)
(105.472 0 0)
(104.469 0 0)
(103.714 0 0)
(103.158 0 0)
(102.764 0 0)
(102.501 0 0)
(102.347 0 0)
(102.282 0 0)
(102.293 0 0)
(102.366 0 0)
(102.494 0 0)
(102.669 0 0)
(102.883 0 0)
(103.132 0 0)
(103.411 0 0)
(103.717 0 0)
(104.047 0 0)
(104.397 0 0)
(104.766 0 0)
(105.151 0 0)
(105.551 0 0)
(105.965 0 0)
(106.39 0 0)
(106.826 0 0)
(107.271 0 0)
(107.725 0 0)
(108.187 0 0)
(108.656 0 0)
(109.131 0 0)
(109.612 0 0)
(110.098 0 0)
(110.589 0 0)
(111.084 0 0)
(111.583 0 0)
(112.086 0 0)
(112.591 0 0)
(113.099 0 0)
(113.609 0 0)
(114.122 0 0)
(114.636 0 0)
(115.152 0 0)
(115.671 0 0)
(116.185 0 0)
(116.719 0 0)
(117.192 0 0)
(117.864 0 0)
(208.32 0 0)
(206.533 0 0)
(204.694 0 0)
(202.798 0 0)
(200.841 0 0)
(198.82 0 0)
(196.728 0 0)
(194.561 0 0)
(192.311 0 0)
(189.972 0 0)
(187.534 0 0)
(184.987 0 0)
(182.319 0 0)
(179.516 0 0)
(176.561 0 0)
(173.432 0 0)
(170.105 0 0)
(166.549 0 0)
(162.73 0 0)
(158.61 0 0)
(154.156 0 0)
(149.356 0 0)
(144.242 0 0)
(138.913 0 0)
(133.536 0 0)
(128.326 0 0)
(123.494 0 0)
(119.198 0 0)
(115.52 0 0)
(112.465 0 0)
(109.986 0 0)
(108.01 0 0)
(106.455 0 0)
(105.245 0 0)
(104.316 0 0)
(103.612 0 0)
(103.092 0 0)
(102.721 0 0)
(102.473 0 0)
(102.325 0 0)
(102.262 0 0)