/*--------------------------------*- C++ -*----------------------------------*\
| =========                 |                                                 |
| \\      /  F ield         | OpenFOAM: The Open Source CFD Toolbox           |
|  \\    /   O peration     | Version:  2312                                  |
|   \\  /    A nd           | Website:  www.openfoam.com                      |
|    \\/     M anipulation  |                                                 |
\*---------------------------------------------------------------------------*/
FoamFile
{
    version     2.0;
    format      ascii;
    arch        "LSB;label=32;scalar=64";
    class       volVectorField;
    location    "0.724";
    object      U;
}
// * * * * * * * * * * * * * * * * * * * * * * * * * * * * * * * * * * * * * //

dimensions      [0 1 -1 0 0 0 0];

internalField   nonuniform List<vector> 
31205
(
(280.215 0 0)
(281.408 0 0)
(282.559 0 0)
(283.668 0 0)
(284.735 0 0)
(285.762 0 0)
(286.749 0 0)
(287.697 0 0)
(288.607 0 0)
(289.479 0 0)
(290.313 0 0)
(291.11 0 0)
(291.871 0 0)
(292.595 0 0)
(293.284 0 0)
(293.937 0 0)
(294.554 0 0)
(295.136 0 0)
(295.683 0 0)
(296.195 0 0)
(296.673 0 0)
(297.115 0 0)
(297.523 0 0)
(297.896 0 0)
(298.234 0 0)
(298.537 0 0)
(298.805 0 0)
(299.038 0 0)
(299.236 0 0)
(299.397 0 0)
(299.523 0 0)
(299.612 0 0)
(299.665 0 0)
(299.681 0 0)
(299.658 0 0)
(299.598 0 0)
(299.499 0 0)
(299.361 0 0)
(299.182 0 0)
(298.962 0 0)
(298.701 0 0)
(298.397 0 0)
(298.049 0 0)
(297.656 0 0)
(297.216 0 0)
(296.729 0 0)
(296.193 0 0)
(295.606 0 0)
(294.966 0 0)
(294.271 0 0)
(293.52 0 0)
(292.709 0 0)
(291.835 0 0)
(290.896 0 0)
(289.887 0 0)
(288.806 0 0)
(287.647 0 0)
(286.406 0 0)
(285.075 0 0)
(283.65 0 0)
(282.121 0 0)
(280.475 0 0)
(278.701 0 0)
(276.807 0 0)
(274.8 0 0)
(272.542 0 0)
(269.75 0 0)
(266.765 0 0)
(265.471 0 0)
(266.274 0 0)
(258.736 0 0)
(224.362 0 0)
(171.316 0 0)
(132.244 0 0)
(115.41 0 0)
(110.222 0 0)
(109.166 0 0)
(109.262 0 0)
(110.111 0 0)
(281.48 0 0)
(282.594 0 0)
(283.669 0 0)
(284.705 0 0)
(285.703 0 0)
(286.663 0 0)
(287.587 0 0)
(288.475 0 0)
(289.327 0 0)
(290.143 0 0)
(290.925 0 0)
(291.672 0 0)
(292.385 0 0)
(293.064 0 0)
(293.709 0 0)
(294.321 0 0)
(294.9 0 0)
(295.446 0 0)
(295.959 0 0)
(296.439 0 0)
(296.886 0 0)
(297.301 0 0)
(297.682 0 0)
(298.031 0 0)
(298.348 0 0)
(298.631 0 0)
(298.881 0 0)
(299.098 0 0)
(299.282 0 0)
(299.431 0 0)
(299.547 0 0)
(299.629 0 0)
(299.676 0 0)
(299.688 0 0)
(299.665 0 0)
(299.605 0 0)
(299.509 0 0)
(299.376 0 0)
(299.205 0 0)
(298.996 0 0)
(298.747 0 0)
(298.458 0 0)
(298.129 0 0)
(297.757 0 0)
(297.341 0 0)
(296.881 0 0)
(296.376 0 0)
(295.823 0 0)
(295.22 0 0)
(294.567 0 0)
(293.862 0 0)
(293.101 0 0)
(292.283 0 0)
(291.405 0 0)
(290.463 0 0)
(289.455 0 0)
(288.377 0 0)
(287.224 0 0)
(285.991 0 0)
(284.672 0 0)
(283.263 0 0)
(281.754 0 0)
(280.133 0 0)
(278.388 0 0)
(276.528 0 0)
(274.562 0 0)
(272.37 0 0)
(269.662 0 0)
(266.687 0 0)
(265.239 0 0)
(266.198 0 0)
(260.417 0 0)
(228.89 0 0)
(176.06 0 0)
(134.72 0 0)
(116.177 0 0)
(110.357 0 0)
(108.967 0 0)
(109.311 0 0)
(282.715 0 0)
(283.754 0 0)
(284.756 0 0)
(285.722 0 0)
(286.653 0 0)
(287.55 0 0)
(288.413 0 0)
(289.242 0 0)
(290.038 0 0)
(290.801 0 0)
(291.532 0 0)
(292.23 0 0)
(292.897 0 0)
(293.531 0 0)
(294.135 0 0)
(294.707 0 0)
(295.248 0 0)
(295.758 0 0)
(296.237 0 0)
(296.686 0 0)
(297.103 0 0)
(297.49 0 0)
(297.846 0 0)
(298.171 0 0)
(298.465 0 0)
(298.728 0 0)
(298.96 0 0)
(299.161 0 0)
(299.33 0 0)
(299.467 0 0)
(299.572 0 0)
(299.645 0 0)
(299.686 0 0)
(299.693 0 0)
(299.667 0 0)
(299.607 0 0)
(299.512 0 0)
(299.383 0 0)
(299.218 0 0)
(299.017 0 0)
(298.779 0 0)
(298.503 0 0)
(298.189 0 0)
(297.835 0 0)
(297.44 0 0)
(297.004 0 0)
(296.525 0 0)
(296.002 0 0)
(295.434 0 0)
(294.818 0 0)
(294.153 0 0)
(293.437 0 0)
(292.668 0 0)
(291.844 0 0)
(290.962 0 0)
(290.019 0 0)
(289.012 0 0)
(287.937 0 0)
(286.79 0 0)
(285.566 0 0)
(284.26 0 0)
(282.866 0 0)
(281.377 0 0)
(279.781 0 0)
(278.064 0 0)
(276.236 0 0)
(274.31 0 0)
(272.182 0 0)
(269.565 0 0)
(266.608 0 0)
(264.98 0 0)
(265.973 0 0)
(261.792 0 0)
(233.299 0 0)
(181.119 0 0)
(137.516 0 0)
(117.13 0 0)
(110.438 0 0)
(109.058 0 0)
(283.889 0 0)
(284.856 0 0)
(285.79 0 0)
(286.691 0 0)
(287.56 0 0)
(288.396 0 0)
(289.201 0 0)
(289.975 0 0)
(290.719 0 0)
(291.431 0 0)
(292.113 0 0)
(292.766 0 0)
(293.388 0 0)
(293.981 0 0)
(294.545 0 0)
(295.079 0 0)
(295.584 0 0)
(296.06 0 0)
(296.507 0 0)
(296.925 0 0)
(297.314 0 0)
(297.674 0 0)
(298.005 0 0)
(298.307 0 0)
(298.579 0 0)
(298.823 0 0)
(299.037 0 0)
(299.222 0 0)
(299.377 0 0)
(299.502 0 0)
(299.596 0 0)
(299.661 0 0)
(299.694 0 0)
(299.697 0 0)
(299.667 0 0)
(299.606 0 0)
(299.513 0 0)
(299.386 0 0)
(299.226 0 0)
(299.032 0 0)
(298.803 0 0)
(298.539 0 0)
(298.238 0 0)
(297.901 0 0)
(297.525 0 0)
(297.111 0 0)
(296.656 0 0)
(296.161 0 0)
(295.622 0 0)
(295.04 0 0)
(294.412 0 0)
(293.737 0 0)
(293.013 0 0)
(292.238 0 0)
(291.41 0 0)
(290.526 0 0)
(289.583 0 0)
(288.578 0 0)
(287.508 0 0)
(286.369 0 0)
(285.156 0 0)
(283.863 0 0)
(282.487 0 0)
(281.019 0 0)
(279.448 0 0)
(277.762 0 0)
(275.967 0 0)
(274.08 0 0)
(272.016 0 0)
(269.498 0 0)
(266.572 0 0)
(264.747 0 0)
(265.673 0 0)
(263.035 0 0)
(237.987 0 0)
(187.007 0 0)
(141.051 0 0)
(118.308 0 0)
(110.709 0 0)
(284.99 0 0)
(285.892 0 0)
(286.762 0 0)
(287.602 0 0)
(288.412 0 0)
(289.193 0 0)
(289.944 0 0)
(290.666 0 0)
(291.36 0 0)
(292.025 0 0)
(292.662 0 0)
(293.271 0 0)
(293.852 0 0)
(294.406 0 0)
(294.932 0 0)
(295.43 0 0)
(295.901 0 0)
(296.345 0 0)
(296.761 0 0)
(297.151 0 0)
(297.513 0 0)
(297.847 0 0)
(298.155 0 0)
(298.435 0 0)
(298.688 0 0)
(298.913 0 0)
(299.11 0 0)
(299.28 0 0)
(299.421 0 0)
(299.534 0 0)
(299.619 0 0)
(299.675 0 0)
(299.702 0 0)
(299.7 0 0)
(299.667 0 0)
(299.605 0 0)
(299.512 0 0)
(299.388 0 0)
(299.233 0 0)
(299.045 0 0)
(298.825 0 0)
(298.571 0 0)
(298.284 0 0)
(297.961 0 0)
(297.603 0 0)
(297.209 0 0)
(296.777 0 0)
(296.307 0 0)
(295.796 0 0)
(295.245 0 0)
(294.652 0 0)
(294.015 0 0)
(293.332 0 0)
(292.603 0 0)
(291.824 0 0)
(290.994 0 0)
(290.11 0 0)
(289.169 0 0)
(288.169 0 0)
(287.107 0 0)
(285.977 0 0)
(284.777 0 0)
(283.501 0 0)
(282.144 0 0)
(280.7 0 0)
(279.158 0 0)
(277.505 0 0)
(275.745 0 0)
(273.898 0 0)
(271.902 0 0)
(269.495 0 0)
(266.619 0 0)
(264.566 0 0)
(265.285 0 0)
(264.179 0 0)
(243.288 0 0)
(194.498 0 0)
(145.928 0 0)
(119.477 0 0)
(286.019 0 0)
(286.859 0 0)
(287.671 0 0)
(288.454 0 0)
(289.21 0 0)
(289.938 0 0)
(290.639 0 0)
(291.313 0 0)
(291.961 0 0)
(292.582 0 0)
(293.176 0 0)
(293.745 0 0)
(294.287 0 0)
(294.804 0 0)
(295.294 0 0)
(295.759 0 0)
(296.198 0 0)
(296.612 0 0)
(297 0 0)
(297.362 0 0)
(297.699 0 0)
(298.01 0 0)
(298.295 0 0)
(298.555 0 0)
(298.789 0 0)
(298.997 0 0)
(299.178 0 0)
(299.333 0 0)
(299.462 0 0)
(299.565 0 0)
(299.64 0 0)
(299.688 0 0)
(299.709 0 0)
(299.702 0 0)
(299.667 0 0)
(299.603 0 0)
(299.511 0 0)
(299.39 0 0)
(299.238 0 0)
(299.057 0 0)
(298.845 0 0)
(298.602 0 0)
(298.326 0 0)
(298.018 0 0)
(297.677 0 0)
(297.301 0 0)
(296.89 0 0)
(296.444 0 0)
(295.96 0 0)
(295.438 0 0)
(294.877 0 0)
(294.275 0 0)
(293.631 0 0)
(292.944 0 0)
(292.211 0 0)
(291.43 0 0)
(290.601 0 0)
(289.72 0 0)
(288.784 0 0)
(287.792 0 0)
(286.739 0 0)
(285.623 0 0)
(284.438 0 0)
(283.181 0 0)
(281.846 0 0)
(280.429 0 0)
(278.918 0 0)
(277.302 0 0)
(275.581 0 0)
(273.775 0 0)
(271.848 0 0)
(269.565 0 0)
(266.768 0 0)
(264.472 0 0)
(264.813 0 0)
(265.071 0 0)
(249.003 0 0)
(204.302 0 0)
(149.434 0 0)
(286.98 0 0)
(287.763 0 0)
(288.519 0 0)
(289.25 0 0)
(289.955 0 0)
(290.635 0 0)
(291.289 0 0)
(291.918 0 0)
(292.522 0 0)
(293.102 0 0)
(293.657 0 0)
(294.187 0 0)
(294.693 0 0)
(295.175 0 0)
(295.633 0 0)
(296.066 0 0)
(296.476 0 0)
(296.861 0 0)
(297.222 0 0)
(297.559 0 0)
(297.872 0 0)
(298.161 0 0)
(298.426 0 0)
(298.666 0 0)
(298.882 0 0)
(299.074 0 0)
(299.241 0 0)
(299.383 0 0)
(299.5 0 0)
(299.592 0 0)
(299.658 0 0)
(299.699 0 0)
(299.714 0 0)
(299.703 0 0)
(299.666 0 0)
(299.601 0 0)
(299.51 0 0)
(299.391 0 0)
(299.244 0 0)
(299.069 0 0)
(298.864 0 0)
(298.631 0 0)
(298.367 0 0)
(298.072 0 0)
(297.746 0 0)
(297.389 0 0)
(296.998 0 0)
(296.574 0 0)
(296.115 0 0)
(295.62 0 0)
(295.089 0 0)
(294.521 0 0)
(293.913 0 0)
(293.264 0 0)
(292.574 0 0)
(291.84 0 0)
(291.061 0 0)
(290.235 0 0)
(289.359 0 0)
(288.431 0 0)
(287.448 0 0)
(286.408 0 0)
(285.307 0 0)
(284.141 0 0)
(282.905 0 0)
(281.595 0 0)
(280.207 0 0)
(278.73 0 0)
(277.154 0 0)
(275.475 0 0)
(273.711 0 0)
(271.852 0 0)
(269.701 0 0)
(267.024 0 0)
(264.501 0 0)
(264.35 0 0)
(265.182 0 0)
(256.644 0 0)
(205.686 0 0)
(287.875 0 0)
(288.605 0 0)
(289.311 0 0)
(289.993 0 0)
(290.651 0 0)
(291.285 0 0)
(291.895 0 0)
(292.482 0 0)
(293.046 0 0)
(293.587 0 0)
(294.105 0 0)
(294.6 0 0)
(295.072 0 0)
(295.522 0 0)
(295.949 0 0)
(296.353 0 0)
(296.734 0 0)
(297.093 0 0)
(297.429 0 0)
(297.743 0 0)
(298.034 0 0)
(298.302 0 0)
(298.547 0 0)
(298.77 0 0)
(298.969 0 0)
(299.145 0 0)
(299.298 0 0)
(299.428 0 0)
(299.534 0 0)
(299.616 0 0)
(299.675 0 0)
(299.709 0 0)
(299.719 0 0)
(299.704 0 0)
(299.664 0 0)
(299.599 0 0)
(299.509 0 0)
(299.392 0 0)
(299.249 0 0)
(299.08 0 0)
(298.883 0 0)
(298.658 0 0)
(298.405 0 0)
(298.124 0 0)
(297.813 0 0)
(297.472 0 0)
(297.1 0 0)
(296.697 0 0)
(296.262 0 0)
(295.793 0 0)
(295.29 0 0)
(294.752 0 0)
(294.178 0 0)
(293.567 0 0)
(292.916 0 0)
(292.226 0 0)
(291.493 0 0)
(290.718 0 0)
(289.897 0 0)
(289.028 0 0)
(288.11 0 0)
(287.14 0 0)
(286.114 0 0)
(285.03 0 0)
(283.885 0 0)
(282.673 0 0)
(281.391 0 0)
(280.033 0 0)
(278.594 0 0)
(277.061 0 0)
(275.426 0 0)
(273.707 0 0)
(271.909 0 0)
(269.899 0 0)
(267.337 0 0)
(264.901 0 0)
(262.947 0 0)
(268.937 0 0)
(248.766 0 0)
(288.711 0 0)
(289.392 0 0)
(290.05 0 0)
(290.686 0 0)
(291.3 0 0)
(291.892 0 0)
(292.461 0 0)
(293.009 0 0)
(293.536 0 0)
(294.04 0 0)
(294.524 0 0)
(294.986 0 0)
(295.426 0 0)
(295.845 0 0)
(296.243 0 0)
(296.62 0 0)
(296.975 0 0)
(297.309 0 0)
(297.622 0 0)
(297.913 0 0)
(298.183 0 0)
(298.432 0 0)
(298.659 0 0)
(298.865 0 0)
(299.049 0 0)
(299.211 0 0)
(299.351 0 0)
(299.469 0 0)
(299.565 0 0)
(299.638 0 0)
(299.689 0 0)
(299.717 0 0)
(299.723 0 0)
(299.704 0 0)
(299.663 0 0)
(299.597 0 0)
(299.507 0 0)
(299.393 0 0)
(299.254 0 0)
(299.09 0 0)
(298.9 0 0)
(298.685 0 0)
(298.442 0 0)
(298.173 0 0)
(297.876 0 0)
(297.551 0 0)
(297.197 0 0)
(296.814 0 0)
(296.401 0 0)
(295.956 0 0)
(295.48 0 0)
(294.971 0 0)
(294.429 0 0)
(293.851 0 0)
(293.238 0 0)
(292.588 0 0)
(291.899 0 0)
(291.171 0 0)
(290.401 0 0)
(289.587 0 0)
(288.728 0 0)
(287.822 0 0)
(286.866 0 0)
(285.857 0 0)
(284.793 0 0)
(283.67 0 0)
(282.484 0 0)
(281.231 0 0)
(279.908 0 0)
(278.507 0 0)
(277.018 0 0)
(275.434 0 0)
(273.756 0 0)
(272.039 0 0)
(270.041 0 0)
(268.117 0 0)
(264.093 0 0)
(265.956 0 0)
(261.408 0 0)
(289.491 0 0)
(290.126 0 0)
(290.74 0 0)
(291.333 0 0)
(291.906 0 0)
(292.458 0 0)
(292.99 0 0)
(293.501 0 0)
(293.992 0 0)
(294.463 0 0)
(294.914 0 0)
(295.345 0 0)
(295.756 0 0)
(296.147 0 0)
(296.518 0 0)
(296.868 0 0)
(297.199 0 0)
(297.51 0 0)
(297.801 0 0)
(298.072 0 0)
(298.322 0 0)
(298.553 0 0)
(298.763 0 0)
(298.953 0 0)
(299.122 0 0)
(299.271 0 0)
(299.399 0 0)
(299.506 0 0)
(299.593 0 0)
(299.658 0 0)
(299.702 0 0)
(299.724 0 0)
(299.725 0 0)
(299.704 0 0)
(299.66 0 0)
(299.594 0 0)
(299.506 0 0)
(299.394 0 0)
(299.259 0 0)
(299.1 0 0)
(298.917 0 0)
(298.71 0 0)
(298.478 0 0)
(298.22 0 0)
(297.936 0 0)
(297.627 0 0)
(297.29 0 0)
(296.925 0 0)
(296.533 0 0)
(296.111 0 0)
(295.66 0 0)
(295.178 0 0)
(294.665 0 0)
(294.12 0 0)
(293.542 0 0)
(292.929 0 0)
(292.281 0 0)
(291.596 0 0)
(290.873 0 0)
(290.11 0 0)
(289.306 0 0)
(288.459 0 0)
(287.566 0 0)
(286.626 0 0)
(285.636 0 0)
(284.593 0 0)
(283.495 0 0)
(282.337 0 0)
(281.116 0 0)
(279.827 0 0)
(278.466 0 0)
(277.027 0 0)
(275.483 0 0)
(273.899 0 0)
(272.085 0 0)
(270.634 0 0)
(267.806 0 0)
(266.122 0 0)
(263.762 0 0)
(290.219 0 0)
(290.811 0 0)
(291.384 0 0)
(291.938 0 0)
(292.472 0 0)
(292.987 0 0)
(293.483 0 0)
(293.961 0 0)
(294.419 0 0)
(294.858 0 0)
(295.279 0 0)
(295.681 0 0)
(296.064 0 0)
(296.428 0 0)
(296.773 0 0)
(297.1 0 0)
(297.408 0 0)
(297.697 0 0)
(297.967 0 0)
(298.219 0 0)
(298.451 0 0)
(298.665 0 0)
(298.859 0 0)
(299.034 0 0)
(299.19 0 0)
(299.326 0 0)
(299.443 0 0)
(299.54 0 0)
(299.618 0 0)
(299.676 0 0)
(299.713 0 0)
(299.73 0 0)
(299.727 0 0)
(299.703 0 0)
(299.658 0 0)
(299.592 0 0)
(299.504 0 0)
(299.395 0 0)
(299.264 0 0)
(299.11 0 0)
(298.934 0 0)
(298.734 0 0)
(298.511 0 0)
(298.265 0 0)
(297.994 0 0)
(297.698 0 0)
(297.377 0 0)
(297.031 0 0)
(296.658 0 0)
(296.258 0 0)
(295.83 0 0)
(295.374 0 0)
(294.889 0 0)
(294.374 0 0)
(293.828 0 0)
(293.25 0 0)
(292.64 0 0)
(291.996 0 0)
(291.316 0 0)
(290.6 0 0)
(289.847 0 0)
(289.054 0 0)
(288.219 0 0)
(287.342 0 0)
(286.42 0 0)
(285.45 0 0)
(284.431 0 0)
(283.359 0 0)
(282.23 0 0)
(281.042 0 0)
(279.79 0 0)
(278.474 0 0)
(277.068 0 0)
(275.622 0 0)
(273.979 0 0)
(272.466 0 0)
(270.63 0 0)
(268.746 0 0)
(266.028 0 0)
(290.899 0 0)
(291.451 0 0)
(291.986 0 0)
(292.502 0 0)
(293.001 0 0)
(293.481 0 0)
(293.944 0 0)
(294.389 0 0)
(294.817 0 0)
(295.227 0 0)
(295.619 0 0)
(295.994 0 0)
(296.35 0 0)
(296.69 0 0)
(297.012 0 0)
(297.316 0 0)
(297.602 0 0)
(297.871 0 0)
(298.122 0 0)
(298.355 0 0)
(298.57 0 0)
(298.768 0 0)
(298.947 0 0)
(299.109 0 0)
(299.252 0 0)
(299.377 0 0)
(299.483 0 0)
(299.571 0 0)
(299.64 0 0)
(299.691 0 0)
(299.722 0 0)
(299.735 0 0)
(299.728 0 0)
(299.701 0 0)
(299.655 0 0)
(299.589 0 0)
(299.502 0 0)
(299.395 0 0)
(299.268 0 0)
(299.119 0 0)
(298.949 0 0)
(298.757 0 0)
(298.544 0 0)
(298.307 0 0)
(298.049 0 0)
(297.766 0 0)
(297.461 0 0)
(297.131 0 0)
(296.776 0 0)
(296.396 0 0)
(295.991 0 0)
(295.559 0 0)
(295.1 0 0)
(294.613 0 0)
(294.098 0 0)
(293.553 0 0)
(292.977 0 0)
(292.371 0 0)
(291.732 0 0)
(291.06 0 0)
(290.353 0 0)
(289.61 0 0)
(288.83 0 0)
(288.011 0 0)
(287.15 0 0)
(286.247 0 0)
(285.3 0 0)
(284.305 0 0)
(283.26 0 0)
(282.163 0 0)
(281.008 0 0)
(279.797 0 0)
(278.513 0 0)
(277.181 0 0)
(275.738 0 0)
(274.246 0 0)
(272.629 0 0)
(271.166 0 0)
(268.638 0 0)
(291.533 0 0)
(292.049 0 0)
(292.547 0 0)
(293.029 0 0)
(293.494 0 0)
(293.942 0 0)
(294.374 0 0)
(294.79 0 0)
(295.188 0 0)
(295.57 0 0)
(295.936 0 0)
(296.285 0 0)
(296.618 0 0)
(296.934 0 0)
(297.233 0 0)
(297.516 0 0)
(297.783 0 0)
(298.032 0 0)
(298.265 0 0)
(298.482 0 0)
(298.681 0 0)
(298.864 0 0)
(299.029 0 0)
(299.178 0 0)
(299.309 0 0)
(299.423 0 0)
(299.52 0 0)
(299.599 0 0)
(299.661 0 0)
(299.704 0 0)
(299.73 0 0)
(299.738 0 0)
(299.728 0 0)
(299.699 0 0)
(299.652 0 0)
(299.586 0 0)
(299.5 0 0)
(299.396 0 0)
(299.272 0 0)
(299.128 0 0)
(298.964 0 0)
(298.779 0 0)
(298.574 0 0)
(298.348 0 0)
(298.101 0 0)
(297.831 0 0)
(297.54 0 0)
(297.226 0 0)
(296.889 0 0)
(296.528 0 0)
(296.143 0 0)
(295.734 0 0)
(295.299 0 0)
(294.839 0 0)
(294.352 0 0)
(293.838 0 0)
(293.295 0 0)
(292.724 0 0)
(292.123 0 0)
(291.492 0 0)
(290.828 0 0)
(290.131 0 0)
(289.401 0 0)
(288.635 0 0)
(287.831 0 0)
(286.989 0 0)
(286.107 0 0)
(285.182 0 0)
(284.213 0 0)
(283.197 0 0)
(282.131 0 0)
(281.014 0 0)
(279.837 0 0)
(278.606 0 0)
(277.304 0 0)
(275.952 0 0)
(274.434 0 0)
(273.132 0 0)
(270.931 0 0)
(292.126 0 0)
(292.606 0 0)
(293.071 0 0)
(293.521 0 0)
(293.955 0 0)
(294.373 0 0)
(294.776 0 0)
(295.163 0 0)
(295.535 0 0)
(295.891 0 0)
(296.232 0 0)
(296.557 0 0)
(296.867 0 0)
(297.161 0 0)
(297.44 0 0)
(297.703 0 0)
(297.951 0 0)
(298.182 0 0)
(298.399 0 0)
(298.599 0 0)
(298.783 0 0)
(298.952 0 0)
(299.104 0 0)
(299.241 0 0)
(299.361 0 0)
(299.465 0 0)
(299.553 0 0)
(299.624 0 0)
(299.678 0 0)
(299.716 0 0)
(299.737 0 0)
(299.741 0 0)
(299.727 0 0)
(299.697 0 0)
(299.648 0 0)
(299.582 0 0)
(299.498 0 0)
(299.396 0 0)
(299.275 0 0)
(299.136 0 0)
(298.978 0 0)
(298.8 0 0)
(298.604 0 0)
(298.387 0 0)
(298.15 0 0)
(297.893 0 0)
(297.615 0 0)
(297.316 0 0)
(296.996 0 0)
(296.653 0 0)
(296.288 0 0)
(295.9 0 0)
(295.488 0 0)
(295.052 0 0)
(294.592 0 0)
(294.107 0 0)
(293.595 0 0)
(293.057 0 0)
(292.491 0 0)
(291.897 0 0)
(291.273 0 0)
(290.62 0 0)
(289.935 0 0)
(289.218 0 0)
(288.467 0 0)
(287.681 0 0)
(286.858 0 0)
(285.998 0 0)
(285.097 0 0)
(284.155 0 0)
(283.168 0 0)
(282.135 0 0)
(281.053 0 0)
(279.92 0 0)
(278.723 0 0)
(277.496 0 0)
(276.116 0 0)
(274.911 0 0)
(272.936 0 0)
(292.679 0 0)
(293.127 0 0)
(293.561 0 0)
(293.98 0 0)
(294.385 0 0)
(294.775 0 0)
(295.15 0 0)
(295.511 0 0)
(295.858 0 0)
(296.19 0 0)
(296.508 0 0)
(296.811 0 0)
(297.099 0 0)
(297.373 0 0)
(297.632 0 0)
(297.877 0 0)
(298.107 0 0)
(298.322 0 0)
(298.522 0 0)
(298.707 0 0)
(298.878 0 0)
(299.033 0 0)
(299.174 0 0)
(299.299 0 0)
(299.409 0 0)
(299.504 0 0)
(299.583 0 0)
(299.646 0 0)
(299.694 0 0)
(299.726 0 0)
(299.743 0 0)
(299.743 0 0)
(299.726 0 0)
(299.694 0 0)
(299.645 0 0)
(299.579 0 0)
(299.496 0 0)
(299.396 0 0)
(299.279 0 0)
(299.144 0 0)
(298.991 0 0)
(298.821 0 0)
(298.632 0 0)
(298.424 0 0)
(298.198 0 0)
(297.952 0 0)
(297.687 0 0)
(297.402 0 0)
(297.097 0 0)
(296.772 0 0)
(296.425 0 0)
(296.057 0 0)
(295.667 0 0)
(295.254 0 0)
(294.819 0 0)
(294.36 0 0)
(293.877 0 0)
(293.37 0 0)
(292.837 0 0)
(292.278 0 0)
(291.692 0 0)
(291.078 0 0)
(290.436 0 0)
(289.764 0 0)
(289.061 0 0)
(288.326 0 0)
(287.559 0 0)
(286.757 0 0)
(285.919 0 0)
(285.043 0 0)
(284.128 0 0)
(283.172 0 0)
(282.172 0 0)
(281.129 0 0)
(280.027 0 0)
(278.901 0 0)
(277.645 0 0)
(276.544 0 0)
(274.753 0 0)
(293.195 0 0)
(293.613 0 0)
(294.018 0 0)
(294.409 0 0)
(294.786 0 0)
(295.15 0 0)
(295.5 0 0)
(295.836 0 0)
(296.159 0 0)
(296.469 0 0)
(296.765 0 0)
(297.047 0 0)
(297.315 0 0)
(297.57 0 0)
(297.811 0 0)
(298.038 0 0)
(298.251 0 0)
(298.451 0 0)
(298.636 0 0)
(298.808 0 0)
(298.965 0 0)
(299.108 0 0)
(299.238 0 0)
(299.352 0 0)
(299.453 0 0)
(299.538 0 0)
(299.61 0 0)
(299.666 0 0)
(299.708 0 0)
(299.735 0 0)
(299.747 0 0)
(299.743 0 0)
(299.725 0 0)
(299.691 0 0)
(299.641 0 0)
(299.575 0 0)
(299.494 0 0)
(299.396 0 0)
(299.282 0 0)
(299.152 0 0)
(299.004 0 0)
(298.84 0 0)
(298.659 0 0)
(298.46 0 0)
(298.243 0 0)
(298.008 0 0)
(297.756 0 0)
(297.484 0 0)
(297.194 0 0)
(296.884 0 0)
(296.555 0 0)
(296.205 0 0)
(295.836 0 0)
(295.445 0 0)
(295.033 0 0)
(294.6 0 0)
(294.144 0 0)
(293.665 0 0)
(293.162 0 0)
(292.636 0 0)
(292.085 0 0)
(291.508 0 0)
(290.905 0 0)
(290.275 0 0)
(289.617 0 0)
(288.93 0 0)
(288.212 0 0)
(287.464 0 0)
(286.683 0 0)
(285.869 0 0)
(285.019 0 0)
(284.133 0 0)
(283.207 0 0)
(282.243 0 0)
(281.228 0 0)
(280.191 0 0)
(279.04 0 0)
(278.031 0 0)
(276.404 0 0)
(293.677 0 0)
(294.067 0 0)
(294.444 0 0)
(294.809 0 0)
(295.16 0 0)
(295.5 0 0)
(295.826 0 0)
(296.14 0 0)
(296.44 0 0)
(296.729 0 0)
(297.004 0 0)
(297.266 0 0)
(297.516 0 0)
(297.753 0 0)
(297.977 0 0)
(298.188 0 0)
(298.386 0 0)
(298.57 0 0)
(298.742 0 0)
(298.901 0 0)
(299.046 0 0)
(299.178 0 0)
(299.296 0 0)
(299.401 0 0)
(299.492 0 0)
(299.57 0 0)
(299.634 0 0)
(299.684 0 0)
(299.72 0 0)
(299.742 0 0)
(299.75 0 0)
(299.744 0 0)
(299.723 0 0)
(299.687 0 0)
(299.637 0 0)
(299.572 0 0)
(299.491 0 0)
(299.396 0 0)
(299.285 0 0)
(299.159 0 0)
(299.017 0 0)
(298.859 0 0)
(298.684 0 0)
(298.494 0 0)
(298.286 0 0)
(298.062 0 0)
(297.821 0 0)
(297.562 0 0)
(297.285 0 0)
(296.991 0 0)
(296.678 0 0)
(296.346 0 0)
(295.996 0 0)
(295.626 0 0)
(295.236 0 0)
(294.826 0 0)
(294.395 0 0)
(293.943 0 0)
(293.469 0 0)
(292.973 0 0)
(292.454 0 0)
(291.912 0 0)
(291.345 0 0)
(290.754 0 0)
(290.137 0 0)
(289.494 0 0)
(288.823 0 0)
(288.124 0 0)
(287.396 0 0)
(286.637 0 0)
(285.846 0 0)
(285.023 0 0)
(284.165 0 0)
(283.272 0 0)
(282.335 0 0)
(281.379 0 0)
(280.321 0 0)
(279.393 0 0)
(277.908 0 0)
(294.127 0 0)
(294.491 0 0)
(294.842 0 0)
(295.182 0 0)
(295.51 0 0)
(295.826 0 0)
(296.13 0 0)
(296.422 0 0)
(296.702 0 0)
(296.971 0 0)
(297.227 0 0)
(297.471 0 0)
(297.703 0 0)
(297.923 0 0)
(298.131 0 0)
(298.327 0 0)
(298.51 0 0)
(298.681 0 0)
(298.84 0 0)
(298.986 0 0)
(299.12 0 0)
(299.241 0 0)
(299.35 0 0)
(299.446 0 0)
(299.529 0 0)
(299.599 0 0)
(299.656 0 0)
(299.7 0 0)
(299.731 0 0)
(299.748 0 0)
(299.752 0 0)
(299.743 0 0)
(299.72 0 0)
(299.683 0 0)
(299.633 0 0)
(299.568 0 0)
(299.489 0 0)
(299.396 0 0)
(299.288 0 0)
(299.166 0 0)
(299.028 0 0)
(298.876 0 0)
(298.709 0 0)
(298.526 0 0)
(298.327 0 0)
(298.113 0 0)
(297.883 0 0)
(297.636 0 0)
(297.372 0 0)
(297.092 0 0)
(296.795 0 0)
(296.48 0 0)
(296.147 0 0)
(295.797 0 0)
(295.428 0 0)
(295.039 0 0)
(294.632 0 0)
(294.205 0 0)
(293.758 0 0)
(293.291 0 0)
(292.802 0 0)
(292.292 0 0)
(291.759 0 0)
(291.204 0 0)
(290.625 0 0)
(290.022 0 0)
(289.394 0 0)
(288.74 0 0)
(288.06 0 0)
(287.352 0 0)
(286.616 0 0)
(285.85 0 0)
(285.053 0 0)
(284.226 0 0)
(283.359 0 0)
(282.475 0 0)
(281.5 0 0)
(280.644 0 0)
(279.285 0 0)
(294.547 0 0)
(294.886 0 0)
(295.213 0 0)
(295.53 0 0)
(295.836 0 0)
(296.13 0 0)
(296.413 0 0)
(296.685 0 0)
(296.946 0 0)
(297.196 0 0)
(297.434 0 0)
(297.661 0 0)
(297.877 0 0)
(298.081 0 0)
(298.274 0 0)
(298.456 0 0)
(298.626 0 0)
(298.784 0 0)
(298.93 0 0)
(299.065 0 0)
(299.188 0 0)
(299.3 0 0)
(299.399 0 0)
(299.486 0 0)
(299.561 0 0)
(299.624 0 0)
(299.675 0 0)
(299.713 0 0)
(299.739 0 0)
(299.753 0 0)
(299.754 0 0)
(299.742 0 0)
(299.717 0 0)
(299.679 0 0)
(299.628 0 0)
(299.564 0 0)
(299.486 0 0)
(299.395 0 0)
(299.291 0 0)
(299.172 0 0)
(299.04 0 0)
(298.893 0 0)
(298.732 0 0)
(298.557 0 0)
(298.367 0 0)
(298.162 0 0)
(297.942 0 0)
(297.706 0 0)
(297.455 0 0)
(297.189 0 0)
(296.906 0 0)
(296.607 0 0)
(296.291 0 0)
(295.959 0 0)
(295.609 0 0)
(295.242 0 0)
(294.856 0 0)
(294.453 0 0)
(294.031 0 0)
(293.59 0 0)
(293.129 0 0)
(292.649 0 0)
(292.148 0 0)
(291.626 0 0)
(291.082 0 0)
(290.517 0 0)
(289.929 0 0)
(289.317 0 0)
(288.681 0 0)
(288.02 0 0)
(287.333 0 0)
(286.62 0 0)
(285.879 0 0)
(285.11 0 0)
(284.306 0 0)
(283.488 0 0)
(282.588 0 0)
(281.797 0 0)
(280.549 0 0)
(294.939 0 0)
(295.254 0 0)
(295.56 0 0)
(295.855 0 0)
(296.139 0 0)
(296.413 0 0)
(296.677 0 0)
(296.931 0 0)
(297.173 0 0)
(297.406 0 0)
(297.627 0 0)
(297.838 0 0)
(298.039 0 0)
(298.228 0 0)
(298.407 0 0)
(298.575 0 0)
(298.732 0 0)
(298.879 0 0)
(299.014 0 0)
(299.138 0 0)
(299.251 0 0)
(299.353 0 0)
(299.444 0 0)
(299.523 0 0)
(299.591 0 0)
(299.647 0 0)
(299.692 0 0)
(299.725 0 0)
(299.747 0 0)
(299.757 0 0)
(299.754 0 0)
(299.74 0 0)
(299.713 0 0)
(299.675 0 0)
(299.624 0 0)
(299.56 0 0)
(299.484 0 0)
(299.395 0 0)
(299.293 0 0)
(299.179 0 0)
(299.051 0 0)
(298.909 0 0)
(298.755 0 0)
(298.586 0 0)
(298.404 0 0)
(298.208 0 0)
(297.998 0 0)
(297.773 0 0)
(297.534 0 0)
(297.28 0 0)
(297.011 0 0)
(296.727 0 0)
(296.427 0 0)
(296.112 0 0)
(295.78 0 0)
(295.433 0 0)
(295.068 0 0)
(294.687 0 0)
(294.288 0 0)
(293.872 0 0)
(293.438 0 0)
(292.985 0 0)
(292.513 0 0)
(292.022 0 0)
(291.512 0 0)
(290.981 0 0)
(290.429 0 0)
(289.856 0 0)
(289.261 0 0)
(288.643 0 0)
(288.002 0 0)
(287.337 0 0)
(286.647 0 0)
(285.932 0 0)
(285.186 0 0)
(284.426 0 0)
(283.594 0 0)
(282.862 0 0)
(281.713 0 0)
(295.304 0 0)
(295.598 0 0)
(295.883 0 0)
(296.157 0 0)
(296.422 0 0)
(296.678 0 0)
(296.923 0 0)
(297.159 0 0)
(297.385 0 0)
(297.601 0 0)
(297.807 0 0)
(298.003 0 0)
(298.189 0 0)
(298.364 0 0)
(298.53 0 0)
(298.686 0 0)
(298.831 0 0)
(298.966 0 0)
(299.091 0 0)
(299.205 0 0)
(299.309 0 0)
(299.402 0 0)
(299.485 0 0)
(299.556 0 0)
(299.618 0 0)
(299.668 0 0)
(299.707 0 0)
(299.736 0 0)
(299.753 0 0)
(299.759 0 0)
(299.754 0 0)
(299.738 0 0)
(299.71 0 0)
(299.67 0 0)
(299.619 0 0)
(299.556 0 0)
(299.481 0 0)
(299.395 0 0)
(299.296 0 0)
(299.185 0 0)
(299.061 0 0)
(298.925 0 0)
(298.776 0 0)
(298.615 0 0)
(298.44 0 0)
(298.253 0 0)
(298.052 0 0)
(297.837 0 0)
(297.609 0 0)
(297.367 0 0)
(297.111 0 0)
(296.841 0 0)
(296.557 0 0)
(296.257 0 0)
(295.943 0 0)
(295.613 0 0)
(295.268 0 0)
(294.908 0 0)
(294.531 0 0)
(294.138 0 0)
(293.728 0 0)
(293.301 0 0)
(292.857 0 0)
(292.395 0 0)
(291.915 0 0)
(291.417 0 0)
(290.899 0 0)
(290.362 0 0)
(289.804 0 0)
(289.226 0 0)
(288.627 0 0)
(288.006 0 0)
(287.362 0 0)
(286.697 0 0)
(286.003 0 0)
(285.297 0 0)
(284.526 0 0)
(283.847 0 0)
(282.787 0 0)
(295.645 0 0)
(295.919 0 0)
(296.184 0 0)
(296.44 0 0)
(296.686 0 0)
(296.924 0 0)
(297.152 0 0)
(297.371 0 0)
(297.581 0 0)
(297.782 0 0)
(297.973 0 0)
(298.155 0 0)
(298.328 0 0)
(298.491 0 0)
(298.644 0 0)
(298.788 0 0)
(298.922 0 0)
(299.047 0 0)
(299.161 0 0)
(299.266 0 0)
(299.361 0 0)
(299.447 0 0)
(299.522 0 0)
(299.587 0 0)
(299.642 0 0)
(299.686 0 0)
(299.72 0 0)
(299.744 0 0)
(299.758 0 0)
(299.761 0 0)
(299.753 0 0)
(299.735 0 0)
(299.706 0 0)
(299.665 0 0)
(299.614 0 0)
(299.552 0 0)
(299.479 0 0)
(299.394 0 0)
(299.298 0 0)
(299.19 0 0)
(299.071 0 0)
(298.94 0 0)
(298.797 0 0)
(298.642 0 0)
(298.474 0 0)
(298.295 0 0)
(298.103 0 0)
(297.898 0 0)
(297.681 0 0)
(297.45 0 0)
(297.206 0 0)
(296.95 0 0)
(296.679 0 0)
(296.395 0 0)
(296.097 0 0)
(295.784 0 0)
(295.458 0 0)
(295.116 0 0)
(294.76 0 0)
(294.389 0 0)
(294.002 0 0)
(293.6 0 0)
(293.181 0 0)
(292.746 0 0)
(292.295 0 0)
(291.826 0 0)
(291.34 0 0)
(290.835 0 0)
(290.313 0 0)
(289.772 0 0)
(289.211 0 0)
(288.631 0 0)
(288.03 0 0)
(287.409 0 0)
(286.763 0 0)
(286.107 0 0)
(285.391 0 0)
(284.76 0 0)
(283.78 0 0)
(295.963 0 0)
(296.218 0 0)
(296.464 0 0)
(296.702 0 0)
(296.932 0 0)
(297.153 0 0)
(297.365 0 0)
(297.569 0 0)
(297.764 0 0)
(297.951 0 0)
(298.128 0 0)
(298.297 0 0)
(298.457 0 0)
(298.608 0 0)
(298.75 0 0)
(298.883 0 0)
(299.006 0 0)
(299.121 0 0)
(299.227 0 0)
(299.323 0 0)
(299.41 0 0)
(299.487 0 0)
(299.555 0 0)
(299.614 0 0)
(299.663 0 0)
(299.702 0 0)
(299.732 0 0)
(299.752 0 0)
(299.762 0 0)
(299.762 0 0)
(299.752 0 0)
(299.732 0 0)
(299.701 0 0)
(299.661 0 0)
(299.61 0 0)
(299.548 0 0)
(299.476 0 0)
(299.393 0 0)
(299.3 0 0)
(299.196 0 0)
(299.08 0 0)
(298.954 0 0)
(298.816 0 0)
(298.668 0 0)
(298.507 0 0)
(298.335 0 0)
(298.152 0 0)
(297.956 0 0)
(297.749 0 0)
(297.529 0 0)
(297.297 0 0)
(297.052 0 0)
(296.795 0 0)
(296.526 0 0)
(296.243 0 0)
(295.947 0 0)
(295.637 0 0)
(295.314 0 0)
(294.977 0 0)
(294.626 0 0)
(294.261 0 0)
(293.881 0 0)
(293.486 0 0)
(293.076 0 0)
(292.651 0 0)
(292.21 0 0)
(291.753 0 0)
(291.28 0 0)
(290.79 0 0)
(290.283 0 0)
(289.758 0 0)
(289.215 0 0)
(288.654 0 0)
(288.074 0 0)
(287.472 0 0)
(286.86 0 0)
(286.195 0 0)
(285.608 0 0)
(284.701 0 0)
(296.259 0 0)
(296.496 0 0)
(296.726 0 0)
(296.947 0 0)
(297.161 0 0)
(297.366 0 0)
(297.564 0 0)
(297.753 0 0)
(297.934 0 0)
(298.107 0 0)
(298.272 0 0)
(298.428 0 0)
(298.576 0 0)
(298.716 0 0)
(298.847 0 0)
(298.97 0 0)
(299.084 0 0)
(299.189 0 0)
(299.286 0 0)
(299.374 0 0)
(299.454 0 0)
(299.524 0 0)
(299.586 0 0)
(299.638 0 0)
(299.682 0 0)
(299.716 0 0)
(299.742 0 0)
(299.758 0 0)
(299.764 0 0)
(299.762 0 0)
(299.75 0 0)
(299.728 0 0)
(299.697 0 0)
(299.656 0 0)
(299.605 0 0)
(299.544 0 0)
(299.474 0 0)
(299.393 0 0)
(299.302 0 0)
(299.201 0 0)
(299.09 0 0)
(298.968 0 0)
(298.835 0 0)
(298.692 0 0)
(298.539 0 0)
(298.374 0 0)
(298.198 0 0)
(298.011 0 0)
(297.813 0 0)
(297.604 0 0)
(297.383 0 0)
(297.15 0 0)
(296.906 0 0)
(296.649 0 0)
(296.381 0 0)
(296.1 0 0)
(295.807 0 0)
(295.501 0 0)
(295.182 0 0)
(294.85 0 0)
(294.505 0 0)
(294.146 0 0)
(293.774 0 0)
(293.388 0 0)
(292.987 0 0)
(292.572 0 0)
(292.142 0 0)
(291.698 0 0)
(291.238 0 0)
(290.762 0 0)
(290.27 0 0)
(289.762 0 0)
(289.237 0 0)
(288.695 0 0)
(288.133 0 0)
(287.563 0 0)
(286.943 0 0)
(286.396 0 0)
(285.556 0 0)
(296.535 0 0)
(296.756 0 0)
(296.969 0 0)
(297.175 0 0)
(297.374 0 0)
(297.565 0 0)
(297.748 0 0)
(297.924 0 0)
(298.092 0 0)
(298.252 0 0)
(298.405 0 0)
(298.55 0 0)
(298.687 0 0)
(298.816 0 0)
(298.937 0 0)
(299.05 0 0)
(299.155 0 0)
(299.252 0 0)
(299.341 0 0)
(299.422 0 0)
(299.494 0 0)
(299.558 0 0)
(299.613 0 0)
(299.66 0 0)
(299.699 0 0)
(299.729 0 0)
(299.75 0 0)
(299.763 0 0)
(299.766 0 0)
(299.761 0 0)
(299.747 0 0)
(299.724 0 0)
(299.692 0 0)
(299.65 0 0)
(299.6 0 0)
(299.54 0 0)
(299.471 0 0)
(299.392 0 0)
(299.304 0 0)
(299.206 0 0)
(299.098 0 0)
(298.981 0 0)
(298.853 0 0)
(298.716 0 0)
(298.568 0 0)
(298.411 0 0)
(298.243 0 0)
(298.064 0 0)
(297.875 0 0)
(297.675 0 0)
(297.465 0 0)
(297.243 0 0)
(297.011 0 0)
(296.767 0 0)
(296.512 0 0)
(296.246 0 0)
(295.967 0 0)
(295.677 0 0)
(295.376 0 0)
(295.062 0 0)
(294.735 0 0)
(294.397 0 0)
(294.045 0 0)
(293.681 0 0)
(293.303 0 0)
(292.913 0 0)
(292.508 0 0)
(292.09 0 0)
(291.658 0 0)
(291.211 0 0)
(290.75 0 0)
(290.274 0 0)
(289.782 0 0)
(289.276 0 0)
(288.751 0 0)
(288.218 0 0)
(287.641 0 0)
(287.131 0 0)
(286.351 0 0)
(296.792 0 0)
(296.998 0 0)
(297.196 0 0)
(297.387 0 0)
(297.572 0 0)
(297.749 0 0)
(297.919 0 0)
(298.083 0 0)
(298.239 0 0)
(298.387 0 0)
(298.529 0 0)
(298.663 0 0)
(298.789 0 0)
(298.909 0 0)
(299.02 0 0)
(299.125 0 0)
(299.221 0 0)
(299.31 0 0)
(299.391 0 0)
(299.465 0 0)
(299.53 0 0)
(299.588 0 0)
(299.638 0 0)
(299.68 0 0)
(299.714 0 0)
(299.739 0 0)
(299.757 0 0)
(299.766 0 0)
(299.767 0 0)
(299.76 0 0)
(299.744 0 0)
(299.72 0 0)
(299.687 0 0)
(299.645 0 0)
(299.595 0 0)
(299.536 0 0)
(299.468 0 0)
(299.391 0 0)
(299.306 0 0)
(299.211 0 0)
(299.107 0 0)
(298.993 0 0)
(298.871 0 0)
(298.739 0 0)
(298.597 0 0)
(298.446 0 0)
(298.285 0 0)
(298.114 0 0)
(297.934 0 0)
(297.743 0 0)
(297.543 0 0)
(297.332 0 0)
(297.11 0 0)
(296.879 0 0)
(296.636 0 0)
(296.383 0 0)
(296.12 0 0)
(295.845 0 0)
(295.559 0 0)
(295.262 0 0)
(294.953 0 0)
(294.633 0 0)
(294.301 0 0)
(293.957 0 0)
(293.601 0 0)
(293.233 0 0)
(292.852 0 0)
(292.459 0 0)
(292.053 0 0)
(291.633 0 0)
(291.2 0 0)
(290.754 0 0)
(290.293 0 0)
(289.819 0 0)
(289.328 0 0)
(288.831 0 0)
(288.292 0 0)
(287.816 0 0)
(287.091 0 0)
(297.032 0 0)
(297.223 0 0)
(297.407 0 0)
(297.585 0 0)
(297.756 0 0)
(297.921 0 0)
(298.079 0 0)
(298.23 0 0)
(298.374 0 0)
(298.512 0 0)
(298.643 0 0)
(298.767 0 0)
(298.884 0 0)
(298.994 0 0)
(299.097 0 0)
(299.193 0 0)
(299.281 0 0)
(299.363 0 0)
(299.437 0 0)
(299.504 0 0)
(299.564 0 0)
(299.616 0 0)
(299.66 0 0)
(299.697 0 0)
(299.727 0 0)
(299.748 0 0)
(299.763 0 0)
(299.769 0 0)
(299.767 0 0)
(299.758 0 0)
(299.74 0 0)
(299.715 0 0)
(299.682 0 0)
(299.64 0 0)
(299.59 0 0)
(299.532 0 0)
(299.465 0 0)
(299.391 0 0)
(299.307 0 0)
(299.215 0 0)
(299.115 0 0)
(299.005 0 0)