/*--------------------------------*- C++ -*----------------------------------*\
| =========                 |                                                 |
| \\      /  F ield         | OpenFOAM: The Open Source CFD Toolbox           |
|  \\    /   O peration     | Version:  2312                                  |
|   \\  /    A nd           | Website:  www.openfoam.com                      |
|    \\/     M anipulation  |                                                 |
\*---------------------------------------------------------------------------*/
FoamFile
{
    version     2.0;
    format      ascii;
    arch        "LSB;label=32;scalar=64";
    class       surfaceScalarField;
    location    "0.013";
    object      phi;
}
// * * * * * * * * * * * * * * * * * * * * * * * * * * * * * * * * * * * * * //

dimensions      [0 3 -1 0 0 0 0];

oriented        oriented;

internalField   nonuniform List<scalar> 
62015
(
75.6153
0.147444
-76.345
74.8687
0.143291
74.0463
0.138983
73.2883
0.134691
72.7782
0.131005
71.4544
0.126301
69.5596
0.119131
73.2363
0.12044
73.3087
0.125512
43.901
0.0781552
9.71429
0.0156003
0.276453
0.000404088
0.000393138
4.84132e-07
9.72143e-07
1.17446e-09
1.56923e-09
1.56725e-12
3.19743e-12
3.01768e-15
5.40253e-15
4.19522e-18
9.82718e-18
6.78497e-21
1.64681e-20
9.12729e-24
2.78431e-23
1.26272e-26
4.5078e-26
1.51469e-29
7.18523e-29
1.67624e-32
1.10916e-31
1.42131e-35
1.6693e-34
5.08872e-39
2.43615e-37
-1.56174e-41
3.44869e-40
-5.27085e-44
4.72364e-43
-1.1154e-46
6.25062e-46
-1.95592e-49
7.97353e-49
-3.04898e-52
9.78286e-52
-4.33794e-55
1.15138e-54
-5.69409e-58
1.29585e-57
-6.91964e-61
1.38958e-60
-7.77379e-64
1.41343e-63
-8.02843e-67
1.3563e-66
-7.54242e-70
1.2193e-69
-6.33033e-73
1.01756e-72
-4.59671e-76
7.78337e-76
-2.70301e-79
5.35239e-79
-1.06371e-82
3.20142e-82
0
1.55388e-85
3.88782e-89
4.92152e-89
2.62254e-92
-3.90914e-93
-4.99262e-96
-1.86442e-95
-2.31046e-98
-1.23891e-98
-1.53685e-101
-1.24131e-103
6.77812e-105
8.09031e-105
1.97486e-107
7.72769e-108
9.57709e-111
1.73761e-113
-1.37085e-113
-8.41327e-114
-2.35067e-116
-8.83532e-117
-3.34392e-120
2.1269e-120
2.99186e-122
1.55024e-122
3.40787e-125
1.34076e-125
-1.41227e-128
-1.20663e-128
-7.39158e-131
-3.8172e-131
-5.45663e-134
-1.99682e-134
8.37255e-137
5.51991e-137
2.12835e-139
1.08914e-139
7.42241e-143
8.14641e-144
-4.04519e-145
-2.47917e-145
-7.10184e-148
-3.40782e-148
9.16933e-152
1.85939e-151
2.04632e-153
1.17039e-153
2.65056e-156
1.13634e-156
-2.11454e-159
-1.73031e-159
-1.11982e-161
-6.0034e-162
-1.06407e-164
-3.94217e-165
1.91856e-167
1.2865e-167
6.6334e-170
3.41303e-170
4.61352e-173
1.45965e-173
-1.49367e-175
-9.24319e-176
-4.27602e-178
-2.19701e-178
-2.5309e-181
-7.95671e-182
1.065e-183
6.58368e-184
3.0524e-186
1.65799e-186
2.43219e-189
1.01353e-189
-6.23206e-192
-4.44098e-192
-2.47148e-194
-3.84771e-197
-1.52746e-194
72.7312
0.287927
-73.446
71.9531
0.279609
71.1901
0.271277
70.705
0.264013
69.7794
0.255558
67.7032
0.241818
69.5233
0.239786
73.2331
0.253334
51.5399
0.182134
15.4298
0.0510607
0.799514
0.00246218
-0.0012431
-4.0981e-06
-4.90391e-05
-1.40149e-07
-1.11365e-07
-2.83948e-10
-3.64155e-10
-8.96275e-13
-7.88259e-13
-1.74808e-15
-1.86856e-15
-3.89657e-18
-3.82843e-18
-7.22111e-21
-7.86477e-21
-1.36297e-23
-1.51209e-23
-2.35693e-26
-2.83863e-26
-3.98038e-29
-5.10997e-29
-6.35217e-32
-8.91626e-32
-9.74025e-35
-1.50157e-34
-1.41985e-37
-2.44536e-37
-1.96908e-40
-3.84622e-40
-2.5813e-43
-5.83999e-43
-3.17718e-46
-8.55076e-46
-3.63164e-49
-1.20562e-48
-3.7837e-52
-1.6342e-51
-3.4709e-55
-2.12491e-54
-2.57768e-58
-2.64347e-57
-1.10337e-61
-3.13589e-60
7.87182e-65
-3.53259e-63
2.74981e-67
-3.75885e-66
4.32161e-70
-3.7515e-69
5.05776e-73
-3.47857e-72
4.71446e-76
-2.95599e-75
3.39986e-79
-2.25394e-78
1.59738e-82
-1.48686e-81
0
-7.86154e-85
-8.09252e-89
-2.62136e-88
-6.77856e-92
3.12058e-92
8.18919e-97
1.12825e-94
5.61993e-98
6.2336e-98
4.8677e-101
-1.86274e-101
-1.16111e-104
-5.43066e-104
-6.01984e-107
-2.70401e-107
-3.76144e-110
2.53421e-110
4.19788e-113
4.69886e-113
8.61233e-116
1.32616e-116
1.57979e-119
-4.37221e-119
-1.1737e-121
-5.83714e-122
-1.34307e-124
4.54796e-126
7.50338e-128
9.43541e-128
3.19837e-130
9.31297e-131
1.8066e-133
-6.51192e-134
-4.60429e-136
-2.52682e-136
-8.90258e-139
-1.67827e-139
2.07595e-143
3.39648e-142
2.11278e-144
8.12789e-145
2.53806e-147
2.43946e-148
-2.16768e-150
-1.71889e-150
-9.61257e-153
-3.0138e-153
-7.18742e-156
4.2986e-157
1.73248e-158
9.19734e-159
4.68305e-161
1.25506e-161
1.83981e-164
-8.54792e-165
-1.18639e-166
-5.28959e-167
-2.53573e-169
-5.93542e-170
-3.54e-173
7.37396e-173
7.9814e-175
3.29263e-175
1.57802e-177
3.44474e-178
1.93861e-181
-5.04217e-181
-5.25978e-183
-2.23105e-183
-1.18236e-185
-2.80241e-186
-6.97829e-189
2.23198e-189
2.97591e-191
1.64623e-191
1.11285e-193
1.86599e-196
3.30575e-194
69.8584
0.421297
-70.5991
69.1346
0.409358
68.6785
0.398807
67.9468
0.386732
65.9249
0.36675
66.701
0.360626
71.4111
0.381894
54.7789
0.293677
19.2158
0.0981426
1.39952
0.0067586
-0.000645308
-3.94932e-06
-0.000165397
-7.50209e-07
4.89009e-07
2.27139e-09
9.01641e-09
3.76972e-11
3.01304e-11
1.15817e-13
1.09011e-13
3.98115e-16
2.93181e-16
9.91177e-19
7.73637e-19
2.45112e-21
1.8272e-21
5.35422e-24
4.1394e-24
1.12299e-26
8.82734e-27
2.20008e-29
1.80314e-29
4.11161e-32
3.52095e-32
7.29572e-35
6.59997e-35
1.23416e-37
1.18834e-37
1.98927e-40
2.05672e-40
3.0533e-43
3.42242e-43
4.45772e-46
5.47282e-46
6.17483e-49
8.40421e-49
8.09136e-52
1.23769e-51
9.98426e-55
1.74505e-54
1.15336e-57
2.34992e-57
1.23702e-60
3.01322e-60
1.21777e-63
3.66466e-63
1.0818e-66
4.20574e-66
8.44373e-70
4.52386e-69
5.5258e-73
4.51856e-72
2.74746e-76
4.13546e-75
7.62335e-80
3.39762e-78
-9.6652e-84
2.41947e-81
0
1.38973e-84
4.5663e-89
5.19493e-88
6.14592e-92
-3.14012e-92
2.09303e-95
-2.19443e-94
-4.19666e-98
-1.37299e-97
-6.18796e-101
3.31917e-101
-8.29914e-105
1.20795e-103
6.80915e-107
6.35704e-107
7.02051e-110
-6.18542e-110
-3.49837e-113
-1.14404e-112
-1.37044e-115
-2.40738e-116
-6.57324e-119
1.21358e-118
1.75763e-121
1.39614e-121
2.83241e-124
-4.87696e-125
-6.7649e-128
-2.64951e-127
-6.39982e-130
-1.8052e-130
-5.0403e-133
2.87236e-133
8.97679e-136
6.4977e-136
2.14184e-138
1.46277e-139
2.20642e-142
-1.20896e-141
-5.1416e-144
-1.78036e-144
-6.75434e-147
6.1449e-148
5.51642e-150
5.17471e-150
2.6068e-152
5.37206e-153
1.90399e-155
-6.39098e-156
-5.12174e-158
-2.41803e-158
-1.32653e-160
-1.75904e-161
-3.81903e-164
4.51285e-164
3.69242e-166
1.26247e-166
7.28126e-169
6.55201e-170
-1.27198e-173
-2.98316e-172
-2.53751e-174
-7.48421e-175
-4.67797e-177
-3.72525e-178
-4.70497e-182
1.87549e-180
1.71828e-182
5.1636e-183
3.86538e-185
4.38494e-186
2.42908e-188
-9.54718e-189
-1.06004e-190
-4.26685e-191
-4.2765e-193
-7.32522e-196
-7.57588e-194
67.1422
0.548782
-67.7931
66.7323
0.53517
66.0696
0.519043
64.0781
0.492603
64.3131
0.483249
69.263
0.512198
55.6827
0.406388
21.2752
0.149124
1.86055
0.0124936
0.00109637
5.84511e-06
-0.000337752
-2.14139e-06
9.54094e-07
6.18611e-09
3.25284e-08
1.92605e-10
-1.44368e-10
-8.62599e-13
-1.80748e-12
-9.81917e-15
-8.03986e-15
-4.08075e-17
-3.12494e-17
-1.49482e-19
-9.8188e-20
-4.39473e-22
-2.83433e-22
-1.18757e-24
-7.44096e-25
-2.90468e-27
-1.82937e-27
-6.63155e-30
-4.22905e-30
-1.4174e-32
-9.26523e-33
-2.8567e-35
-1.93159e-35
-5.44978e-38
-3.84177e-38
-9.85549e-41
-7.30537e-41
-1.6923e-43
-1.32917e-43
-2.75784e-46
-2.3152e-46
-4.26327e-49
-3.85936e-49
-6.23951e-52
-6.1525e-52
-8.62347e-55
-9.36674e-55
-1.1211e-57
-1.35916e-57
-1.36385e-60
-1.87461e-60
-1.54137e-63
-2.44873e-63
-1.60211e-66
-3.0149e-66
-1.50939e-69
-3.47622e-69
-1.26056e-72
-3.72039e-72
-8.98838e-76
-3.64904e-75
-5.08074e-79
-3.21664e-78
-1.85461e-82
-2.46559e-81
0
-1.53813e-84
4.24576e-89
-6.47816e-88
2.11842e-93
-7.91586e-93
-3.47628e-95
2.60495e-94
-1.83448e-98
1.94038e-97
2.80062e-101
-2.35715e-101
3.7652e-104
-1.64675e-103
-1.66608e-107
-1.06271e-106
-6.93504e-110
7.8579e-110
-2.26612e-113
1.80375e-112
1.05911e-115
5.45792e-116
1.29477e-118
-1.9235e-118
-9.99384e-122
-2.48101e-121
-3.60391e-124
7.19178e-125
-1.15744e-127
4.79447e-127
7.14926e-130
3.40022e-130
9.93217e-133
-5.57705e-133
-7.47724e-136
-1.25987e-135
-3.37487e-138
-1.98952e-139
-1.77038e-141
2.55237e-141
7.30848e-144
3.44618e-144
1.38776e-146
-1.97918e-147
-4.24671e-150
-1.11825e-149
-4.7747e-152
-9.46305e-153
-5.11403e-155
1.75793e-155
8.15787e-158
5.15558e-158
2.8731e-160
2.43997e-161
1.61721e-163
-1.17969e-163
-7.3286e-166
-2.62686e-166
-1.78068e-168
-5.8112e-170
-4.55262e-172
7.5713e-172
5.69396e-174
1.55672e-174
1.26489e-176
3.52574e-178
3.87508e-180
-4.76224e-180
-4.21505e-182
-1.14321e-182
-1.15565e-184
-8.13839e-186
-1.03279e-187
2.63636e-188
2.8984e-190
1.08705e-190
1.41163e-192
2.53721e-195
1.86448e-193
64.8688
0.672565
-65.2441
64.1531
0.651172
62.1147
0.617971
62.1538
0.608224
67.2103
0.645696
55.2926
0.515919
21.9977
0.198054
2.09562
0.0183115
0.00223342
1.76931e-05
-0.000502585
-4.16339e-06
1.29863e-06
1.09483e-08
7.66476e-08
5.96736e-10
-3.96433e-10
-3.09427e-12
-6.20087e-12
-4.47549e-14
3.84251e-14
2.78441e-16
4.0288e-16
2.66823e-18
2.16138e-18
1.34713e-20
9.00345e-21
5.27124e-23
3.15786e-23
1.73599e-25
9.85519e-26
5.06969e-28
2.80575e-28
1.34719e-30
7.39299e-31
3.29912e-33
1.82456e-33
7.53808e-36
4.24106e-36
1.6139e-38
9.33799e-39
3.25595e-41
1.95266e-41
6.1992e-44
3.88748e-44
1.11594e-46
7.37568e-47
1.89897e-49
1.33436e-49
3.05265e-52
2.30118e-52
4.62659e-55
3.77969e-55
6.59155e-58
5.90335e-58
8.78893e-61
8.74702e-61
1.08994e-63
1.22552e-63
1.24609e-66
1.61641e-66
1.29644e-69
1.99489e-69
1.20316e-72
2.28444e-72
9.62753e-76
2.3982e-75
6.20429e-79
2.26589e-78
2.65412e-82
1.86834e-81
0
1.26564e-84
-1.09335e-88
5.99324e-88
-7.2649e-92
5.30455e-92
2.39576e-95
-2.24597e-94
7.40155e-98
-2.02879e-97
3.22168e-101
-2.82369e-102
-4.5655e-104
1.62849e-103
-5.82262e-107
1.33346e-106
2.09314e-110
-6.32513e-110
8.47239e-113
-2.10178e-112
8.3244e-117
-9.7696e-116
-1.40196e-118
2.12546e-118
-9.04578e-122
3.42096e-121
2.47118e-124
-3.40194e-125
3.83581e-127
-6.38661e-127
-3.20958e-130
-5.67085e-130
-1.29287e-132
6.9838e-133
-3.19955e-136
1.93564e-135
3.40587e-138
5.63655e-139
4.5902e-141
-3.87569e-141
-5.31996e-144
-5.92417e-144
-2.08816e-146
2.64866e-147
-8.62095e-150
1.90259e-149
5.87233e-152
1.76685e-152
1.09597e-154
-3.00649e-155
-5.04494e-158
-9.44753e-158
-4.693e-160
-4.79082e-161
-5.45042e-163
2.21247e-163
8.74865e-166
5.06801e-166
3.58959e-168
1.18465e-169
3.0174e-171
-1.49981e-171
-8.75097e-174
-3.16698e-174
-3.01202e-176
-8.35989e-178
-2.65546e-179
9.9014e-180
7.5637e-182
2.52738e-182
3.10189e-184
2.03265e-185
4.11515e-187
-5.98659e-188
-5.87582e-190
-2.69375e-190
-4.07556e-192
-8.08138e-195
-4.70066e-193
62.1234
0.780917
-63.0431
59.9995
0.741996
60.2191
0.738074
65.4766
0.784669
54.0205
0.616634
21.5218
0.238379
2.05404
0.0223944
0.00102187
1.01867e-05
-0.000614767
-6.37511e-06
1.67178e-06
1.7437e-08
1.2703e-07
1.24369e-09
-7.20201e-10
-7.02151e-12
-1.65692e-11
-1.51561e-13
1.31084e-13
1.19507e-15
1.1594e-15
9.7421e-18
-9.81999e-18
-8.29418e-20
-9.86306e-20
-7.64988e-22
-5.91899e-22
-4.32706e-24
-2.64025e-24
-1.81095e-26
-1.0034e-26
-6.46277e-29
-3.35148e-29
-2.01866e-31
-1.01829e-31
-5.72153e-34
-2.84703e-34
-1.48571e-36
-7.42248e-37
-3.58263e-39
-1.81495e-39
-8.0605e-42
-4.18645e-42
-1.70119e-44
-9.13675e-45
-3.37481e-47
-1.89124e-47
-6.30246e-50
-3.71703e-50
-1.10783e-52
-6.93966e-53
-1.831e-55
-1.23029e-55
-2.83867e-58
-2.06881e-58
-4.11267e-61
-3.29338e-61
-5.53705e-64
-4.94907e-64
-6.87111e-67
-6.99206e-67
-7.76392e-70
-9.23516e-70
-7.83737e-73
-1.13141e-72
-6.84071e-76
-1.27113e-75
-4.83167e-79
-1.28724e-78
-2.28386e-82
-1.14183e-81
0
-8.39849e-85
1.22369e-88
-4.45642e-88
1.06939e-91
-7.42521e-92
4.82257e-97
1.51735e-94
-9.12146e-98
1.68984e-97
-7.89379e-101
2.63326e-101
2.62525e-104
-1.25793e-103
1.05774e-106
-1.3241e-106
4.72711e-110
2.94989e-110
-1.02531e-112
1.93226e-112
-1.35679e-115
1.3102e-115
6.78876e-119
-1.7436e-118
2.67495e-121
-3.78693e-121
3.72372e-125
-5.48228e-125
-5.16131e-127
6.63043e-127
-3.98344e-130
7.85193e-130
1.00895e-132
-5.91228e-133
1.79445e-135
-2.40942e-135
-1.49639e-138
-1.29989e-138
-6.89425e-141
4.47124e-141
-1.90799e-144
8.73755e-144
2.14668e-146
-1.20317e-147
3.17962e-149
-2.60709e-149
-3.86581e-152
-3.14198e-152
-1.71178e-154
3.47162e-155
-9.31341e-158
1.47809e-157
5.38288e-160
1.11654e-160
1.22937e-162
-3.11002e-163
-1.87877e-166
-8.88527e-166
-5.57768e-168
-4.49311e-169
-9.52918e-171
2.36024e-171
6.56859e-174
6.17219e-174
5.82198e-176
3.53957e-177
9.50427e-179
-1.69595e-179
-7.79996e-182
-5.44754e-182
-6.96025e-184
-5.89866e-185
-1.31503e-186
1.12267e-187
6.75852e-190
6.3331e-190
9.96134e-192
2.29984e-194
1.18146e-192
57.785
0.866935
-59.8548
58.718
0.879585
64.2594
0.930493
51.9113
0.699504
19.8078
0.262225
1.72246
0.0227727
-0.0026436
-3.35101e-05
-0.000634848
-8.00167e-06
2.3916e-06
2.97727e-08
1.68128e-07
2.00759e-09
-1.08573e-09
-1.283e-11
-3.03712e-11
-3.40695e-13
2.8347e-13
3.14862e-15
3.41267e-15
3.54838e-17
-3.90831e-17
-4.05366e-19
-2.12876e-19
-2.01085e-21
2.51411e-21
2.40493e-23
2.59377e-23
2.28877e-25
1.66398e-25
1.38207e-27
7.91188e-28
6.1613e-30
3.1998e-30
2.33641e-32
1.13347e-32
7.72966e-35
3.63618e-35
2.309e-37
1.06984e-37
6.29788e-40
2.92325e-40
1.58798e-42
7.46636e-43
3.72219e-45
1.7924e-45
8.14995e-48
4.05745e-48
1.67064e-50
8.68072e-51
3.2098e-53
1.75724e-53
5.77801e-56
3.36671e-56
9.72912e-59
6.10133e-59
1.52753e-61
1.04438e-61
2.22504e-64
1.6844e-64
2.98407e-67
2.55046e-67
3.64233e-70
3.60691e-70
3.97257e-73
4.72946e-73
3.75038e-76
5.68892e-76
2.87178e-79
6.17719e-79
1.47808e-82
5.89675e-82
0
4.70929e-85
-9.72233e-89
2.79069e-88
-1.00846e-91
6.88164e-92
-1.9888e-95
-8.32094e-95
7.47163e-98
-1.17168e-97
9.20363e-101
-3.57374e-101
2.62663e-105
7.85446e-104
-1.07892e-106
1.08251e-106
-9.61902e-110
1.76406e-111
7.1989e-113
-1.45167e-112
2.06251e-115
-1.37997e-115
4.82181e-119
1.0492e-118
-3.2501e-121
3.45476e-121
-3.43898e-124
1.4672e-124
3.92499e-127
-5.48823e-127
1.04109e-129
-8.9621e-130
-1.29795e-133
2.74917e-133
-2.7138e-135
2.46388e-135
-1.76961e-138
2.16702e-138
6.51447e-141
-3.91627e-141
1.13508e-143
-1.08576e-143
-1.11727e-146
-2.72611e-147
-5.26077e-149
2.88085e-149
-1.80624e-152
4.84599e-152
1.86325e-154
-2.23412e-155
3.26904e-157
-1.94039e-157
-3.21839e-160
-2.2822e-160
-1.94816e-162
3.08724e-163
-1.76279e-165
1.35907e-165
6.0757e-168
1.29869e-168
1.98934e-170
-2.79535e-171
8.55424e-174
-1.08632e-173
-8.58411e-176
-1.14204e-176
-2.323e-178
2.23774e-179
-4.55445e-182
1.07723e-181
1.24442e-183
1.60048e-184
3.31761e-186
-1.58326e-187
5.7149e-190
-1.357e-189
-2.00261e-191
-5.68345e-194
-2.8368e-192
58.1257
1.04429
-55.7888
63.6095
1.07572
48.6232
0.751258
16.7542
0.260864
1.17138
0.0184075
-0.00649973
-9.75968e-05
-0.00054051
-8.10739e-06
3.45731e-06
5.04953e-08
1.82206e-07
2.59558e-09
-1.51686e-09
-2.12261e-11
-4.32879e-11
-5.8155e-13
4.77569e-13
6.32415e-15
6.83272e-15
8.56701e-17
-9.77395e-17
-1.21355e-18
-6.54626e-19
-7.51614e-21
1.10066e-20
1.27152e-22
3.79335e-23
3.90426e-25
-6.66444e-25
-7.06419e-27
-7.20912e-27
-7.07532e-29
-4.8311e-29
-4.45227e-31
-2.42979e-31
-2.09726e-33
-1.03411e-33
-8.35044e-36
-3.85293e-36
-2.8999e-38
-1.29482e-38
-9.05086e-41
-3.98088e-41
-2.57233e-43
-1.13272e-43
-6.73138e-46
-3.00378e-46
-1.63181e-48
-7.4626e-49
-3.68047e-51
-1.74275e-51
-7.74004e-54
-3.83381e-54
-1.51875e-56
-7.95271e-57
-2.77808e-59
-1.55565e-59
-4.7254e-62
-2.86697e-62
-7.44112e-65
-4.96827e-65
-1.07715e-67
-8.07036e-68
-1.41766e-70
-1.2231e-70
-1.66656e-73
-1.71781e-73
-1.69643e-76
-2.21387e-76
-1.40258e-79
-2.57925e-79
-7.81799e-83
-2.65113e-82
0
-2.29905e-85
6.18661e-89
-1.51687e-88
7.37831e-92
-4.99041e-92
2.63009e-95
3.73196e-95
-4.63384e-98
6.95411e-98
-7.7725e-101
3.23812e-101
-2.26607e-104
-3.99013e-104
7.97716e-107
-7.48897e-107
1.08078e-109
-1.89923e-110
-2.27894e-113
9.05215e-113
-2.01622e-115
1.19094e-115
-1.42953e-118
-3.8733e-119
2.5719e-121
-2.64187e-121
5.23326e-124
-1.98167e-124
-8.91326e-128
3.59061e-127
-1.28385e-129
8.53138e-130
-9.27767e-133
9.6429e-134
2.49491e-135
-2.07854e-135
4.80113e-138
-2.7822e-138
-2.91985e-141
2.38392e-141
-1.77728e-143
1.13129e-143
-7.65246e-147
7.91878e-147
5.55762e-149
-2.5086e-149
9.0641e-152
-6.27931e-152
-1.1655e-154
-8.95533e-156
-5.37191e-157
2.09316e-157
-2.25381e-160
3.78873e-160
2.18283e-162
-1.42503e-163
4.61578e-165
-1.75534e-165
-3.16444e-168
-2.76201e-168
-3.0103e-170
1.96205e-171
-4.07599e-173
1.64892e-173
8.74231e-176
2.74097e-176
4.23871e-178
-1.77298e-179
4.11245e-181
-1.86381e-181
-1.69543e-183
-3.72987e-184
-6.68108e-186
1.11089e-187
-5.20034e-189
2.56608e-189
3.22609e-191
1.19589e-193
6.26364e-192
62.908
1.19059
-59.1126
43.3499
0.76134
12.4841
0.227545
0.593829
0.0109338
-0.00776969
-0.00013659
-0.000356508
-6.26834e-06
4.27233e-06
7.25388e-08
1.56751e-07
2.62116e-09
-1.95321e-09
-3.18404e-11
-4.88975e-11
-7.73144e-13
7.00111e-13
1.08579e-14
1.03814e-14
1.53888e-16
-1.82167e-16
-2.66271e-18
-1.39139e-18
-1.90478e-20
3.13512e-20
4.27998e-22
1.08721e-22
1.32926e-24
-3.00973e-24
-3.80595e-26
-6.33464e-27
-6.84201e-29
1.86562e-28
2.15427e-30
2.09936e-30
2.24974e-32
1.45368e-32
1.45899e-34
7.6655e-35
7.19335e-37
3.40661e-37
2.98262e-39
1.32533e-39
1.0786e-41
4.63635e-42
3.49265e-44
1.48053e-44
1.02718e-46
4.3629e-47
2.77163e-49
1.19496e-49
6.90405e-52
3.05723e-52
1.59381e-54
7.3303e-55
3.41604e-57
1.65036e-57
6.79816e-60
3.49173e-60
1.25398e-62
6.94038e-63
2.1359e-65
1.29422e-65
3.33774e-68
2.25826e-68
4.73562e-71
3.67192e-71
5.99678e-74
5.52964e-74
6.57505e-77
7.64256e-77
5.86065e-80
9.56148e-80
3.53005e-83
1.05895e-82
0
9.97311e-86
-3.33054e-89
7.30665e-89
-4.49928e-92
3.02887e-92
-2.27404e-95
-1.32878e-95
2.24722e-98
-3.5967e-98
5.27806e-101
-2.31793e-101
2.82665e-104
1.59774e-104
-4.53132e-107
4.46379e-107
-9.05529e-110
2.24483e-110
-1.55714e-113
-4.66661e-113
1.48814e-115
-8.66772e-116
1.78861e-118
-4.17117e-120
-1.31716e-121
1.70481e-121
-5.2688e-124
1.96772e-124
-2.15652e-127
-1.72692e-127
1.09144e-129
-6.85214e-130
1.65914e-132
-3.69333e-133
-1.33706e-135
1.42806e-135
-6.18309e-138
2.88799e-138
-2.25456e-141
-5.13076e-142
1.76712e-143
-9.84239e-144
2.65553e-146
-1.22783e-146
-3.50863e-149
1.57181e-149
-1.42533e-151
6.80383e-152
-2.68441e-155
5.05391e-155
5.86755e-157
-1.78103e-157
9.18849e-160
-5.13633e-160
-1.52586e-162
-1.95492e-163
-7.07817e-165
1.85636e-165
-3.56383e-168
4.59818e-168
3.33262e-170
8.30411e-172
8.31714e-173
-2.0962e-173
-3.68064e-176
-5.19142e-176
-5.95262e-178
-8.3422e-180
-1.05228e-180
2.7473e-181
1.57358e-183
7.36077e-184
1.08392e-185
1.9066e-187
1.51703e-188
-4.19881e-189
-3.9731e-191
-2.11958e-193
-1.23991e-191
35.4416
0.728128
-59.6059
8.00173
0.170101
0.220823
0.00471721
-0.00625687
-0.000127612
-0.000166839
-3.40533e-06
4.10999e-06
8.05215e-08
9.92083e-08
1.92594e-09
-2.16851e-09
-4.0737e-11
-4.18512e-11
-7.69099e-13
9.01185e-13
1.61472e-14
1.1987e-14
2.07061e-16
-2.84071e-16
-4.81811e-18
-2.19203e-18
-3.51518e-20
6.42923e-20
1.02337e-21
2.23464e-22
3.22147e-24
-9.62885e-24
-1.42491e-25
-1.16177e-26
-1.33044e-28
8.15087e-28
1.11197e-29
8.80276e-31
9.14215e-33
-5.54372e-32
-6.87773e-34
-6.37741e-34
-7.34811e-36
-4.53747e-36
-4.88364e-38
-2.48795e-38
-2.49768e-40
-1.14757e-40
-1.07149e-42
-4.6329e-43
-4.00706e-45
-1.67807e-45
-1.33805e-47
-5.53697e-48
-4.04733e-50
-1.6818e-50
-1.11953e-52
-4.73572e-53
-2.84868e-55
-1.24222e-55
-6.6904e-58
-3.04477e-58
-1.45209e-60
-6.98535e-61
-2.91016e-63
-1.50072e-63
-5.36922e-66
-3.01695e-66
-9.06694e-69
-5.66386e-69
-1.38775e-71
-9.89458e-72
-1.89365e-74
-1.59969e-74
-2.23648e-77
-2.37374e-77
-2.14849e-80
-3.19223e-80
-1.39737e-83
-3.81237e-83
0
-3.90025e-86
1.56501e-89
-3.1657e-89
2.3742e-92
-1.59546e-92
1.54972e-95
3.26092e-96
-8.22293e-99
1.63832e-98
-3.01387e-101
1.39571e-101
-2.38286e-104
-4.34577e-105
1.93415e-107
-2.31588e-107
6.15032e-110
-1.8116e-110
3.20615e-113
1.91428e-113
-8.60791e-116
5.41559e-116
-1.60465e-118
2.1955e-119
2.06951e-122
-9.21629e-122
4.06117e-124
-1.58046e-124
3.88087e-127
4.0439e-128
-6.6215e-130
4.6659e-130
-1.82035e-132
4.75473e-133
-6.06946e-137
-7.57066e-136
5.58209e-138
-2.49348e-138
6.51789e-141
-1.00927e-141
-1.15947e-143
7.03917e-144
-3.68647e-146
1.4153e-146
1.14695e-151
-4.09791e-150
1.46822e-151
-6.15247e-152
1.82448e-154
-8.74585e-155
-4.18098e-157
1.05071e-157
-1.42609e-159
5.77073e-160
6.19213e-164
6.23108e-163
7.63935e-165
-1.51643e-165
1.19e-167
-6.24787e-168
-2.44768e-170
-5.52842e-171
-1.17194e-172
2.16189e-173
-6.82747e-176
8.08066e-176
6.36978e-178
6.35837e-179
1.81353e-180
-3.38318e-181
-4.69505e-184
-1.23775e-183
-1.41579e-185
-9.3121e-187
-3.02583e-188
5.86378e-189
3.22926e-191
3.14277e-193
2.1733e-191
5.14477
0.126162
-27.3974
0.0868726
0.00212381
-0.00405773
-9.52702e-05
-5.52376e-05
-1.30262e-06
3.04583e-06
6.84457e-08
4.08304e-08
9.16375e-10
-1.93759e-09
-4.16409e-11
-2.41651e-11
-5.12604e-13
9.75618e-13
2.00015e-14
9.67623e-15
1.92908e-16
-3.7564e-16
-7.30894e-18
-2.42613e-18
-4.49712e-20
1.07044e-19
1.96261e-21
3.24497e-22
5.41374e-24
-2.15984e-23
-3.69946e-25
-8.35575e-27
-6.13241e-29
2.88089e-27
4.56406e-29
-1.58476e-30
-3.48061e-32
-2.21799e-31
-3.22429e-33
-3.72556e-35
1.58038e-37
1.74134e-35
2.29368e-37
2.01633e-37
2.4651e-39
1.46833e-39
1.67222e-41
8.31381e-42
8.80468e-44
3.95979e-44
3.88604e-46
1.65019e-46
1.49393e-48
6.15987e-49
5.11627e-51
2.09075e-51
1.58296e-53
6.51786e-54
4.46424e-56
1.87914e-56
1.15381e-58
5.0333e-59
2.74036e-61
1.25606e-61
5.9829e-64
2.92433e-64
1.19821e-66
6.35189e-67
2.19022e-69
1.28545e-69
3.62101e-72
2.41676e-72
5.32964e-75
4.20096e-75
6.78504e-78
6.70139e-78
7.02776e-81
9.69822e-81
4.93586e-84
1.25005e-83
0
1.38964e-86
-6.54847e-90
1.24715e-89
-1.10932e-92
7.45915e-93
-8.90566e-96
-7.96192e-98
1.78498e-99
-6.60012e-99
1.4791e-101
-7.29652e-102
1.59841e-104
6.00584e-107
-5.07125e-108
1.04865e-107
-3.50368e-110
1.17451e-110
-3.12249e-113
-5.35994e-114
3.78995e-116
-2.93085e-116
1.14983e-118
-2.30043e-119
4.14573e-122
4.03266e-122
-2.48199e-124
1.06831e-124
-4.03742e-127
2.7124e-128
2.37771e-130
-2.67622e-130
1.50521e-132
-4.38181e-133
1.05816e-135
2.46457e-136
-3.71366e-138
1.81518e-138
-8.25707e-141
1.80612e-141
3.17218e-144
-3.93471e-144
3.53211e-146
-1.32045e-146
3.26722e-149
-5.81519e-150
-1.0407e-151
4.58433e-152
-2.79515e-154
1.07017e-154
9.99567e-158
-1.40722e-158
1.48654e-159
-5.41686e-160
1.60547e-162
-1.00262e-162
-5.65301e-165
7.77293e-166
-1.79466e-167
7.10223e-168
4.79879e-171
1.10922e-170
1.22466e-172
-1.68077e-173
1.92788e-175
-1.06075e-175
-4.76482e-178
-1.44558e-178
-2.36601e-180
3.3755e-181
-1.55322e-183
1.7924e-183
1.45849e-185
2.20121e-186
4.64359e-188
-6.87557e-189
-3.25414e-192
-3.86066e-193
-3.36258e-191
0.0644629
0.00180428
-3.92497
-0.00277966
-7.44836e-05
-1.9612e-05
-5.25668e-07
1.97297e-06
5.05106e-08
9.16619e-09
2.40594e-10
-1.37842e-09
-3.37043e-11
-6.66481e-12
-1.65191e-13
8.43808e-13
1.96627e-14
4.04063e-15
9.3113e-17
-4.06747e-16
-9.00309e-18
-1.44129e-18
-3.06061e-20
1.46769e-19
3.06941e-21
2.2035e-22
4.06825e-24
-3.83788e-23
-7.52855e-25
2.5478e-26
6.21861e-28
7.00741e-27
1.27779e-28
-1.56497e-29
-3.03273e-31
-8.49111e-31
-1.42407e-32
1.71574e-33
3.12321e-35
6.12387e-35
9.38564e-37
-4.87539e-38
-9.12593e-40
-5.74338e-39
-7.94633e-41
-6.62621e-41
-8.49574e-43
-4.92069e-43
-5.85901e-45
-2.8611e-45
-3.15636e-47
-1.40083e-47
-1.42595e-49
-5.99913e-50
-5.6056e-52
-2.29832e-52
-1.95896e-54
-7.99234e-55
-6.16769e-57
-2.54744e-57
-1.76399e-59
-7.49121e-60
-4.60458e-62
-2.04116e-62
-1.09895e-64
-5.16601e-65
-2.3957e-67
-1.21559e-67
-4.75092e-70
-2.65784e-70
-8.49985e-73
-5.38819e-73
-1.35146e-75
-1.00872e-75
-1.85676e-78
-1.73241e-78
-2.07537e-81
-2.70142e-81
-1.57488e-84
-3.76173e-84
0
-4.54576e-87
2.47326e-90
-4.50334e-90
4.65991e-93
-3.14151e-93
4.46616e-96
-5.02408e-97
3.023e-100
2.34453e-99
-6.29157e-102
3.37187e-102
-9.0471e-105
8.82623e-106
-5.84092e-109
-4.11634e-108
1.69404e-110
-6.46465e-111
2.2603e-113
7.49023e-116
-1.0463e-116
1.37438e-116
-6.84033e-119
1.69657e-119
-5.78161e-122
-1.26577e-122
1.17692e-124
-6.18783e-125
3.17996e-127
-4.61566e-128
3.93209e-131
1.25657e-130
-9.84801e-133
3.26481e-133
-1.41456e-135
4.37769e-137
1.65019e-138
-1.11471e-138
7.47034e-141
-1.89632e-141
3.70857e-144
1.41498e-144
-2.50749e-146
1.03154e-146
-5.03659e-149
1.15359e-149
3.88442e-152
-2.69464e-152
2.83979e-154
-1.0524e-154
2.22199e-157
-6.51538e-158
-1.08505e-159
4.23328e-160
-2.73966e-162
1.2141e-162
1.85548e-165
1.35035e-166
1.86226e-167
-6.84769e-168
1.79354e-170
-1.5896e-170
-9.09879e-173
7.16994e-174
-2.79756e-175
1.19493e-175
1.42435e-178
2.34378e-178
2.38302e-180
-2.51272e-181
3.80029e-183
-2.25992e-183
-1.09891e-185
-3.88402e-186
-5.68168e-188
6.54926e-189
-4.31728e-191
3.84133e-193
4.60406e-191
-0.00105516
-3.13998e-05
-0.0538237
-2.02728e-05
-6.22066e-07
1.45561e-06
4.22323e-08
2.35529e-10
1.03262e-11
-9.15333e-10
-2.52987e-11
2.01671e-12
5.05966e-14
5.90442e-13
1.55567e-14
-1.22179e-15
-2.93356e-17
-3.46673e-16
-8.67762e-18
5.16296e-19
1.22922e-20
1.60486e-19
3.80047e-21
-2.83185e-22
-6.78211e-24
-5.46684e-23
-1.2177e-24
1.5271e-25
3.47795e-27
1.32351e-26
2.75171e-28
-5.34045e-29
-1.12946e-30
-2.20973e-30
-4.24705e-32
1.04257e-32
2.03656e-34
2.48477e-34
4.36619e-36
-8.27499e-37
-1.51991e-38
-1.72418e-38
-2.76013e-40
3.40933e-41
5.80849e-43
1.97824e-42
2.84643e-44
2.26116e-44
3.00812e-46
1.70593e-46
2.10015e-48
1.01395e-48
1.15159e-50
5.08266e-51
5.29993e-53
2.22806e-53
2.12021e-55
8.72787e-56
7.52403e-58
3.09831e-58
2.39843e-60
1.00607e-60
6.91893e-63
3.0069e-63
1.81302e-65
8.3041e-66
4.31734e-68
2.12343e-68
9.31514e-71
5.02934e-71
1.80771e-73
1.1019e-73
3.11084e-76
2.22599e-76
4.61968e-79
4.12278e-79
5.57919e-82
6.93675e-82
4.57853e-85
1.04466e-84
0
1.37286e-87
-8.51191e-91
1.49908e-90
-1.77841e-93
1.20399e-93
-1.99465e-96
3.81978e-97
-6.04094e-100
-7.24156e-100
2.3108e-102
-1.39177e-102
4.44396e-105
-7.27764e-106
1.78841e-108
1.36847e-108
-6.90852e-111
3.09724e-111
-1.34197e-113
1.1589e-114
-9.50092e-118
-5.52415e-117
3.41593e-119
-1.01678e-119
4.82191e-122
1.12639e-123
-3.76556e-125
3.08828e-125
-2.03465e-127
3.99777e-128
-1.51483e-130
-4.40321e-131
5.04995e-133
-2.05366e-133
1.26271e-135
-1.5061e-136
-1.50176e-139
5.67726e-139
-5.27593e-141
1.54551e-141
-7.08114e-144
1.24638e-145
1.23541e-146
-6.84084e-147
5.0345e-149
-1.28178e-149
1.90152e-152
1.06407e-152
-2.13057e-154
8.72062e-155
-4.23473e-157
1.12317e-157
4.40444e-160
-2.68775e-160
2.94236e-162
-1.2148e-162
2.1278e-165
-9.31199e-166
-1.36987e-167
5.63203e-168
-3.42424e-170
1.85451e-170
3.35676e-173
4.45757e-174
2.86236e-175
-1.16994e-175
2.39504e-178
-3.09062e-178
-1.7622e-180
9.35195e-182
-5.27598e-183
2.5077e-183
4.16832e-186
5.64424e-186
5.5415e-188
-4.61089e-189
9.07646e-191
-2.9096e-193
-5.61144e-191
-1.03321e-05
-3.5999e-07
-4.38555e-05
5.97009e-07
1.92411e-08
5.13708e-09
1.75063e-10
-7.32702e-10
-2.28504e-11
4.19018e-12
1.26391e-13
4.09714e-13
1.21249e-14
-3.56455e-15
-1.01774e-16
-2.42318e-16
-6.82342e-18
2.155e-18
5.84416e-20
1.35756e-19
3.62105e-21
-1.04686e-21
-2.71227e-23
-6.0418e-23
-1.51838e-24
4.24613e-25
1.05021e-26
1.95098e-26
4.58968e-28
-1.39007e-28
-3.24925e-30
-4.39653e-30
-9.60124e-32
3.31391e-32
7.22743e-34
6.77513e-34
1.35916e-35
-4.97938e-36
-1.00358e-37
-7.26676e-38
-1.32478e-39
3.31639e-40
6.24392e-42
4.94775e-42
8.20364e-44
-1.76749e-44
-2.9786e-46
-7.0904e-46
-1.051e-47
-8.00418e-48
-1.09381e-49
-6.11219e-50
-7.69762e-52
-3.69916e-52
-4.27643e-54
-1.89149e-54
-1.99584e-56
-8.45721e-57
-8.08734e-59
-3.37577e-59
-2.90029e-61
-1.21919e-61
-9.31175e-64
-4.01957e-64
-2.69368e-66
-1.21679e-66
-7.03719e-69
-3.39379e-69
-1.65776e-71
-8.73438e-72
-3.49954e-74
-2.07351e-74
-6.53345e-77
-4.53002e-77
-1.05074e-79
-9.06491e-80
-1.37327e-82
-1.64823e-82
-1.22021e-85
-2.68751e-85
0
-3.84266e-88
2.6871e-91
-4.6187e-91
6.21094e-94
-4.22759e-94
8.03576e-97
-1.97511e-97
4.17923e-100
1.8739e-100
-7.16866e-103
5.1586e-103
-1.92233e-105
4.09338e-106
-1.40799e-108
-3.6086e-109
2.2959e-111
-1.30724e-111
6.78661e-114
-9.82196e-115
3.61767e-117
1.84283e-117
-1.41654e-119
5.19705e-120
-3.11693e-122
2.05787e-123
1.15392e-126
-1.32084e-125
1.08198e-127
-2.64422e-128
1.53357e-130
6.97195e-132
-1.84127e-133
1.11146e-133
-8.84706e-136
1.49665e-136
-5.7765e-139
-2.26678e-139
2.94256e-141
-1.05429e-141
7.21327e-144
-7.63157e-145
-2.2874e-147
3.85584e-147
-3.86324e-149
1.104e-149
-5.1758e-152
-4.4621e-155
1.13731e-154
-6.23954e-155
4.64774e-157
-1.23765e-157
1.59603e-160
1.27672e-160
-2.33506e-162
1.0466e-162
-4.83723e-165
1.40669e-165
5.71352e-168
-3.94377e-168
3.88035e-170
-1.85403e-170
2.71727e-173
-1.45203e-173
-2.10637e-175
1.00646e-175
-5.22916e-178
3.49005e-178
7.0569e-181
9.05886e-182
5.29479e-183
-2.47676e-183
3.44413e-186
-7.05557e-186
-4.10405e-188
1.4295e-189
-1.19374e-190
1.30683e-193
6.13962e-191
-1.48486e-08
-7.01724e-10
-5.06566e-08
4.37021e-09
1.65346e-10
-3.21025e-10
-1.11274e-11
-1.7519e-13
-1.20883e-14
3.59166e-13
1.19668e-14
-4.19296e-15
-1.35728e-16
-1.77344e-16
-5.57801e-18
2.83096e-18
8.66372e-20
9.52726e-20
2.84579e-21
-1.60311e-21
-4.64347e-23
-5.05457e-23
-1.42608e-24
7.57715e-25
2.07977e-26
2.16102e-26
5.71939e-28
-2.84159e-28
-7.37155e-30
-6.6293e-30
-1.63346e-31
8.08577e-32
1.96765e-33
1.39592e-33
3.17235e-35
-1.63626e-35
-3.69734e-37
-2.00928e-37
-4.16414e-39
2.1102e-39
4.38572e-41
2.13846e-41
4.00648e-43
-1.23421e-43
-2.38204e-45
-1.43588e-45
-2.44649e-47
8.44631e-48
1.42738e-49
2.63879e-49
3.99268e-51
2.93585e-51
4.08106e-53
2.26109e-53
2.88264e-55
1.38853e-55
1.61548e-57
7.21778e-58
7.61157e-60
3.28085e-60
3.10956e-62
1.33012e-62
1.12127e-64
4.87161e-65
3.60544e-67
1.62543e-67
1.03891e-69
4.96685e-70
2.6835e-72
1.39404e-72
6.18362e-75
3.59662e-75
1.25597e-77
8.51891e-78
2.1926e-80
1.84562e-80
3.10688e-83
3.63251e-83
2.99323e-86
6.42043e-86
0
9.9922e-89
-7.81537e-92
1.32026e-91
-1.99444e-94
1.36577e-94
-2.94404e-97
8.37569e-98
-2.14237e-100
-3.63958e-101
1.75812e-103
-1.71959e-103
7.37382e-106
-1.87739e-106
7.97355e-109
5.84261e-110
-5.52736e-112
4.88392e-112
-2.97227e-114
5.65843e-115
-2.95446e-117
-4.64354e-118
4.65046e-120
-2.31504e-120
1.67523e-122