/*--------------------------------*- C++ -*----------------------------------*\
| =========                 |                                                 |
| \\      /  F ield         | OpenFOAM: The Open Source CFD Toolbox           |
|  \\    /   O peration     | Version:  2312                                  |
|   \\  /    A nd           | Website:  www.openfoam.com                      |
|    \\/     M anipulation  |                                                 |
\*---------------------------------------------------------------------------*/
FoamFile
{
    version     2.0;
    format      ascii;
    arch        "LSB;label=32;scalar=64";
    class       surfaceScalarField;
    location    "0.028";
    object      phi;
}
// * * * * * * * * * * * * * * * * * * * * * * * * * * * * * * * * * * * * * //

dimensions      [0 3 -1 0 0 0 0];

oriented        oriented;

internalField   nonuniform List<scalar> 
62015
(
76.4869
0.402364
-77.0442
75.9291
0.393291
75.371
0.384046
74.8127
0.374636
74.2542
0.365068
73.6956
0.35535
73.1368
0.345488
72.5779
0.335491
72.0188
0.325367
71.4595
0.315121
70.8998
0.304764
70.3396
0.294302
69.7792
0.283746
69.217
0.273106
68.6515
0.262374
68.093
0.251575
67.5337
0.240784
66.9194
0.229838
66.3641
0.218602
66.0473
0.208219
65.0532
0.198113
63.3812
0.182775
66.5765
0.171625
68.0447
0.184468
42.7529
0.147283
10.3376
0.0351064
0.348102
0.0009121
0.000424197
8.81513e-07
5.68605e-07
1.1315e-09
6.12799e-10
1.01361e-12
7.39816e-13
1.10179e-15
7.60998e-16
9.44167e-19
8.0019e-19
8.48916e-22
7.61318e-22
6.57337e-25
6.97064e-25
4.83602e-28
5.87112e-28
3.10903e-31
4.57481e-31
1.73957e-34
3.21033e-34
7.76683e-38
1.97316e-37
2.2781e-41
1.00023e-40
0
3.59902e-44
-3.78381e-48
3.49675e-48
-6.89484e-52
-5.98126e-51
1.78092e-54
-3.78667e-54
1.5033e-57
4.819e-58
-1.22466e-61
1.97323e-60
-1.04693e-63
6.97673e-64
-5.76358e-67
-8.90103e-67
4.44033e-70
-9.49013e-70
8.03507e-73
2.09368e-73
1.57567e-76
9.43876e-76
-7.20186e-79
3.21995e-79
-7.56659e-82
-7.99204e-82
2.73806e-85
-8.32744e-85
1.27986e-87
4.57746e-88
7.36084e-91
1.36132e-90
-1.39679e-93
2.57381e-94
-2.56989e-96
-1.80591e-96
1.72255e-100
-1.65258e-99
5.15938e-102
1.73153e-102
4.51684e-105
4.10124e-105
-6.69922e-108
7.8993e-110
-1.63827e-110
-7.5823e-111
-4.16288e-115
-6.41334e-114
3.83447e-116
9.89674e-117
3.87419e-119
2.22381e-119
-5.74286e-122
-1.42064e-123
-1.57903e-124
-5.17371e-125
-1.14378e-128
-4.67071e-128
4.14417e-130
7.87419e-131
4.75873e-133
1.97372e-133
-6.48728e-136
5.81834e-138
-2.09592e-138
-5.15337e-139
-4.88685e-142
-5.90213e-142
5.70297e-144
7.58143e-145
8.3006e-147
2.57242e-147
-7.54274e-150
8.92098e-151
-3.55862e-152
-6.5546e-153
-2.13192e-155
8.79034e-158
-1.10093e-155
74.0506
0.791103
-74.5951
73.5059
0.773214
72.9614
0.754992
72.417
0.736452
71.8728
0.717607
71.3289
0.698472
70.7853
0.67906
70.2419
0.659385
69.6988
0.639464
69.1557
0.619312
68.6126
0.598942
68.0695
0.578371
67.5266
0.55762
66.9815
0.536702
66.435
0.515602
65.8982
0.494411
65.3493
0.473218
64.7476
0.451531
64.2741
0.429629
63.943
0.410037
62.6395
0.388299
61.5761
0.355928
66.1466
0.346713
62.5533
0.37042
32.5864
0.232433
5.45106
0.034358
0.0849534
0.000407621
3.18309e-05
1.29946e-07
6.60455e-08
2.66916e-10
1.44704e-11
4.97512e-14
1.56772e-14
6.24812e-17
-3.10495e-17
-7.41543e-20
-5.04656e-20
-1.00466e-22
-8.26079e-23
-1.47072e-25
-9.70898e-26
-1.41257e-28
-1.03725e-28
-1.19713e-31
-9.589e-32
-8.15886e-35
-7.80432e-35
-4.35474e-38
-5.42257e-38
-1.48623e-41
-3.05203e-41
0
-1.20121e-44
3.17923e-48
-1.29991e-48
6.75539e-52
2.19023e-51
-1.69706e-54
1.38564e-54
-1.4348e-57
-3.08446e-58
3.48629e-61
-8.40348e-61
1.25532e-63
-1.78321e-64
3.7928e-67
5.10397e-67
-9.36301e-70
3.69997e-70
-8.82481e-73
-2.86185e-73
5.24723e-76
-5.00046e-76
1.33293e-78
6.69541e-80
1.26086e-82
6.21958e-82
-1.72465e-84
2.39683e-85
-1.28774e-87
-7.16175e-88
1.78369e-90
-7.51892e-91
3.34035e-93
6.60371e-94
-6.24152e-97
1.62635e-96
-6.5197e-99
-9.43442e-101
-3.98912e-102
-2.98194e-102
9.70951e-105
-1.87919e-105
1.66548e-107
4.49297e-108
-6.35932e-111
7.17889e-111
-4.36668e-113
-3.95396e-114
-2.63971e-116
-1.8925e-116
8.11615e-119
-6.79196e-120
1.48387e-121
3.84938e-122
-5.9552e-125
5.08233e-125
-4.63148e-127
-4.87824e-128
-3.35715e-130
-1.7668e-130
9.47031e-133
-4.63751e-134
2.05074e-135
4.28776e-136
-4.53077e-139
5.79109e-139
-6.78219e-141
-5.83026e-142
-6.7811e-144
-2.32332e-144
1.30916e-146
-9.53036e-148
3.83089e-149
5.85992e-150
6.47396e-153
1.00479e-152
-1.18632e-154
-1.80565e-157
-5.72172e-156
71.6801
1.16649
-72.212
71.1485
1.14004
70.6173
1.11311
70.0867
1.08572
69.5566
1.05789
69.0272
1.02963
68.4984
1.00097
67.9701
0.971936
67.4424
0.942541
66.9152
0.912812
66.3882
0.882766
65.8617
0.852431
65.3355
0.82184
64.8068
0.79099
64.28
0.759885
63.763
0.728725
63.217
0.697423
62.6424
0.665158
62.2707
0.633671
61.8068
0.605591
60.2051
0.568315
60.4496
0.522223
65.4604
0.535807
53.9924
0.530897
21.5646
0.231701
2.08109
0.0180785
0.0108332
7.37211e-05
1.36406e-06
8.92563e-09
7.61437e-09
4.38636e-11
6.68751e-13
2.84749e-15
5.03866e-15
2.31055e-17
2.69994e-18
9.64893e-21
6.48919e-21
2.1516e-23
7.90585e-24
2.16359e-26
1.09944e-26
2.51119e-29
1.25767e-29
2.26981e-32
1.30318e-32
1.74929e-35
1.1666e-35
1.03326e-38
8.87347e-39
3.88892e-42
5.41111e-42
0
2.28497e-45
-9.80256e-49
2.66042e-49
-2.25284e-52
-4.52833e-52
5.74458e-55
-2.83852e-55
4.80375e-58
9.07424e-59
-1.80908e-61
1.93404e-61
-4.8097e-64
1.34704e-65
-5.63443e-68
-1.44158e-67
4.59846e-70
-6.66746e-71
2.70348e-73
1.17102e-73
-4.33719e-76
1.20004e-76
-5.60167e-79
-9.22494e-80
3.42293e-82
-1.97896e-82
1.02693e-84
4.20775e-86
-6.99956e-90
3.22207e-88
-1.77134e-90
9.23474e-92
-1.03373e-93
-5.07505e-94
2.74259e-96
-4.49046e-97
3.86573e-99
7.09174e-100
-3.07842e-102
1.33281e-102
-1.06515e-104
-6.24916e-106
-1.09437e-108
-3.31504e-108
2.41563e-110
-9.26574e-112
2.26657e-113
7.04712e-114
-4.11068e-116
7.64135e-117
-9.56655e-119
-1.13756e-119
2.03429e-122
-2.89822e-122
2.82134e-124
4.75988e-126
2.25582e-127
8.22557e-128
-5.81068e-130
6.35163e-131
-1.28891e-132
-1.70638e-133
3.36155e-136
-3.53484e-136
4.36415e-138
1.36816e-139
4.03592e-141
1.20629e-141
-9.1778e-144
9.10411e-145
-2.44918e-146
-2.71823e-147
-4.00221e-151
-6.06124e-150
8.21734e-152
1.43407e-153
1.10151e-154
-1.36548e-157
2.15393e-155
69.3782
1.52888
-69.8974
68.8596
1.49413
68.3417
1.45875
67.8248
1.42278
67.3087
1.38624
66.7935
1.34916
66.2793
1.31156
65.7659
1.27347
65.2534
1.23491
64.7415
1.19593
64.2303
1.15654
63.7201
1.11678
63.2096
1.07669
62.6972
1.03624
62.191
0.99551
61.6888
0.954786
61.1416
0.913499
60.6246
0.871047
60.337
0.831638
59.5706
0.793738
57.9639
0.736106
60.2292
0.691604
62.9682
0.741263
42.4379
0.61079
11.6934
0.162542
0.51336
0.00552025
0.000586469
5.10991e-06
1.32266e-07
1.41577e-09
3.63553e-10
2.64523e-12
-8.7534e-14
-4.64146e-16
8.13727e-17
4.67825e-19
-2.73001e-19
-1.38896e-21
-3.50401e-22
-1.57301e-24
-6.95094e-25
-2.62977e-27
-9.68957e-28
-3.04073e-30
-1.25304e-30
-3.1164e-33
-1.40029e-33
-2.59527e-36
-1.35956e-36
-1.66702e-39
-1.11266e-39
-6.7706e-43
-7.25956e-43
0
-3.25983e-46
1.95307e-49
-4.09592e-50
4.85991e-53
6.90404e-53
-1.22772e-55
4.311e-56
-1.02218e-58
-1.75971e-59
5.03076e-62
-3.19133e-62
1.11961e-64
2.26903e-66
-6.08517e-69
2.74819e-68
-1.25602e-70
6.24382e-72
-3.82466e-74
-2.80051e-74
1.54158e-76
-1.64224e-77
1.13232e-79
3.21897e-80
-1.99766e-82
3.52674e-83
-2.74184e-85
-3.80923e-86
2.43578e-88
-7.53176e-89
6.42128e-91
3.73198e-92
-1.76641e-94
1.62527e-94
-1.46901e-96
3.63322e-99
-4.40687e-100
-3.45451e-100
3.16315e-102
-2.01125e-103
3.11096e-105
6.83781e-106
-5.81988e-108
9.15699e-109
-1.22858e-110
-1.09816e-111
6.20707e-114
-3.12932e-114
3.87891e-116
6.08701e-118
1.50443e-119
9.00349e-120
-9.91537e-122
5.57478e-123
-1.35536e-124
-2.10846e-125
1.71114e-127
-3.48814e-128
5.89348e-130
3.112e-131
6.71305e-134
1.36016e-133
-1.82327e-135
3.76133e-137
-2.23284e-138
-3.91626e-139
3.51964e-141
-5.35803e-142
1.16878e-143
6.91941e-145
2.09419e-147
2.55847e-147
-3.8048e-149
6.61372e-151
-5.61749e-152
-7.91626e-153
6.18186e-155
2.86238e-157
-1.20856e-155
67.1453
1.87864
-67.6518
66.6398
1.83583
66.1353
1.79228
65.632
1.748
65.1298
1.70303
64.6288
1.65741
64.1289
1.61116
63.6302
1.56432
63.1326
1.51692
62.6359
1.469
62.1402
1.42059
61.6457
1.37173
61.1504
1.32246
60.6549
1.27274
60.1693
1.22281
59.6737
1.17282
59.132
1.12155
58.7096
1.06997
58.4141
1.02412
57.229
0.971465
56.296
0.893654
60.5163
0.880401
57.038
0.934631
29.4897
0.561995
4.85274
0.0794779
0.072719
0.000926678
2.65611e-07
-2.19109e-08
4.06165e-08
4.61033e-10
-6.73147e-12
-9.61854e-14
1.7753e-14
1.81681e-16
-4.68916e-18
-5.61752e-20
1.62588e-20
1.2678e-22
1.87449e-23
1.00078e-25
4.88682e-26
2.46425e-28
7.3349e-29
2.94702e-31
1.06375e-31
3.42931e-34
1.27723e-34
3.0525e-37
1.3364e-37
2.11731e-40
1.16744e-40
9.18506e-44
8.09393e-44
0
3.84395e-47
-2.98583e-50
5.19817e-51
-8.02007e-54
-8.63318e-54
1.99269e-56
-5.3846e-57
1.65841e-59
2.65108e-60
-9.91944e-63
4.24656e-63
-1.94051e-65
-9.0378e-67
4.29431e-69
-4.06043e-69
2.43313e-71
8.3469e-75
1.00013e-75
4.81335e-75
-3.5225e-77
1.07546e-78
-1.10913e-80
-6.84663e-81
5.81852e-83
-3.47785e-84
3.84084e-86
1.10884e-86
-1.04689e-88
1.00052e-89
-1.20374e-91
-1.90835e-92
1.89861e-94
-2.87542e-95
3.71279e-97
3.13738e-98
-2.96008e-100
8.2875e-101
-1.12352e-102
-3.67836e-104
1.59315e-106
-2.34291e-106
3.23939e-108
-3.76205e-110
1.67923e-111
6.25051e-112
-8.41359e-114
5.2225e-115
-1.13977e-116
-1.46189e-117
1.71393e-119
-2.65664e-120
5.05112e-122
2.40153e-123
-1.12544e-125
1.03102e-125
-1.77062e-127
1.23522e-129
-1.32133e-130
-3.24463e-131
4.71982e-133
-3.46656e-134
9.48831e-136
7.51128e-137
-6.32903e-139
1.9487e-139
-4.08598e-141
-5.38118e-143
-2.4526e-144
-7.41906e-145
1.19622e-146
-6.49938e-148
2.38112e-149
1.90036e-150
-1.42517e-152
4.65296e-153
-1.08188e-154
-9.12068e-158
-1.15548e-156
64.981
2.21612
-65.4746
64.4885
2.16553
63.9974
2.11405
63.5076
2.06174
63.0192
2.00863
62.5322
1.95475
62.0466
1.90014
61.5624
1.84485
61.0795
1.78891
60.5976
1.73235
60.1173
1.67524
59.6379
1.61761
59.1574
1.55947
58.6803
1.50083
58.2125
1.44211
57.7154
1.38294
57.2033
1.32184
56.8902
1.26311
56.4182
1.21021
54.9186
1.13513
55.5696
1.05167
59.9653
1.09972
47.273
1.04337
17.3683
0.399832
1.40294
0.0256877
0.00501811
7.41298e-05
-2.05447e-06
-2.79597e-08
4.07626e-09
5.34481e-11
-3.22361e-12
-3.90717e-14
3.15804e-15
3.57953e-17
-2.36749e-18
-2.45954e-20
1.9666e-21
1.79758e-23
-2.03246e-24
-1.62805e-26
-1.33499e-27
-7.51269e-30
-5.01431e-30
-2.57319e-32
-7.13626e-33
-2.82935e-35
-9.96185e-36
-2.95805e-38
-1.11554e-38
-2.18811e-41
-1.04714e-41
-1.0209e-44
-7.71535e-45
0
-3.87054e-48
3.73074e-51
-5.58382e-52
1.07332e-54
9.23834e-55
-2.64437e-57
5.72575e-58
-2.19216e-60
-3.3593e-61
1.56224e-63
-4.77623e-64
2.71486e-66
1.77538e-67
-1.09499e-69
4.96529e-70
-3.71217e-72
-1.24578e-73
8.77557e-76
-6.56154e-76
6.0314e-78
9.22458e-80
-5.25924e-82
1.07219e-81
-1.15862e-83
3.56253e-87
-1.14642e-87
-2.07918e-87
2.55078e-89
-4.47115e-91
9.22206e-93
4.55919e-93
-6.15128e-95
2.38995e-96
-4.5446e-98
-1.06981e-98
1.53288e-100
-1.04068e-101
1.99041e-103
2.50874e-104
-3.62714e-106
4.18623e-107
-8.14502e-109
-5.24763e-110
6.74483e-112
-1.58344e-112
3.10458e-114
6.66916e-116
-1.04372e-118
5.55551e-118
-1.07109e-119
1.7704e-121
-8.12339e-123
-1.73664e-123
3.12087e-125
-2.00484e-126
5.69444e-128
4.36047e-129
-6.11335e-131
1.09948e-131
-2.70703e-133
-5.41164e-135
-4.66732e-137
-4.53429e-137
9.77085e-139
-2.6168e-140
1.25815e-141
1.41413e-142
-2.33687e-144
2.53959e-145
-7.68219e-147
-2.4875e-148
-2.38708e-151
-1.26765e-150
3.01308e-152
-5.81286e-154
4.03065e-155
-6.68931e-158
4.20541e-156
62.8837
2.54172
-63.3644
62.4043
2.48357
61.9265
2.42444
61.4503
2.36436
60.9756
2.30337
60.5025
2.24152
60.031
2.17884
59.5611
2.11539
59.0926
2.0512
58.6255
1.98632
58.1601
1.92081
57.6952
1.85472
57.2298
1.78799
56.7722
1.72084
56.3155
1.65366
55.8159
1.58518
55.3719
1.51511
55.123
1.45155
54.2924
1.38652
52.9548
1.28457
55.7792
1.23088
56.6543
1.32918
34.9211
0.983265
8.11849
0.20941
0.248896
0.00499871
9.79477e-05
1.48204e-06
-1.39806e-08
4.86877e-11
1.86228e-10
2.59373e-12
-1.62724e-13
-2.16825e-15
2.39758e-16
2.93927e-18
-2.16978e-19
-2.48689e-21
1.54509e-22
1.61365e-24
-1.61743e-25
-1.42963e-27
1.35678e-28
1.07756e-30
1.35894e-31
8.11232e-34
4.22318e-34
2.04468e-36
6.12287e-37
2.18086e-39
7.82309e-40
1.84754e-42
7.92577e-43
9.29732e-46
6.2505e-46
0
3.31728e-49
-3.85355e-52
4.98012e-53
-1.1604e-55
-8.56232e-56
2.94848e-58
-5.15592e-59
2.3857e-61
3.72969e-62
-2.08641e-64
4.57638e-65
-3.14326e-67
-2.66661e-68
2.00984e-70
-5.13448e-71
4.6456e-73
2.88944e-74
-2.67411e-76
7.37289e-77
-8.2354e-79
-4.23849e-80
4.54516e-82
-1.32421e-82
1.7517e-84
7.46255e-86
-8.78754e-88
2.88727e-88
-4.38443e-90
-1.38831e-91
1.6438e-93
-7.36963e-94
1.25044e-95
2.18377e-97
-1.78532e-99
2.10826e-99
-3.89493e-101
-1.09697e-105
-8.00601e-105
-6.4365e-105
1.26025e-106
-2.64615e-108
8.64312e-110
1.98575e-110
-3.98623e-112
1.92861e-113
-5.44742e-115
-5.76848e-116
1.12246e-117
-1.04633e-118
2.82942e-120
1.37552e-121
-2.17441e-123
4.86362e-124
-1.27321e-125
-1.35538e-127
-2.3059e-129
-1.96269e-129
4.86295e-131
-1.20014e-132
5.55904e-134
6.54889e-135
-1.42045e-136
1.10871e-137
-3.76502e-139
-1.48318e-140
1.75467e-142
-6.02595e-143
1.76492e-144
-6.35715e-147
1.34902e-147
2.38538e-148
-5.77277e-150
3.09267e-151
-1.30028e-152
-6.05026e-154
7.51339e-156
6.54832e-158
-2.05047e-156
60.852
2.85577
-61.3198
60.3857
2.79033
59.9211
2.7238
59.4583
2.65621
58.9972
2.58762
58.5379
2.51806
58.0803
2.44759
57.6244
2.37626
57.1701
2.30412
56.7176
2.23121
56.2668
2.15761
55.8158
2.08333
55.3666
2.00835
54.9277
1.93311
54.4731
1.85758
53.9849
1.77966
53.6428
1.70271
53.3271
1.63493
52.086
1.54777
51.7636
1.42946
56.0646
1.45268
49.3032
1.48836
22.1842
0.740589
2.74082
0.0754862
0.0228416
0.000503235
-1.07265e-05
-2.32562e-07
1.60559e-08
3.26118e-10
-1.04315e-11
-2.08685e-13
3.454e-15
8.47063e-17
-2.99213e-18
-6.22557e-20
-4.52848e-21
-4.07515e-23
6.52032e-24
6.57449e-26
-1.35605e-27
-1.20121e-29
7.30154e-30
5.73693e-32
-5.74571e-33
-4.31653e-35
-1.37871e-35
-7.87769e-38
-3.10988e-38
-1.30671e-40
-4.40939e-41
-1.22411e-43
-4.96277e-44
-6.8512e-47
-4.21929e-47
0
-2.36882e-50
3.24604e-53
-3.48629e-54
9.66775e-57
6.85355e-57
-2.77796e-59
3.79127e-60
-2.08039e-62
-3.68897e-63
2.42956e-65
-3.6436e-66
2.96927e-68
3.37658e-69
-3.02211e-71
4.42288e-72
-4.75836e-74
-4.57902e-75
5.12281e-77
-6.7798e-78
9.04161e-80
8.20848e-81
-1.09331e-82
1.28912e-83
-2.04977e-85
-1.7931e-86
2.74472e-88
-3.00777e-89
5.54365e-91
4.48104e-92
-7.636e-94
8.48803e-95
-1.76831e-96
-1.2072e-97
2.20977e-99
-2.8075e-100
6.44598e-102
3.26399e-103
-6.07957e-105
1.03722e-105
-2.56027e-107
-7.801e-109
1.27811e-110
-4.05576e-111
1.05092e-112
9.88443e-115
4.51678e-117
1.59258e-116
-4.22353e-118
5.53634e-120
-2.92538e-121
-5.93953e-122
1.55705e-123
-6.39868e-125
2.43059e-126
1.93843e-127
-4.66651e-129
4.2164e-130
-1.45983e-131
-4.46243e-133
6.76998e-135
-2.18791e-135
7.0759e-137
-2.08268e-139
4.30898e-140
9.17839e-141
-2.67831e-142
1.06267e-143
-4.94554e-145
-2.8126e-146
6.1881e-148
-7.87964e-149
2.97751e-150
2.90767e-152
9.77989e-154
3.82838e-154
-1.21582e-155
-2.07907e-158
3.63072e-157
58.8841
3.15864
-59.3392
58.4308
3.08616
57.9794
3.01247
57.5299
2.93764
57.0822
2.8617
56.6365
2.78471
56.1926
2.70673
55.7506
2.6278
55.3103
2.54798
54.8721
2.46733
54.4352
2.38593
53.998
2.30373
53.5667
2.22086
53.1418
2.13791
52.6833
2.0538
52.239
1.967
51.9917
1.88622
51.416
1.80985
50.03
1.69093
51.6162
1.59367
54.5831
1.71035
38.3669
1.45295
11.4121
0.419726
0.587895
0.0169994
0.000785009
1.8415e-05
-8.76871e-07
-1.95214e-08
1.4075e-09
3.04701e-11
-1.59043e-12
-3.2714e-14
1.77344e-15
3.38055e-17
-1.24145e-18
-2.29642e-20
1.30774e-21
2.1125e-23
-7.92284e-25
-1.21004e-26
1.68585e-28
3.26222e-30
-6.84427e-31
-6.97414e-33
-1.81548e-34
-8.59195e-37
2.36407e-37
1.57577e-39
1.1368e-39
5.55813e-42
2.00095e-42
6.40223e-45
2.51814e-45
4.01507e-48
2.3176e-48
0
1.36577e-51
-2.17119e-54
1.69501e-55
-5.5538e-58
-4.68376e-58
2.19854e-60
-2.09917e-61
1.35236e-63
3.22591e-64
-2.46502e-66
2.23114e-67
-2.14142e-69
-3.67411e-70
3.83833e-72
-2.92411e-73
3.72996e-75
5.84124e-76
-7.6796e-78
4.65549e-79
-7.43831e-81
-1.17806e-81
1.85696e-83
-8.83721e-85
1.71031e-86
2.86076e-87
-5.233e-89
2.02658e-90
-4.6487e-92
-8.07617e-93
1.67121e-94
-5.86046e-96
1.55432e-97
2.56249e-98
-5.85822e-100
2.18385e-101
-6.4534e-103
-8.78009e-104
2.16206e-105
-9.93948e-107
3.14951e-108
3.09219e-109
-7.95015e-111
5.02036e-112
-1.65998e-113
-1.04665e-114
2.67448e-116
-2.598e-117
8.8011e-119
3.00165e-120
-6.65545e-122
1.30537e-122
-4.45568e-124
-4.27196e-126
-2.25763e-128
-6.09695e-128
2.05049e-129
-2.94441e-131
1.8638e-132
2.50328e-133
-7.94655e-135
3.61291e-136
-1.65198e-137
-8.00152e-139
2.08458e-140
-2.47556e-141
1.01109e-142
1.07207e-144
1.42095e-146
1.26967e-146
-4.66874e-148
9.74329e-150
-6.38407e-151
-4.75284e-152
1.4256e-153
-1.0517e-154
4.92758e-156
-1.49808e-160
8.56332e-158
56.9785
3.45068
-57.4207
56.5381
3.37139
56.0997
3.29081
55.6633
3.20897
55.2289
3.12595
54.7965
3.04179
54.3661
2.95656
53.9377
2.87031
53.5112
2.78309
53.0869
2.69499
52.6633
2.60605
52.2407
2.5162
51.8275
2.42588
51.4085
2.33537
50.9515
2.24232
50.5917
2.14862
50.3511
2.066
49.372
1.96962
48.5392
1.82334
52.1166
1.80889
49.4084
1.92491
25.8347
1.1567
4.33603
0.166556
0.0674358
0.00206198
-2.55167e-05
-8.24918e-07
1.89773e-08
6.29815e-10
2.56436e-11
4.70379e-13
-6.78815e-14
-1.41605e-15
8.96326e-17
1.82322e-18
-1.40873e-19
-2.62194e-21
1.04674e-22
1.86785e-24
-1.12757e-25
-1.75808e-27
1.04103e-28
1.4176e-30
-1.38527e-32
-2.51465e-34
7.33357e-35
6.72099e-37
9.50348e-40
-2.62343e-41
-2.28822e-41
-1.24648e-43
-7.58235e-44
-2.74871e-46
-1.04424e-46
-1.8852e-49
-1.0187e-49
0
-6.09171e-53
1.10829e-55
-3.30005e-57
1.36596e-59
2.67281e-59
-1.43561e-61
6.723e-63
-5.17879e-65
-2.41858e-65
2.12226e-67
-7.88476e-69
9.19961e-71
3.37296e-71
-4.06519e-73
1.01062e-74
-1.63392e-76
-6.16306e-77
9.38263e-79
-1.30809e-80
2.9291e-82
1.37005e-82
-2.5082e-84
1.23034e-86
-4.81096e-88
-3.58162e-88
7.6363e-90
1.54053e-92
5.18086e-94
1.08448e-93
-2.63158e-95
-1.5844e-97
4.15716e-100
-3.76174e-99
1.01903e-100
6.08226e-103
1.02189e-106
1.46565e-104
-4.34632e-106
-5.4355e-109
-7.35244e-110
-6.19501e-110
1.96769e-111
-1.55359e-113
1.00493e-114
2.70919e-115
-8.9887e-117
1.91577e-118
-9.3672e-120
-1.15761e-120
3.88431e-122
-1.58754e-123
7.17855e-125
4.46526e-126
-1.42973e-127
1.08844e-128
-4.74245e-130
-1.30484e-131
3.20914e-133
-6.42422e-134
2.70198e-135
5.53265e-138
9.86444e-139
3.21872e-139
-1.2765e-140
3.01771e-142
-1.8833e-143
-1.26953e-144
4.37456e-146
-2.92864e-147
1.47795e-148
2.84878e-150
-4.00334e-152
1.80301e-152
-8.01462e-154
8.87731e-156
-8.62935e-157
2.86111e-159
-7.74603e-158
55.1333
3.73224
-55.5629
54.7057
3.64638
54.2801
3.55913
53.8566
3.47055
53.4353
3.38069
53.0161
3.28963
52.599
3.1974
52.1838
3.10409
51.771
3.00974
51.3601
2.91447
50.9493
2.81823
50.5429
2.72107
50.1452
2.62372
49.7235
2.52539
49.2927
2.42356
49.0345
2.32655
48.6247
2.23901
47.3436
2.1081
48.0345
1.97068
51.7354
2.08464
40.0896
1.93609
14.2518
0.700817
1.06979
0.0420047
0.00314855
0.000101632
-4.25144e-06
-1.33264e-07
5.18968e-09
1.58369e-10
-5.6608e-12
-1.64666e-13
3.86071e-15
1.12118e-16
-3.78029e-19
-2.54836e-20
3.18888e-23
9.51927e-24
6.04599e-24
1.0225e-25
-4.3628e-27
-7.18402e-29
3.69842e-30
5.52321e-32
-7.84407e-33
-9.49175e-35
-1.71084e-36
-1.22467e-38
-4.1599e-39
-3.25504e-41
7.03331e-43
5.01036e-45
2.62602e-45
1.03274e-47
4.05868e-48
8.06426e-51
3.72239e-51
0
1.98108e-54
-4.07311e-57
-2.79587e-58
1.022e-60
-1.21335e-60
7.39984e-63
1.30873e-64
-7.74027e-67
1.46559e-66
-1.46681e-68
-2.4749e-70
2.17055e-72
-2.49118e-72
3.43836e-74
7.31198e-76
-9.00884e-78
5.22507e-78
-9.14317e-80
-2.4093e-81
3.81272e-83
-1.27949e-83
2.70144e-85
8.52143e-87
-1.63573e-88
3.56961e-89
-8.80683e-91
-3.23757e-92
7.25837e-94
-1.12913e-94
3.18503e-96
1.31441e-97
-3.33942e-99
4.08825e-100
-1.29676e-101
-5.58904e-103
1.56144e-104
-1.71214e-105
6.00645e-107
2.39304e-108
-7.08183e-110
8.20493e-111
-3.12054e-112
-9.62622e-114
2.83162e-115
-4.31382e-116
1.73885e-117
3.10642e-119
-7.33577e-121
2.34371e-121
-9.78163e-123
-2.75376e-125
-2.08693e-126
-1.23679e-126
5.20841e-128
-7.44632e-130
5.19784e-131
5.92726e-132
-2.42468e-133
9.01919e-135
-5.0858e-136
-2.31055e-137
8.34578e-139
-7.06009e-140
3.66382e-141
4.90531e-143
-5.3488e-145
4.28669e-145
-2.0628e-146
2.35263e-148
-2.21028e-149
-1.98345e-150
8.37714e-152
-3.74207e-153
2.29308e-154
5.52698e-156
-1.36223e-157
-1.41363e-159
2.71176e-158
53.347
4.00364
-53.7641
52.9319
3.91145
52.519
3.81777
52.1083
3.72269
51.6998
3.62625
51.2935
3.52852
50.8893
3.42956
50.4873
3.32943
50.0878
3.22824
49.6895
3.12603
49.2921
3.02273
48.9028
2.9187
48.5137
2.81452
48.0891
2.70779
47.7246
2.59895
47.5162
2.50197
46.7503
2.39744
45.7004
2.22947
48.4684
2.17434
48.2496
2.34971
28.1867
1.61146
5.88743
0.299263
0.143848
0.00582066
-2.74888e-05
-1.45313e-06
-8.62312e-08
-2.50339e-09
2.97944e-10
9.23832e-12
-4.53994e-13
-1.37666e-14
6.15743e-16
1.76766e-17
-6.898e-19
-1.84896e-20
4.02657e-22
1.08941e-23
-5.61239e-25
-1.25291e-26
6.52054e-29
2.38972e-30
5.73248e-32
2.35496e-34
2.82954e-34
3.81943e-36
5.05277e-37
5.21789e-39
2.73274e-40
2.24233e-42
8.60799e-44
5.19983e-46
-1.6014e-46
-6.83413e-49
-2.13877e-49
-4.52987e-52
-1.49242e-52
0
-4.51754e-56
1.02414e-58
3.33952e-59
-1.44679e-61
3.84634e-62
-2.66064e-64
-3.49148e-65
2.98669e-67
-6.34021e-68
7.24026e-70
6.76407e-71
-8.50523e-73
1.3282e-73
-2.10202e-75
-1.74023e-76
2.85785e-78
-3.20587e-79
6.47553e-81
5.22099e-82
-1.05087e-83
8.62048e-85
-2.11821e-86
-1.74801e-87
4.145e-89
-2.53496e-90
7.35136e-92
6.44989e-93
-1.75461e-94
8.11e-96
-2.72434e-97
-2.61764e-98
8.01283e-100
-2.88073e-101
1.10806e-102
1.16486e-103
-3.94581e-105
1.20313e-106
-5.22425e-108
-5.6015e-109
2.06189e-110
-6.28014e-112
2.98944e-113
2.81676e-114
-1.10153e-115
4.0168e-117
-2.01893e-118
-1.40515e-119
5.6597e-121
-2.84252e-122
1.46759e-123
6.41285e-125
-2.51801e-126
2.01191e-127
-1.04882e-128
-2.24767e-130
7.10142e-132
-1.33031e-132
6.89028e-134
1.44622e-136
2.10322e-137
7.77672e-138
-3.90236e-139
6.96734e-141
-5.39944e-142
-3.70847e-143
1.69786e-144
-8.16948e-146
5.19496e-147
1.1366e-148
-3.4251e-150
6.04446e-151
-3.46059e-152
1.47629e-154
-2.73756e-155
-3.18663e-156
1.58963e-157
3.87064e-160
-5.31807e-159
51.6178
4.26522
-52.0226
51.2151
4.16692
50.8147
4.06706
50.4165
3.9657
50.0206
3.86291
49.627
3.75876
49.2355
3.65332
48.8464
3.54664
48.4597
3.43886
48.0736
3.32993
47.6907
3.21986
47.3173
3.10942
46.9276
2.99815
46.5174
2.88282
46.2502
2.77093
45.9415
2.67237
44.8087
2.53206
44.9293
2.36031
48.6722
2.46069
40.4297
2.41384
16.3178
1.02632
1.59811
0.081636
0.00811071
0.000341834
-1.20124e-05
-4.98131e-07
1.19769e-08
4.94798e-10
-7.68677e-12
-3.2701e-13
-8.62634e-15
-2.17468e-16
2.47369e-17
7.13282e-19
-3.82876e-20
-1.0771e-21
6.46843e-23
1.6549e-24
-3.81546e-26
-9.73237e-28
5.94861e-29
1.25749e-30
-3.97293e-32
-7.60669e-34
-8.26002e-36
-4.57985e-38
-5.32859e-38
-6.4594e-40
-3.06763e-41
-2.67528e-43
-1.11861e-44
-7.82704e-47
1.27612e-47
5.95929e-50
1.85659e-50
4.24422e-53
1.07081e-53
0
1.27759e-57
-2.93097e-60
-2.21695e-60
1.05086e-62
-4.46226e-64
3.70399e-66
2.6212e-66
-2.54403e-68
1.14517e-69
-1.58931e-71
-6.04817e-72
8.74627e-74
-3.19159e-75
6.18263e-77
1.7949e-77
-3.40281e-79
8.46902e-81
-2.17056e-82
-6.00052e-83
1.39594e-84
-2.1904e-86
7.33185e-88
2.17798e-88
-5.96902e-90
5.1673e-92
-2.37025e-93
-8.51053e-94
2.67315e-95
-7.73267e-98
6.78174e-99
3.59357e-99
-1.26908e-100
-2.42667e-103
-1.30258e-104
-1.65861e-104
6.49339e-106
3.3387e-108
-9.45501e-111
8.45578e-110
-3.62241e-111
-1.97454e-113
5.94823e-116
-4.73419e-115
2.18461e-116
3.8554e-119
3.8896e-120
2.81843e-120
-1.37324e-121
8.19228e-124
-8.27856e-125
-1.6893e-125
8.48069e-127
-1.49146e-128
1.08068e-129
9.49596e-131
-4.74749e-132
1.6632e-133
-1.09965e-134
-4.49562e-136
2.08059e-137
-1.4581e-138
9.20147e-140
1.30977e-141
-3.49108e-143
1.04422e-143
-6.28447e-145
4.02783e-147
-5.43803e-148
-5.89591e-149
3.25685e-150
-1.0032e-151
7.77471e-153
2.20882e-154
-9.19942e-156
9.11604e-157
-6.10447e-158
-3.66429e-161
2.10187e-161
49.9441
4.51731
-50.3368
49.5537
4.41312
49.1655
4.3073
48.7796
4.1999
48.396
4.091
48.0148
3.98067
47.6358
3.86897
47.2594
3.756
46.8847
3.64185
46.5109
3.52641
46.144
3.41
45.7808
3.29341
45.3866
3.17431
45.0278
3.05187
44.8324
2.94148
44.2221
2.82903
43.117
2.64357
45.2154
2.55124
46.3671
2.76868
29.3062
2.073
7.11706
0.460361
0.237872
0.0122952
1.35874e-05
-5.54455e-07
-4.80926e-07
-2.00936e-08
1.15993e-09
4.81045e-11
-1.53905e-12
-6.25285e-14
1.86237e-15
7.19904e-17
-1.1316e-18
-4.48429e-20
-3.15162e-22
-1.79243e-24
4.37572e-25
9.50312e-27
-3.98681e-27
-9.44274e-29
1.94344e-30
4.60261e-32
-2.59282e-33
-5.28618e-35
4.88152e-36
7.94e-38
2.70348e-39
3.08845e-41
4.31614e-42
4.47376e-44
9.78327e-46
6.86172e-48
-1.08313e-48
-5.39365e-51
-1.92371e-51
-4.81178e-54
-1.12807e-54
0
-1.3086e-58
3.21641e-61
1.61134e-61
-8.0701e-64
-2.98545e-65
2.30626e-67
-1.31561e-67
1.39413e-69
8.39421e-71
-1.03064e-72
3.2158e-73
-5.24722e-75
-2.35842e-76
3.88888e-78
-1.15127e-78
2.48347e-80
9.08811e-82
-1.86087e-83
4.52289e-84
-1.20201e-85
-4.02295e-87
9.80066e-89
-1.86147e-89
5.84799e-91
1.8989e-92
-5.34749e-94
7.99576e-95
-2.88692e-96
-9.47407e-98
3.02569e-99
-3.60085e-100
1.46478e-101
5.03664e-103
-1.80053e-104
1.72673e-105
-7.80592e-107
-2.85738e-108
1.12817e-109
-9.08759e-111
4.51731e-112
1.69552e-113
-7.24232e-115
5.41792e-116
-2.92337e-117
-1.00256e-118
4.47955e-120
-3.65682e-121
2.10135e-122
5.42274e-124
-2.37755e-125
2.66e-126
-1.59188e-127
-2.20185e-129
7.41803e-131
-1.93715e-131
1.18085e-132
3.2396e-136
4.28045e-136
1.31065e-136
-7.93536e-138
1.20683e-139
-1.0894e-140
-7.55135e-142
4.34283e-143
-1.63598e-144
1.25493e-145
3.07551e-147
-1.41942e-148
1.45923e-149
-1.03496e-150
-8.56742e-154
-4.70312e-154
-9.55669e-155
6.18746e-156
-1.32491e-157
1.23721e-158
-2.09095e-161
4.07154e-160
48.3244
4.76022
-48.7052
47.9459
4.65037
47.5697
4.53879
47.1959
4.42558
46.8244
4.3108
46.4552
4.19451
46.0885
4.0768
45.7243
3.95778
45.3612
3.83745
45.0007
3.71577
44.6494
3.59351
44.2874
3.47051
43.9005
3.34303
43.6309
3.21775
43.3817
3.10865
42.3883
2.95971
42.1843
2.75926
45.6972
2.84535
39.7525
2.88022
17.4808
1.36268
2.04359
0.13133
0.0148676
0.000790795
-2.43807e-05
-1.28902e-06
1.86523e-08
1.02985e-09
1.24451e-11
3.95444e-13
-8.25788e-14
-3.34272e-15
1.39037e-16
5.54711e-18
-2.07069e-19
-7.83441e-21
2.39646e-22
8.45866e-24
-9.27364e-26
-3.68287e-27
2.08181e-28
6.00564e-30
1.06378e-31
1.92993e-33
-9.41592e-35
-1.68825e-36
-1.48637e-37
-2.39163e-39
-4.66404e-40
-6.50055e-42
-3.14453e-43
-3.39984e-45
-1.55351e-46
-1.30306e-48
1.15355e-49
6.31693e-52
1.99976e-52
5.44e-55
1.23025e-55
0
1.56552e-59
-4.29917e-62
-1.65892e-62
8.88748e-65
2.22926e-66
-1.87356e-68
7.02561e-69
-7.6741e-71
-9.44971e-72
1.34407e-73
-8.73512e-75
1.60715e-76
3.34722e-77
-6.66477e-79
3.55814e-80
-9.03486e-82
-1.49951e-82
3.76429e-84
-1.76396e-85
5.56096e-87
7.28324e-88
-2.18034e-89
8.6516e-91
-3.25116e-92
-3.65472e-93
1.26068e-94
-4.23054e-96
1.84542e-97
1.88861e-98
-7.33177e-100
2.07716e-101
-1.0326e-102
-1.01616e-103
4.36859e-105
-1.03141e-106
5.78204e-108
5.79617e-109
-2.72966e-110
5.3759e-112
-3.38011e-113
-3.55769e-114
1.81757e-115
-3.24822e-117
2.25502e-118
2.33573e-119
-1.27632e-120
2.51932e-122
-1.85124e-123
-1.57829e-124
9.02371e-126
-2.38647e-127
1.779e-128
1.02521e-129
-5.93357e-131
2.3703e-132
-1.7595e-133
-5.75086e-135
3.15561e-136
-2.20676e-137
1.61856e-138
2.10749e-140
-7.78776e-142
1.80633e-142
-1.2943e-143
4.99767e-146
-9.32667e-147
-1.22191e-147
8.31784e-149
-1.89944e-150
1.77399e-151
5.96857e-153
-3.48736e-154
2.14996e-155
-1.76457e-156
-9.09695e-159
-2.51016e-160
1.18005e-161
-1.59183e-160
46.7571
4.99426
-47.1262
46.3903
4.87895
46.0258
4.76185
45.6638
4.64304
45.3041
4.52259
44.9468
4.40057
44.5921
4.27709
44.2394
4.15223
43.8877
4.02591
43.5421
3.89839
43.2018
3.77059
42.835
3.64028
42.4888
3.50569
42.3003
3.38321
41.7951
3.26281
40.7126
3.06175
42.3419
2.93938
44.1423
3.1902
29.3606
2.51761
7.84316
0.626313
0.319416
0.0205048
8.82431e-05
2.73637e-06
-1.24819e-06
-6.6694e-08
2.89786e-09
1.53453e-10
-3.41544e-12
-1.80171e-13
2.55763e-15
1.36442e-16
2.92592e-18
9.9611e-20
-9.11477e-21
-3.44413e-22
1.40883e-23
5.22312e-25
-2.68338e-26
-8.91112e-28
1.10256e-29
3.9265e-31
-2.53423e-32
-6.94154e-34
1.39125e-35
3.45829e-37
1.64974e-38
2.61895e-40
3.82649e-41
5.8417e-43
3.42686e-44
4.06485e-46
1.2808e-47
1.17143e-49
-1.13665e-50
-6.62736e-53
-2.10213e-53
-6.19436e-56
-1.30575e-56
7.75028e-65
-1.54055e-60
4.66709e-63
1.9529e-63
-1.1349e-65
-1.71295e-67
1.43722e-69
-7.11078e-70
8.14255e-72
5.96567e-73
-9.06178e-75
-1.84631e-77
4.3869e-79
-1.99808e-78
4.45408e-80
1.39017e-81
-2.97439e-83
1.08327e-83
-3.09706e-85
-6.7091e-87
1.60027e-88
-6.40624e-89
2.19555e-90
3.29402e-92
-8.1957e-94
3.76702e-94
-1.4924e-95
-1.72252e-97
4.30933e-99
-2.2039e-99
9.84436e-101
9.65826e-103
-2.43731e-104
1.29819e-104
-6.42021e-106
-6.02002e-108
1.64126e-109
-7.84532e-110
4.24219e-111
4.21361e-113
-1.33073e-114
5.01055e-115
-2.93782e-116
-3.06967e-118
1.08178e-119
-3.48587e-120
2.19761e-121
1.96817e-123
-6.28366e-125
2.64565e-125
-1.76783e-126
-6.91841e-129
-1.06672e-130
-2.09317e-130
1.4511e-131
-6.71859e-134
1.00579e-134
1.5992e-135
-1.11952e-136
1.8508e-138
-1.81214e-139
-1.07315e-140
7.28004e-142
-2.54286e-143
2.2468e-144
5.34517e-146
-3.1081e-147
2.57347e-148
-2.14782e-149
-6.7885e-152
-4.86092e-153
-1.99668e-153
1.56346e-154
-2.36738e-156
2.6799e-157
1.08704e-158
-7.41685e-160
-3.14217e-162
3.39027e-161
45.2405
5.21974
-45.5981
44.8852
5.09917
44.5322
4.97675
44.1817
4.85255
43.8335
4.72665
43.4879
4.59912
43.1448
4.4701
42.803
4.33958
42.4637
4.20749
42.133
4.07465
41.7952
3.94106
41.4316
3.80261
41.1668
3.66548
40.9523
3.54674
40.069
3.38865
39.71
3.16394
42.9446
3.24341
38.3683
3.33516
17.7447
1.67545
2.29668
0.180649
0.0204978
0.0013413
-3.88982e-05
-2.54801e-06
2.15584e-08
1.59883e-09