/*--------------------------------*- C++ -*----------------------------------*\
| =========                 |                                                 |
| \\      /  F ield         | OpenFOAM: The Open Source CFD Toolbox           |
|  \\    /   O peration     | Version:  2312                                  |
|   \\  /    A nd           | Website:  www.openfoam.com                      |
|    \\/     M anipulation  |                                                 |
\*---------------------------------------------------------------------------*/
FoamFile
{
    version     2.0;
    format      ascii;
    arch        "LSB;label=32;scalar=64";
    class       surfaceScalarField;
    location    "0.586";
    object      phi;
}
// * * * * * * * * * * * * * * * * * * * * * * * * * * * * * * * * * * * * * //

dimensions      [0 3 -1 0 0 0 0];

oriented        oriented;

internalField   nonuniform List<scalar> 
62015
(
86.2044
0.168174
-86.0832
86.3158
0.16525
86.4176
0.162216
86.5103
0.159076
86.5941
0.155833
86.6693
0.152488
86.7364
0.149044
86.7954
0.145504
86.8468
0.141871
86.8906
0.138148
86.9272
0.134337
86.9567
0.130442
86.9793
0.126465
86.9952
0.122409
87.0045
0.118277
87.0075
0.114072
87.0041
0.109799
86.9945
0.105458
86.9788
0.101054
86.957
0.0965897
86.9292
0.0920688
86.8956
0.087494
86.8559
0.0828691
86.8104
0.0781974
86.7589
0.0734821
86.7015
0.068727
86.638
0.063935
86.5685
0.0591105
86.4928
0.0542566
86.4109
0.0493769
86.3225
0.0444749
86.2276
0.0395548
86.1259
0.0346206
86.0173
0.0296751
85.9016
0.0247233
85.7784
0.0197681
85.6475
0.0148142
85.5085
0.00986575
85.3611
0.00492594
85.2049
0
85.0394
-0.00490828
84.8641
-0.00979505
84.6785
-0.0146549
84.482
-0.019484
84.2738
-0.024278
84.0533
-0.0290311
83.8196
-0.0337397
83.5717
-0.0383977
83.3086
-0.0430007
83.0291
-0.0475432
82.7319
-0.0520192
82.4155
-0.0564229
82.0781
-0.0607481
81.7178
-0.0649888
81.3323
-0.069137
80.9189
-0.0731859
80.4741
-0.0771266
79.9935
-0.0809498
79.4759
-0.0846446
78.9204
-0.0882023
78.3048
-0.0916159
77.5747
-0.094852
76.7567
-0.09783
76.1546
-0.100566
75.9529
-0.103468
74.5304
-0.106844
68.0455
-0.108394
55.7387
-0.102098
43.3485
-0.0860205
35.9548
-0.0687136
33.0265
-0.0585895
32.1936
-0.0552915
32.1029
-0.0552771
32.2581
-0.0564461
32.4976
-0.0580126
32.7758
-0.0597075
33.0589
-0.0614755
33.3915
-0.063196
-0.0651423
33.6154
83.8987
0.332435
-83.8024
83.9865
0.326575
84.066
0.320505
84.1375
0.314232
84.2014
0.30776
84.2578
0.301093
84.307
0.294237
84.3493
0.287198
84.3849
0.279979
84.414
0.272587
84.4367
0.265028
84.4533
0.257305
84.4638
0.249426
84.4686
0.241395
84.4676
0.233219
84.461
0.224903
84.4489
0.216453
84.4315
0.207875
84.4087
0.199176
84.3806
0.190361
84.3473
0.181436
84.3089
0.172409
84.2653
0.163285
84.2165
0.154071
84.1626
0.144773
84.1034
0.135398
84.039
0.125953
83.9693
0.116445
83.8943
0.10688
83.8137
0.0972658
83.7276
0.087609
83.6357
0.077917
83.5379
0.0681967
83.434
0.0584564
83.3239
0.0487023
83.2072
0.0389425
83.0838
0.0291846
82.9533
0.0194361
82.8154
0.00970538
82.6698
0
82.5161
-0.00967189
82.3537
-0.0193021
82.1823
-0.0288824
82.0013
-0.038404
81.8102
-0.0478581
81.6081
-0.0572361
81.3946
-0.0665282
81.1686
-0.075726
80.9294
-0.084819
80.6759
-0.0937975
80.4069
-0.102651
80.1213
-0.111368
79.8176
-0.119938
79.4941
-0.128349
79.149
-0.136588
78.7801
-0.14464
78.3849
-0.152493
77.9599
-0.160128
77.5011
-0.167528
77.0077
-0.174672
76.4788
-0.181544
75.8911
-0.18813
75.1914
-0.194358
74.4146
-0.200065
73.871
-0.20531
73.7174
-0.21097
72.2799
-0.217611
65.7867
-0.220238
53.6999
-0.206474
41.7522
-0.173091
34.7395
-0.138063
31.9986
-0.117969
31.229
-0.111517
31.1522
-0.111498
31.3021
-0.113781
31.5349
-0.11681
31.7881
-0.120137
32.0929
-0.12343
-0.127161
32.3021
81.6453
0.492809
-81.5716
81.7117
0.48401
81.7709
0.47491
81.8232
0.465517
81.8688
0.455838
81.908
0.445879
81.941
0.435648
81.968
0.425153
81.9892
0.414399
82.0047
0.403396
82.0147
0.392151
82.0194
0.380672
82.019
0.368966
82.0134
0.357043
82.0029
0.344909
81.9876
0.332574
81.9675
0.320046
81.9428
0.307334
81.9134
0.294446
81.8795
0.281391
81.841
0.268178
81.7981
0.254817
81.7507
0.241316
81.6989
0.227685
81.6426
0.213934
81.5817
0.200072
81.5163
0.186108
81.4463
0.172053
81.3717
0.157917
81.2922
0.143709
81.2079
0.129439
81.1187
0.115119
81.0242
0.100758
80.9245
0.0863674
80.8193
0.071957
80.7084
0.0575384
80.5916
0.0431224
80.4686
0.0287195
80.3391
0.0143416
80.2028
0
80.0595
-0.0142938
79.9086
-0.0285282
79.7498
-0.0426914
79.5825
-0.0567704
79.4064
-0.0707534
79.2207
-0.084628
79.0249
-0.0983804
78.8183
-0.111998
78.6001
-0.125467
78.3695
-0.138773
78.1254
-0.151902
77.8668
-0.164838
77.5925
-0.177566
77.3012
-0.190069
76.9911
-0.20233
76.6607
-0.21433
76.3078
-0.226049
75.93
-0.237466
75.524
-0.248558
75.086
-0.259295
74.6157
-0.26965
74.112
-0.2796
73.5509
-0.289126
72.8806
-0.298113
72.1437
-0.306311
71.6537
-0.313853
71.5379
-0.322133
70.0736
-0.331897
63.5686
-0.335095
51.7078
-0.312794
40.2039
-0.261136
33.5648
-0.208097
31.0042
-0.178123
30.2952
-0.168583
30.23
-0.168546
30.3793
-0.171849
30.5912
-0.176311
30.8648
-0.180964
-0.186299
31.0579
79.4368
0.649287
-79.3832
79.4841
0.637558
79.5252
0.625444
79.5604
0.612955
79.5898
0.600099
79.6137
0.586885
79.6322
0.573322
79.6455
0.55942
79.6538
0.545187
79.6573
0.530635
79.656
0.515772
79.6501
0.500609
79.6398
0.485155
79.6251
0.469422
79.6061
0.45342
79.583
0.437159
79.5558
0.42065
79.5245
0.403905
79.4893
0.386935
79.4502
0.36975
79.4072
0.352363
79.3604
0.334785
79.3097
0.317028
79.2551
0.299105
79.1967
0.281026
79.1344
0.262805
79.0682
0.244454
78.9981
0.225986
78.9238
0.207413
78.8455
0.188748
78.763
0.170004
78.6761
0.151195
78.5848
0.132334
78.4889
0.113434
78.3882
0.094509
78.2825
0.0755731
78.1717
0.0566397
78.0556
0.0377237
77.9338
0.0188389
77.806
0
77.6721
-0.0187782
77.5316
-0.0374808
77.3841
-0.0560926
77.2293
-0.0745977
77.0667
-0.0929816
76.8957
-0.111227
76.716
-0.129318
76.5267
-0.147238
76.3274
-0.164969
76.1172
-0.182495
75.8952
-0.199797
75.6607
-0.216855
75.4126
-0.233652
75.1496
-0.250165
74.8706
-0.266375
74.5739
-0.282258
74.258
-0.29779
73.9209
-0.312946
73.5603
-0.327698
73.1729
-0.342017
72.7555
-0.355865
72.3077
-0.369205
71.8286
-0.382011
71.2938
-0.394258
70.6529
-0.405786
69.9544
-0.416261
69.5126
-0.425905
69.4309
-0.436654
67.9627
-0.449386
61.5016
-0.452839
49.8952
-0.421537
38.7958
-0.351184
32.4711
-0.279689
30.0567
-0.239413
29.3938
-0.226537
29.3403
-0.226307
29.4748
-0.230603
29.7066
-0.236129
-0.242809
29.8803
77.2709
0.801865
-77.235
77.3015
0.787224
77.3267
0.772121
77.3467
0.756567
77.3618
0.740571
77.3722
0.724145
77.3779
0.7073
77.3792
0.690046
77.3762
0.672396
77.369
0.654359
77.3577
0.63595
77.3425
0.617179
77.3235
0.598058
77.3008
0.578601
77.2744
0.558819
77.2445
0.538726
77.211
0.518335
77.1742
0.497659
77.1339
0.476712
77.0903
0.455507
77.0434
0.434058
76.9932
0.412379
76.9397
0.390484
76.883
0.368389
76.8229
0.346107
76.7595
0.323654
76.6928
0.301043
76.6226
0.278292
76.549
0.255414
76.4719
0.232425
76.3911
0.209342
76.3066
0.18618
76.2183
0.162954
76.126
0.139682
76.0297
0.116379
75.929
0.0930632
75.8238
0.0697503
75.714
0.0464571
75.5993
0.0232011
75.4795
0
75.3542
-0.0231288
75.2233
-0.0461677
75.0862
-0.0690983
74.9428
-0.0919018
74.7926
-0.11456
74.6351
-0.137054
74.4699
-0.159365
74.2965
-0.181471
74.1142
-0.203354
73.9225
-0.224992
73.7206
-0.246365
73.5078
-0.26745
73.2831
-0.288224
73.0456
-0.308664
72.7942
-0.328746
72.5277
-0.348443
72.2445
-0.367729
71.9433
-0.386575
71.6221
-0.404949
71.2787
-0.422819
70.9101
-0.440148
70.5132
-0.456893
70.0879
-0.473006
69.6334
-0.488462
69.1255
-0.503227
68.5155
-0.5171
67.853
-0.529667
67.4478
-0.541228
67.399
-0.55424
65.9931
-0.569792
59.7088
-0.573685
48.4147
-0.533995
37.6319
-0.445178
31.5027
-0.354291
29.1677
-0.302459
28.5309
-0.28547
28.4695
-0.284812
28.6236
-0.289616
-0.297029
28.7685
75.1477
0.95055
-75.1274
75.1635
0.933025
75.1747
0.914965
75.1815
0.896384
75.1841
0.877294
75.1825
0.857705
75.1771
0.837631
75.1678
0.817086
75.1549
0.796081
75.1384
0.77463
75.1184
0.752748
75.0951
0.730447
75.0686
0.707741
75.0388
0.684646
75.006
0.661176
74.9702
0.637346
74.9314
0.61317
74.8897
0.588665
74.8452
0.563846
74.7978
0.538728
74.7476
0.513328
74.6946
0.487662
74.6389
0.461746
74.5803
0.435598
74.519
0.409234
74.4549
0.382671
74.3879
0.355927
74.318
0.329019
74.2452
0.301964
74.1694
0.274782
74.0905
0.247489
74.0084
0.220105
73.9231
0.192648
73.8343
0.165136
73.742
0.137589
73.6461
0.110026
73.5463
0.0824655
73.4425
0.0549281
73.3344
0.0274327
73.222
0
73.1048
-0.02735
72.9827
-0.054597
72.8553
-0.0817197
72.7224
-0.108698
72.5836
-0.135509
72.4385
-0.162132
72.2866
-0.188545
72.1277
-0.214725
71.961
-0.24065
71.7861
-0.266295
71.6024
-0.291638
71.4092
-0.316653
71.2057
-0.341314
70.9912
-0.365596
70.7646
-0.389472
70.525
-0.412912
70.2712
-0.435888
70.0019
-0.458367
69.7154
-0.480317
69.4103
-0.501701
69.0844
-0.522483
68.7347
-0.542619
68.3584
-0.562059
67.9556
-0.580749
67.5257
-0.59866
67.0458
-0.615757
66.4686
-0.631806
65.8391
-0.646309
65.4562
-0.659602
65.4389
-0.674607
64.1776
-0.692836
58.2344
-0.697909
47.3245
-0.651639
36.7533
-0.545342
30.6758
-0.433672
28.346
-0.368017
27.6956
-0.345684
27.6495
-0.343687
-0.349753
27.735
73.0679
1.09536
-73.0611
73.0707
1.07499
73.0696
1.05401
73.0648
1.03245
73.0564
1.01031
73.0445
0.987615
73.0293
0.964371
73.0108
0.940597
72.9892
0.916305
72.9646
0.891512
72.9371
0.866231
72.9068
0.84048
72.8737
0.814274
72.838
0.787629
72.7996
0.760561
72.7588
0.733087
72.7154
0.705225
72.6696
0.676992
72.6214
0.648404
72.5709
0.61948
72.518
0.590238
72.4627
0.560697
72.4052
0.530874
72.3453
0.50079
72.2831
0.470462
72.2185
0.43991
72.1516
0.409154
72.0822
0.378212
72.0104
0.347107
71.936
0.315856
71.859
0.284482
71.7793
0.253004
71.6969
0.221443
71.6116
0.189821
71.5233
0.158158
71.4319
0.126477
71.3371
0.0947983
71.239
0.0631444
71.1372
0.0315377
71.0316
0
70.922
-0.0314456
70.8082
-0.0627761
70.6898
-0.0939686
70.5666
-0.124999
70.4383
-0.155845
70.3045
-0.186481
70.165
-0.216883
70.0192
-0.247026
69.8669
-0.276885
69.7073
-0.306434
69.5402
-0.335646
69.3648
-0.364495
69.1806
-0.392953
68.9867
-0.420991
68.7826
-0.44858
68.5672
-0.475689
68.3396
-0.502287
68.0987
-0.528339
67.8432
-0.553811
67.5718
-0.578666
67.2828
-0.602863
66.9744
-0.626361
66.6437
-0.649113
66.2881
-0.67106
65.9077
-0.692144
65.5024
-0.712332
65.0515
-0.73159
64.509
-0.749663
63.9097
-0.765978
63.5349
-0.780827
63.5439
-0.797489
62.5032
-0.818213
57.0704
-0.825642
46.6355
-0.775761
36.1776
-0.654014
30.0052
-0.519911
27.5857
-0.437294
26.9154
-0.407159
-0.403741
26.8354
71.0319
1.23634
-71.0371
71.0235
1.21315
71.0118
1.18931
70.9968
1.16481
70.9788
1.13968
70.9579
1.11393
70.9342
1.08758
70.9077
1.06064
70.8786
1.03313
70.847
1.00507
70.813
0.97647
70.7766
0.94735
70.7379
0.917727
70.697
0.887619
70.6539
0.857044
70.6087
0.826022
70.5615
0.79457
70.5123
0.762707
70.4611
0.730454
70.4079
0.697829
70.3528
0.664854
70.2958
0.631546
70.2369
0.597929
70.176
0.564022
70.1133
0.529846
70.0486
0.495422
69.9819
0.460773
69.9132
0.425919
69.8425
0.390883
69.7696
0.355687
69.6946
0.320355
69.6174
0.284907
69.5379
0.249367
69.4559
0.213759
69.3714
0.178106
69.2843
0.142432
69.1944
0.106759
69.1016
0.0711138
69.0057
0.0355191
68.9066
0
68.804
-0.0354188
68.6978
-0.0707123
68.5878
-0.105855
68.4736
-0.140822
68.355
-0.175586
68.2318
-0.210121
68.1035
-0.244401
67.9699
-0.278398
67.8306
-0.312086
67.6851
-0.345436
67.533
-0.37842
67.3739
-0.411008
67.2071
-0.443171
67.032
-0.474879
66.848
-0.5061
66.6544
-0.536801
66.4503
-0.56695
66.2348
-0.596511
66.0069
-0.625448
65.7654
-0.653721
65.509
-0.681292
65.2363
-0.708115
64.9454
-0.734145
64.6338
-0.759331
64.2989
-0.783611
63.9407
-0.806918
63.5597
-0.829216
63.1384
-0.850476
62.6324
-0.870442
62.0619
-0.88847
61.6821
-0.904724
61.7051
-0.922659
60.9383
-0.945582
56.1764
-0.956716
46.3362
-0.907248
35.9273
-0.773439
29.5013
-0.615747
26.9055
-0.511625
-0.470059
26.2874
69.0406
1.37352
-69.056
69.0223
1.34757
69.0012
1.3209
68.9775
1.29352
68.9512
1.26545
68.9224
1.23671
68.8913
1.20732
68.8579
1.17729
68.8224
1.14663
68.7847
1.11538
68.7451
1.08353
68.7035
1.05113
68.66
1.01817
68.6147
0.984687
68.5676
0.950697
68.5188
0.916218
68.4684
0.881272
68.4163
0.84588
68.3626
0.810062
68.3073
0.77384
68.2505
0.737236
68.1921
0.700271
68.1322
0.662968
68.0707
0.62535
68.0077
0.587438
67.9431
0.549258
67.8769
0.510831
67.8091
0.472182
67.7396
0.433334
67.6684
0.394312
67.5954
0.35514
67.5206
0.315844
67.4439
0.276446
67.3652
0.236974
67.2843
0.197451
67.2014
0.157905
67.116
0.11836
67.0283
0.0788441
66.938
0.0393816
66.8449
0
66.749
-0.0392739
66.6499
-0.0784133
66.5476
-0.11739
66.4417
-0.156178
66.3321
-0.194747
66.2186
-0.233071
66.1007
-0.271121
65.9782
-0.308866
65.8509
-0.346279
65.7182
-0.38333
65.5799
-0.419987
65.4355
-0.456221
65.2845
-0.491999
65.1264
-0.52729
64.9607
-0.562061
64.7866
-0.596277
64.6037
-0.629904
64.4109
-0.662906
64.2076
-0.695245
63.9927
-0.726881
63.7652
-0.757775
63.5238
-0.78788
63.2672
-0.817152
62.9938
-0.845541
62.7012
-0.872992
62.3868
-0.899439
62.0505
-0.924812
61.6934
-0.949066
61.3019
-0.972181
60.8339
-0.99392
60.2927
-1.01359
59.8983
-1.03113
59.9144
-1.04995
59.441
-1.07458
55.4859
-1.09061
46.4039
-1.04626
36.0285
-0.905674
29.1555
-0.724863
-0.58738
26.8981
67.0941
1.50696
-67.1185
67.0673
1.47829
67.0381
1.44884
67.0067
1.41864
66.9732
1.3877
66.9377
1.35603
66.9002
1.32366
66.8609
1.2906
66.8198
1.25687
66.777
1.2225
66.7325
1.18749
66.6865
1.15188
66.6389
1.11568
66.5899
1.07891
66.5395
1.04159
66.4877
1.00375
66.4346
0.965403
66.3802
0.926578
66.3245
0.887295
66.2676
0.847577
66.2094
0.807448
66.15
0.76693
66.0894
0.726049
66.0276
0.684828
65.9646
0.643292
65.9003
0.601466
65.8347
0.559375
65.7679
0.517044
65.6998
0.474499
65.6303
0.431767
65.5593
0.388872
65.4869
0.345843
65.413
0.302705
65.3374
0.259486
65.2602
0.216212
65.1811
0.172912
65.1002
0.129612
65.0172
0.0863418
64.9321
0.043128
64.8447
0
64.7549
-0.0430139
64.6625
-0.0858851
64.5674
-0.128584
64.4692
-0.171081
64.368
-0.213347
64.2633
-0.255351
64.155
-0.297064
64.0428
-0.338455
63.9263
-0.379491
63.8054
-0.420143
63.6796
-0.460379
63.5486
-0.500164
63.412
-0.539468
63.2693
-0.578256
63.1201
-0.616494
62.9637
-0.654146
62.7997
-0.691177
62.6274
-0.72755
62.4461
-0.763226
62.2549
-0.798165
62.053
-0.832325
61.8394
-0.865664
61.6129
-0.898133
61.3723
-0.929686
61.1161
-0.960269
60.8423
-0.989825
60.5483
-1.01829
60.2336
-1.04558
59.8998
-1.07165
59.5374
-1.09648
59.1084
-1.11988
58.5993
-1.14114
58.1856
-1.15991
58.1682
-1.17926
57.9661
-1.20488
54.9102
-1.22648
46.8183
-1.19151
36.2921
-1.05617
-0.825147
30.9642
65.1926
1.6367
-65.2248
65.1584
1.60537
65.1223
1.57321
65.0843
1.54024
65.0446
1.50648
65.0033
1.47195
64.9604
1.43667
64.9159
1.40065
64.8701
1.36393
64.8229
1.32651
64.7743
1.28842
64.7246
1.24968
64.6736
1.21032
64.6215
1.17035
64.5683
1.12979
64.514
1.08868
64.4587
1.04703
64.4024
1.00487
64.3452
0.962217
64.287
0.919103
64.2279
0.87555
64.1678
0.831583
64.1068
0.787228
64.0449
0.742511
63.9821
0.697457
63.9183
0.652095
63.8536
0.606448
63.7879
0.560547
63.7212
0.514417
63.6534
0.468086
63.5846
0.421583
63.5145
0.374934
63.4433
0.32817
63.3708
0.281318
63.2969
0.234407
63.2217
0.187466
63.1448
0.140525
63.0664
0.0936144
62.9862
0.0467625
62.9042
0
62.8201
-0.0466427
62.7339
-0.0931351
62.6454
-0.139446
62.5545
-0.185545
62.4609
-0.2314
62.3644
-0.27698
62.2649
-0.322253
62.1621
-0.367186
62.0557
-0.411748
61.9455
-0.455904
61.8312
-0.499623
61.7124
-0.542869
61.5888
-0.585609
61.4601
-0.627808
61.3258
-0.66943
61.1854
-0.710439
61.0385
-0.750799
60.8845
-0.790471
60.7228
-0.829416
60.5527
-0.867593
60.3736
-0.904962
60.1846
-0.941479
59.9847
-0.977097
59.7729
-1.01177
59.5481
-1.04544
59.3089
-1.07806
59.0536
-1.10958
58.7797
-1.13991
58.4862
-1.16898
58.1749
-1.19673
57.8405
-1.22315
57.4507
-1.2481
56.9779
-1.2709
56.5466
-1.29093
56.4721
-1.31048
56.4544
-1.33676
54.4736
-1.36055
46.7835
-1.35483
-1.16303
40.6061
63.3361
1.76281
-63.3751
63.2956
1.72887
63.2535
1.69405
63.2099
1.65837
63.1649
1.62186
63.1186
1.58454
63.071
1.54642
63.0223
1.50752
62.9724
1.46787
62.9215
1.42748
62.8695
1.38639
62.8166
1.34461
62.7628
1.30216
62.7082
1.25908
62.6527
1.21538
62.5964
1.17108
62.5394
1.12622
62.4817
1.08081
62.4232
1.03489
62.3641
0.988478
62.3043
0.941601
62.2439
0.894286
62.1828
0.84656
62.121
0.798449
62.0586
0.749983
61.9955
0.70119
61.9318
0.652096
61.8673
0.602731
61.802
0.553125
61.736
0.503305
61.6692
0.453302
61.6016
0.403144
61.533
0.352864
61.4635
0.302489
61.3929
0.252051
61.3212
0.201581
61.2483
0.15111
61.1741
0.100668
61.0985
0.0502877
61.0215
0
60.9428
-0.050163
60.8624
-0.100169
60.7801
-0.149986
60.6958
-0.199581
60.6093
-0.248922
60.5204
-0.297975
60.429
-0.346707
60.3348
-0.395084
60.2376
-0.443074
60.1373
-0.49064
60.0334
-0.537748
59.9257
-0.584364
59.814
-0.630453
59.698
-0.675977
59.5771
-0.720902
59.4512
-0.765189
59.3196
-0.8088
59.1821
-0.851698
59.038
-0.893843
58.8869
-0.935194
58.728
-0.975709
58.5608
-1.01534
58.3845
-1.05406
58.1981
-1.0918
58.0008
-1.12851
57.7915
-1.16416
57.569
-1.19867
57.3318
-1.232
57.0776
-1.26407
56.805
-1.2948
56.5155
-1.32411
56.2071
-1.352
55.8559
-1.37837
55.4216
-1.40272
54.9969
-1.42374
54.7679
-1.44502
55.1957
-1.46413
52.8632
-1.51611
-1.44852
50.0069
61.5245
1.88536
-61.5693
61.4786
1.84886
61.4314
1.81144
61.383
1.77312
61.3335
1.73393
61.283
1.69387
61.2315
1.65297
61.1791
1.61127
61.1258
1.56876
61.0718
1.52549
61.017
1.48147
60.9615
1.43673
60.9054
1.39129
60.8487
1.34517
60.7914
1.29841
60.7336
1.25102
60.6752
1.20304
60.6164
1.15448
60.5571
1.10538
60.4974
1.05577
60.4372
1.00566
60.3767
0.955095
60.3157
0.904097
60.2542
0.852696
60.1924
0.800919
60.1301
0.748797
60.0674
0.69636
60.0042
0.643637
59.9406
0.590659
59.8764
0.537456
59.8116
0.484059
59.7463
0.4305
59.6803
0.37681
59.6136
0.32302
59.5461
0.269163
59.4779
0.215271
59.4087
0.161376
59.3386
0.10751
59.2674
0.0537072
59.195
0
59.1213
-0.0535782
59.0463
-0.106994
58.9698
-0.160214
58.8916
-0.213203
58.8117
-0.265928
58.7298
-0.318355
58.6459
-0.370448
58.5596
-0.422172
58.4709
-0.473494
58.3794
-0.524376
58.2851
-0.574784
58.1876
-0.624681
58.0867
-0.674031
57.9821
-0.722797
57.8735
-0.770941
57.7606
-0.818426
57.6429
-0.865214
57.5202
-0.911264
57.392
-0.956538
57.2577
-1.00099
57.117
-1.04459
56.9691
-1.08728
56.8136
-1.12903
56.6497
-1.16978
56.4767
-1.20949
56.2935
-1.24811
56.0994
-1.28559
55.8932
-1.32186
55.6736
-1.35686
55.4386
-1.39054
55.1865
-1.4228
54.9178
-1.45358
54.6352
-1.48279
54.3125
-1.51063
53.9524
-1.53576
53.4273
-1.56052
53.4392
-1.57446
53.1247
-1.61391
-1.61762
52.601
59.7576
2.00441
-59.8072
59.707
1.96541
59.6555
1.92546
59.603
1.88456
59.5497
1.84273
59.4957
1.80001
59.4409
1.75642
59.3855
1.71197
59.3294
1.66669
59.2729
1.6206
59.2158
1.57374
59.1582
1.52611
59.1002
1.47776
59.0419
1.4287
58.9832
1.37896
58.9242
1.32856
58.8648
1.27755
58.8053
1.22593
58.7454
1.17375
58.6854
1.12102
58.6251
1.06779
58.5646
1.01407
58.5039
0.959894
58.443
0.905298
58.3818
0.85031
58.3205
0.794961
58.2589
0.739281
58.1971
0.683301
58.135
0.627054
58.0727
0.570571
58.0099
0.513884
57.9469
0.457027
57.8834
0.400032
57.8195
0.342931
57.755
0.285759
57.69
0.228548
57.6244
0.171332
57.5581
0.114147
57.491
0.0570243
57.423
0
57.3541
-0.0568917
57.2841
-0.113616
57.2129
-0.170138
57.1404
-0.226422
57.0666
-0.282433
56.9912
-0.338136
56.914
-0.393494
56.8351
-0.448472
56.7541
-0.503032
56.6709
-0.55714
56.5853
-0.610758
56.497
-0.663848
56.406
-0.716374
56.3118
-0.768298
56.2143
-0.819581
56.1131
-0.870186
56.008
-0.920072
55.8986
-0.969201
55.7845
-1.01753
55.6654
-1.06502
55.5409
-1.11164
55.4103
-1.15733
55.2733
-1.20205
55.1293
-1.24575
54.9776
-1.2884
54.8174
-1.32994
54.6481
-1.37032
54.4688
-1.40949
54.2784
-1.44738
54.0759
-1.48394
53.8596
-1.5191
53.6268
-1.5528
53.3814
-1.58486
53.1114
-1.61557
52.8506
-1.64385
52.4598
-1.67248
52.1117
-1.69321
51.8324
-1.7193
-1.73735
51.6886
58.0349
2.12003
-58.0887
57.9805
2.0786
57.9253
2.03616
57.8694
1.99274
57.813
1.94836
57.756
1.90305
57.6985
1.85682
57.6406
1.8097
57.5823
1.76172
57.5236
1.7129
57.4647
1.66326
57.4055
1.61283
57.3461
1.56165
57.2865
1.50972
57.2267
1.45709
57.1668
1.40378
57.1069
1.34982
57.0468
1.29523
56.9867
1.24005
56.9265
1.18431
56.8663
1.12803
56.8061
1.07125
56.7459
1.014
56.6856
0.956306
56.6253
0.898204
56.565
0.839724
56.5047
0.780899
56.4443
0.721762
56.3838
0.662345
56.3233
0.602682
56.2626
0.542806
56.2017
0.482751
56.1407
0.422551
56.0794
0.36224
56.0179
0.301852
55.956
0.241424
55.8937
0.18099
55.831
0.120583
55.7678
0.0602419
55.7039
0
55.6394
-0.0601062
55.5741
-0.120041
55.5079
-0.179767
55.4407
-0.23925
55.3725
-0.298452
55.303
-0.357336
55.2322
-0.415866
55.1599
-0.474004
55.086
-0.531714
55.0104
-0.588958
54.9327
-0.645697
54.8529
-0.701895
54.7708
-0.757513
54.6861
-0.812512
54.5986
-0.866854
54.5081
-0.920499
54.4143
-0.973408
54.3169
-1.02554
54.2156
-1.07686
54.1101
-1.12732
54
-1.17688
53.8849
-1.2255
53.7644
-1.27313
53.6379
-1.31973
53.5051
-1.36526
53.3652
-1.40966
53.2177
-1.45289
53.0618
-1.4949
52.8968
-1.53562
52.7217
-1.57502
52.5359
-1.61301
52.3367
-1.64956
52.1261
-1.68451
51.8934
-1.71804
51.6607
-1.74935
51.3981
-1.78001
51.0925
-1.8073
50.7245
-1.83387
-1.85285
50.5437
56.3561
2.2323
-56.4133
56.2984
2.18848
56.2402
2.14363
56.1815
2.09776
56.1225
2.05089
56.0631
2.00305
56.0034
1.95426
55.9435
1.90454
55.8834
1.85393
55.8231
1.80244
55.7627
1.75011
55.7022
1.69696
55.6417
1.64302
55.5812
1.58832
55.5207
1.53288
55.4603
1.47673
55.3999
1.41991
55.3396
1.36244
55.2795
1.30435
55.2194
1.24568
55.1595
1.18645
55.0997
1.1267
55.0401
1.06646
54.9806
1.00577
54.9213
0.944644
54.8621
0.883128
54.8031
0.821255
54.7441
0.759055
54.6853
0.696565
54.6265
0.633819
54.5679
0.57085
54.5092
0.507695
54.4505
0.444388
54.3918
0.380964
54.3331
0.317461
54.2742
0.253913
54.2151
0.190356
54.1558
0.126827
54.0961
0.0633629
54.0361
0
53.9757
-0.0632247
53.9148
-0.126274
53.8532
-0.189111
53.791
-0.251698
53.7279
-0.313997
53.664
-0.375971
53.599
-0.437582
53.5329
-0.498791
53.4655
-0.559561
53.3967
-0.619854
53.3263
-0.679629
53.2542
-0.73885
53.1802
-0.797477
53.1042
-0.85547
53.0258
-0.912791
52.9449
-0.9694
52.8614
-1.02526
52.7748
-1.08032
52.685
-1.13455
52.5917
-1.18791
52.4945
-1.24035
52.3932
-1.29183
52.2873
-1.34231
52.1765
-1.39175
52.0604
-1.44009
51.9384
-1.4873
51.8101
-1.53332
51.6748
-1.57811
51.5319
-1.62161
51.3807
-1.66378
51.2206
-1.70455
51.0499
-1.74388
50.8695
-1.78164
50.6744
-1.81793
50.4668
-1.85234
50.2458
-1.88528
50.0224
-1.91594
49.7088
-1.94649
-1.96825
49.5415
54.7205
2.34128
-54.7806
54.6602
2.29515
54.5995
2.24794
54.5386
2.19968
54.4774
2.15038
54.4161
2.10008
54.3547
2.0488
54.2932
1.99656
54.2317
1.94339
54.1702
1.88931
54.1087
1.83436
54.0473
1.77857
53.9861
1.72195
53.9249
1.66454
53.864
1.60638
53.8033
1.54748
53.7427
1.48788
53.6824
1.42761
53.6224
1.3667
53.5627
1.30519
53.5032
1.2431
53.444
1.18047
53.3851
1.11734
53.3265
1.05372
53.2682
0.989673
53.2102
0.925214
53.1525
0.860384
53.0951
0.795216
53.0379
0.729747
52.9809
0.664011
52.9242
0.598045
52.8677
0.531884
52.8113
0.465564
52.7551
0.399123
52.699
0.332598
52.6429
0.266024
52.5869
0.19944
52.5307
0.132883
52.4745
0.0663905
52.4182
0
52.3616
-0.0662502
52.3047
-0.132322
52.2475
-0.198177
52.1898
-0.263777
52.1315
-0.329083
52.0727
-0.394057
52.0131
-0.458661
51.9526
-0.522853
51.8912
-0.586597
51.8287
-0.649853
51.765
-0.712581
51.6999
-0.774742
51.6333
-0.836297
51.5651
-0.897205
51.495
-0.957427
51.4229
-1.01692
51.3485
-1.07565
51.2718
-1.13357
51.1923
-1.19065
51.1099
-1.24683
51.0244
-1.30208
50.9354
-1.35636
50.8426
-1.40962
50.7458
-1.46183
50.6444
-1.51293
50.5382
-1.56288
50.4268
-1.61163
50.3095
-1.65915
50.1861
-1.70537
50.0557
-1.75025
49.9179
-1.79374
49.7717
-1.83578
49.6168
-1.87629
49.4518
-1.91527
49.2765
-1.95255
49.0833
-1.98829
48.8969
-2.02158
48.6442
-2.05514
-2.08054
48.5148
53.1277
2.44706
-53.1901
53.0652
2.39867
53.0026
2.34917
52.9398
2.29858
52.877
2.24692
52.8142
2.19423
52.7514
2.14052
52.6887
2.08582
52.6262
2.03017
52.5638
1.97358
52.5016
1.91609
52.4396
1.85772
52.3778
1.7985
52.3164
1.73847
52.2552
1.67766
52.1944
1.61609
52.1339
1.55379
52.0739
1.49081
52.0142
1.42716
51.9549
1.36289
51.896
1.29803
51.8375
1.23261
51.7795
1.16666
51.7218
1.10023
51.6647
1.03333
51.6079
0.966022
51.5515
0.898325
51.4956
0.830279
51.4401
0.761921
51.3849
0.693287
51.3301
0.624414
51.2757
0.55534
51.2216
0.4861
51.1677
0.416734
51.1141
0.347277
51.0608
0.277771
51.0076
0.208251
50.9545
0.138757
50.9015
0.0693271
50.8485
0
50.7956
-0.0691852
50.7425
-0.138189
50.6892
-0.206973
50.6358
-0.275498
50.582
-0.343724
50.5278
-0.41161
50.4731
-0.47912
50.4179
-0.546211
50.362
-0.612844
50.3053
-0.678981
50.2476
-0.744579
50.189
-0.8096
50.1292
-0.874002
50.068
-0.937747
50.0054
-1.00079
49.9412
-1.0631
49.8752
-1.12463
49.8073
-1.18533
49.7371
-1.24518
49.6646
-1.30412
49.5895
-1.36211
49.5115
-1.41912
49.4304
-1.4751
49.346
-1.53001
49.2578
-1.5838
49.1656
-1.63643
49.0691
-1.68786
48.9678
-1.73804
48.8613
-1.78692
48.7491
-1.83446
48.6308
-1.8806
48.5057
-1.92529
48.3734
-1.96848
48.2325
-2.01012
48.0847
-2.05009
47.9213
-2.08859
47.7619
-2.12467
47.5487
-2.16083
-2.18946
47.446
51.577
2.5497
-51.6412
51.5128
2.49912
51.4486
2.44739
51.3844
2.39453
51.3204
2.34058
51.2564
2.28556
51.1927
2.22949
51.1291
2.17241
51.0659
2.11434
51.0029
2.05531
50.9402
1.99534
50.8778
1.93448
50.8159
1.87274
50.7543
1.81016
50.6932
1.74678
50.6325
1.68262
50.5723
1.61771
50.5126
1.55209
50.4533
1.48579
50.3946
1.41885
50.3365
1.35129
50.2788
1.28316
50.2217
1.21449
50.1651
1.14531
50.1091
1.07567
50.0536
1.00559
49.9987
0.935113
49.9443
0.864277
49.8904
0.793119
49.837
0.721676
49.7841
0.649985
49.7317
0.578085
49.6797
0.506014
49.6282
0.433811
49.577
0.361514
49.5262
0.289163
49.4757
0.216797
49.4255
0.144455
49.3756
0.0721755
49.3258
0
49.2762
-0.0720324
49.2266
-0.143882
49.1771
-0.215508
49.1276
-0.286871
49.0779
-0.357931
49.0281
-0.428646
48.978
-0.498978
48.9275
-0.568884
48.8766
-0.638325
48.8252
-0.70726
48.7731
-0.775648
48.7203
-0.843449
48.6667
-0.910622
48.612
-0.977126
48.5562
-1.04292
48.4992
-1.10796
48.4408
-1.17222
48.3807
-1.23563
48.319
-1.29818
48.2553
-1.35981
48.1896
-1.42048
48.1215
-1.48015
48.0509
-1.53878
47.9774
-1.59633
47.901
-1.65275
47.8213
-1.708
47.7379
-1.76204
47.6507
-1.81482
47.5591
-1.8663
47.4629
-1.91642
47.3616
-1.96516
47.2548
-2.01244
47.1421
-2.05822
47.0222
-2.10248
46.8968
-2.14506
46.7591
-2.18619
46.6252
-2.225
46.4444
-2.26377
-2.29541
46.3617
50.0677
2.64929
-50.1333
50.0022
2.59657
49.9368
2.54267
49.8716
2.48762
49.8066
2.43143
49.7419
2.37415
49.6775
2.31579
49.6134
2.25639
49.5497
2.19597
49.4864
2.13457
49.4235
2.07221
49.361
2.00892
49.2991
1.94473
49.2376
1.87968
49.1767
1.81381
49.1163
1.74713
49.0565
1.67968
48.9973
1.61151
48.9387
1.54263
48.8807
1.4731
48.8233
1.40293
48.7666
1.33218
48.7105
1.26086
48.655
1.18903
48.6002
1.11671
48.5461
1.04395
48.4925
0.970783
48.4397
0.897242
48.3874
0.823369
48.3358
0.749202
48.2847
0.67478
48.2343
0.600142
48.1844
0.525326
48.135
0.450373
48.0862
0.375322
48.0378
0.300212
47.9899
0.225085
47.9424
0.149981
47.8953
0.0749387
47.8486
0
47.8021
-0.0747947
47.7558
-0.149405
47.7098
-0.223789
47.6639
-0.297907
47.6181
-0.371717
47.5722
-0.445179
47.5263
-0.518251
47.4803
-0.590891
47.434
-0.66306
47.3874
-0.734714
47.3404
-0.805814
47.293
-0.876318
47.2449
-0.946185
47.1961
-1.01537
47.1465
-1.08384
47.096
-1.15155
47.0444
-1.21845
46.9916
-1.28451
46.9374
-1.34969
46.8817
-1.41393
46.8243
-1.47721
46.7651
-1.53948
46.7038
-1.6007
46.6403
-1.66082
46.5743
-1.71981
46.5056
-1.77762
46.434
-1.8342
46.3591
-1.88952
46.2807
-1.94353
46.1985
-1.99619
46.1122
-2.04745
46.0213
-2.09726
45.9256
-2.14558
45.8241
-2.19237
45.718
-2.23751
45.6017
-2.28118
45.4895
-2.32261
45.3368
-2.36392
-2.39845
45.2714
48.599
2.7459
-48.6657
48.5326
2.69111
48.4664
2.6351
48.4005
2.5779
48.335
2.51955
48.2697
2.46007
48.2049
2.39949
48.1406
2.33784
48.0766
2.27514
48.0132
2.21143
47.9503
2.14674
47.888
2.0811
47.8262
2.01454
47.765
1.94709
47.7045
1.8788
47.6446
1.80968
47.5853
1.73977
47.5267
1.66912
47.4689
1.59775
47.4117
1.5257
47.3552
1.453
47.2995
1.3797
47.2444
1.30582
47.1901
1.23142
47.1366
1.15651
47.0838
1.08115
47.0317
1.00537
46.9803
0.929206
46.9297
0.852701
46.8798
0.775894
46.8305
0.698824
46.782
0.62153
46.7341
0.544053
46.6868
0.466434
46.6402
0.388712
46.5942
0.310928
46.5487
0.233125
46.5038
0.155341
46.4594
0.077619
46.4155
0
46.3719
-0.0774745
46.3288
-0.154763
46.286
-0.231824
46.2434
-0.308615
46.2011
-0.385095
46.159
-0.461223
46.117
-0.536956
46.075
-0.612252
46.0329
-0.687069
45.9908
-0.761367
45.9485
-0.835102
45.9059
-0.908233
45.8629
-0.980719
45.8195
-1.05252
45.7755
-1.12359
45.7309
-1.19388
45.6855
-1.26337
45.6391
-1.332
45.5918
-1.39974
45.5433
-1.46654
45.4934
-1.53236
45.4421
-1.59716
45.3892
-1.66089
45.3345
-1.72353
45.2778
-1.78502
45.219
-1.84532
45.1577
-1.90439
45.0938
-1.96218
45.0271
-2.01867
44.9572
-2.07379
44.884
-2.12751
44.807
-2.17979
44.7262
-2.23057
44.6405
-2.27983
44.5512
-2.32745
44.4534
-2.3736
44.3597
-2.41756
44.2309
-2.46133
-2.49863
44.18
47.1704
2.83961
-47.2377
47.1033
2.78279
47.0366
2.72474
46.9703
2.66547
46.9044
2.60501
46.8389
2.5434
46.774
2.48066
46.7096
2.41682
46.6457
2.35191
46.5824
2.28596
46.5197
2.21901
46.4576
2.15109
46.3962
2.08223
46.3354
2.01245
46.2754
1.94181
46.2161
1.87032
46.1575
1.79803
46.0997
1.72497
46.0426
1.65118
45.9863
1.57669
45.9309
1.50154
45.8762
1.42577
45.8223
1.34942
45.7692
1.27251
45.7169
1.1951
45.6654
1.11722
45.6148
1.0389
45.565
0.960198
45.5159
0.881143
45.4677
0.801776
45.4202
0.722139
45.3735
0.642271
45.3275
0.562214
45.2823
0.482009
45.2378
0.401698
45.194
0.321321
45.1509
0.240922
45.1084
0.16054
45.0665
0.0802188
45.0252
0
44.9844
-0.0800741
44.9441
-0.159961
44.9043
-0.239619
44.8649
-0.319005
44.8259
-0.398077
44.7872
-0.476792
44.7487