/*--------------------------------*- C++ -*----------------------------------*\
| =========                 |                                                 |
| \\      /  F ield         | OpenFOAM: The Open Source CFD Toolbox           |
|  \\    /   O peration     | Version:  2312                                  |
|   \\  /    A nd           | Website:  www.openfoam.com                      |
|    \\/     M anipulation  |                                                 |
\*---------------------------------------------------------------------------*/
FoamFile
{
    version     2.0;
    format      ascii;
    arch        "LSB;label=32;scalar=64";
    class       volScalarField;
    location    "2.55";
    object      wave;
}
// * * * * * * * * * * * * * * * * * * * * * * * * * * * * * * * * * * * * * //

dimensions      [0 0 0 0 0 0 0];

internalField   nonuniform List<scalar> 
100
(
0.490148
0.346271
0.193695
0.0362527
-0.1221
-0.277386
-0.425703
-0.563325
-0.686795
-0.793012
-0.879306
-0.94351
-0.984011
-0.999792
-0.990456
-0.956237
-0.897995
-0.817194
-0.715863
-0.596548
-0.462246
-0.316332
-0.16247
-0.00452741
0.153529
0.307729
0.454198
0.589256
0.709511
0.811941
0.893974
0.953548
0.989167
0.999936
0.985584
0.946472
0.883583
0.798496
0.693349
0.570783
0.433878
0.286074
0.131082
-0.0272024
-0.184804
-0.337762
-0.482235
-0.614594
-0.731512
-0.830053
-0.907742
-0.962626
-0.993326
-0.999073
-0.97972
-0.935754
-0.86828
-0.778993
-0.670136
-0.544444
-0.405074
-0.255528
-0.0995621
0.0589049
0.215892
0.367455
0.509788
0.639313
0.752777
0.84733
0.920596
0.970734
0.996486
0.997203
0.972869
0.924094
0.852104
0.758707
0.646249
0.517557
0.375862
0.224725
0.0679417
-0.090548
-0.246763
-0.396779
-0.536826
-0.663388
-0.773284
-0.863753
-0.932522
-0.977865
-0.998642
-0.99433
-0.965039
-0.911504
-0.835069
-0.737656
-0.621712
-0.490148
)
;

boundaryField
{
    movingWall
    {
        type            calculated;
        value           uniform 0;
    }
    fixedWalls
    {
        type            calculated;
        value           uniform 0;
    }
    frontAndBack
    {
        type            empty;
    }
}


// ************************************************************************* //
