/*--------------------------------*- C++ -*----------------------------------*\
| =========                 |                                                 |
| \\      /  F ield         | OpenFOAM: The Open Source CFD Toolbox           |
|  \\    /   O peration     | Version:  2312                                  |
|   \\  /    A nd           | Website:  www.openfoam.com                      |
|    \\/     M anipulation  |                                                 |
\*---------------------------------------------------------------------------*/
FoamFile
{
    version     2.0;
    format      ascii;
    arch        "LSB;label=32;scalar=64";
    class       volVectorField;
    location    "0.773";
    object      U;
}
// * * * * * * * * * * * * * * * * * * * * * * * * * * * * * * * * * * * * * //

dimensions      [0 1 -1 0 0 0 0];

internalField   nonuniform List<vector> 
31205
(
(104.115 0 0)
(105.803 0 0)
(107.669 0 0)
(109.676 0 0)
(111.794 0 0)
(113.998 0 0)
(116.266 0 0)
(118.579 0 0)
(120.924 0 0)
(123.288 0 0)
(125.663 0 0)
(128.042 0 0)
(130.417 0 0)
(132.785 0 0)
(135.142 0 0)
(137.485 0 0)
(139.812 0 0)
(142.12 0 0)
(144.41 0 0)
(146.679 0 0)
(148.927 0 0)
(151.153 0 0)
(153.357 0 0)
(155.539 0 0)
(157.699 0 0)
(159.837 0 0)
(161.952 0 0)
(164.045 0 0)
(166.116 0 0)
(168.165 0 0)
(170.193 0 0)
(172.199 0 0)
(174.184 0 0)
(176.148 0 0)
(178.092 0 0)
(180.015 0 0)
(181.918 0 0)
(183.802 0 0)
(185.666 0 0)
(187.511 0 0)
(189.336 0 0)
(191.143 0 0)
(192.932 0 0)
(194.702 0 0)
(196.454 0 0)
(198.189 0 0)
(199.906 0 0)
(201.605 0 0)
(203.288 0 0)
(204.954 0 0)
(206.603 0 0)
(208.236 0 0)
(209.852 0 0)
(211.452 0 0)
(213.037 0 0)
(214.605 0 0)
(216.159 0 0)
(217.696 0 0)
(219.219 0 0)
(220.726 0 0)
(222.219 0 0)
(223.696 0 0)
(225.159 0 0)
(226.608 0 0)
(228.042 0 0)
(229.462 0 0)
(230.867 0 0)
(232.259 0 0)
(233.636 0 0)
(235 0 0)
(236.35 0 0)
(237.686 0 0)
(239.009 0 0)
(240.316 0 0)
(241.617 0 0)
(242.885 0 0)
(244.198 0 0)
(245.317 0 0)
(246.978 0 0)
(105.923 0 0)
(107.737 0 0)
(109.685 0 0)
(111.737 0 0)
(113.871 0 0)
(116.066 0 0)
(118.306 0 0)
(120.577 0 0)
(122.868 0 0)
(125.171 0 0)
(127.478 0 0)
(129.784 0 0)
(132.084 0 0)
(134.374 0 0)
(136.653 0 0)
(138.916 0 0)
(141.164 0 0)
(143.393 0 0)
(145.604 0 0)
(147.796 0 0)
(149.967 0 0)
(152.118 0 0)
(154.248 0 0)
(156.357 0 0)
(158.446 0 0)
(160.513 0 0)
(162.559 0 0)
(164.585 0 0)
(166.589 0 0)
(168.574 0 0)
(170.538 0 0)
(172.481 0 0)
(174.406 0 0)
(176.31 0 0)
(178.195 0 0)
(180.061 0 0)
(181.908 0 0)
(183.736 0 0)
(185.546 0 0)
(187.338 0 0)
(189.112 0 0)
(190.868 0 0)
(192.607 0 0)
(194.328 0 0)
(196.033 0 0)
(197.72 0 0)
(199.391 0 0)
(201.046 0 0)
(202.685 0 0)
(204.307 0 0)
(205.914 0 0)
(207.505 0 0)
(209.081 0 0)
(210.642 0 0)
(212.187 0 0)
(213.718 0 0)
(215.233 0 0)
(216.734 0 0)
(218.221 0 0)
(219.693 0 0)
(221.152 0 0)
(222.596 0 0)
(224.026 0 0)
(225.442 0 0)
(226.845 0 0)
(228.233 0 0)
(229.609 0 0)
(230.971 0 0)
(232.32 0 0)
(233.656 0 0)
(234.978 0 0)
(236.287 0 0)
(237.585 0 0)
(238.867 0 0)
(240.142 0 0)
(241.387 0 0)
(242.675 0 0)
(243.777 0 0)
(245.4 0 0)
(107.967 0 0)
(109.863 0 0)
(111.856 0 0)
(113.925 0 0)
(116.051 0 0)
(118.22 0 0)
(120.419 0 0)
(122.639 0 0)
(124.87 0 0)
(127.106 0 0)
(129.342 0 0)
(131.574 0 0)
(133.798 0 0)
(136.01 0 0)
(138.21 0 0)
(140.395 0 0)
(142.564 0 0)
(144.716 0 0)
(146.849 0 0)
(148.964 0 0)
(151.06 0 0)
(153.137 0 0)
(155.194 0 0)
(157.232 0 0)
(159.249 0 0)
(161.247 0 0)
(163.226 0 0)
(165.185 0 0)
(167.124 0 0)
(169.045 0 0)
(170.946 0 0)
(172.828 0 0)
(174.692 0 0)
(176.538 0 0)
(178.365 0 0)
(180.174 0 0)
(181.965 0 0)
(183.739 0 0)
(185.496 0 0)
(187.235 0 0)
(188.958 0 0)
(190.664 0 0)
(192.353 0 0)
(194.026 0 0)
(195.684 0 0)
(197.325 0 0)
(198.951 0 0)
(200.561 0 0)
(202.155 0 0)
(203.735 0 0)
(205.3 0 0)
(206.85 0 0)
(208.385 0 0)
(209.906 0 0)
(211.413 0 0)
(212.905 0 0)
(214.384 0 0)
(215.848 0 0)
(217.299 0 0)
(218.736 0 0)
(220.16 0 0)
(221.57 0 0)
(222.967 0 0)
(224.351 0 0)
(225.722 0 0)
(227.08 0 0)
(228.425 0 0)
(229.758 0 0)
(231.078 0 0)
(232.385 0 0)
(233.68 0 0)
(234.962 0 0)
(236.233 0 0)
(237.489 0 0)
(238.739 0 0)
(239.96 0 0)
(241.223 0 0)
(242.306 0 0)
(243.892 0 0)
(110.139 0 0)
(112.078 0 0)
(114.087 0 0)
(116.149 0 0)
(118.252 0 0)
(120.382 0 0)
(122.533 0 0)
(124.695 0 0)
(126.862 0 0)
(129.03 0 0)
(131.194 0 0)
(133.352 0 0)
(135.5 0 0)
(137.636 0 0)
(139.759 0 0)
(141.868 0 0)
(143.96 0 0)
(146.036 0 0)
(148.095 0 0)
(150.136 0 0)
(152.159 0 0)
(154.164 0 0)
(156.151 0 0)
(158.118 0 0)
(160.068 0 0)
(161.999 0 0)
(163.912 0 0)
(165.806 0 0)
(167.682 0 0)
(169.54 0 0)
(171.381 0 0)
(173.203 0 0)
(175.009 0 0)
(176.797 0 0)
(178.567 0 0)
(180.321 0 0)
(182.059 0 0)
(183.779 0 0)
(185.484 0 0)
(187.172 0 0)
(188.844 0 0)
(190.501 0 0)
(192.142 0 0)
(193.768 0 0)
(195.379 0 0)
(196.975 0 0)
(198.556 0 0)
(200.122 0 0)
(201.674 0 0)
(203.211 0 0)
(204.735 0 0)
(206.244 0 0)
(207.739 0 0)
(209.221 0 0)
(210.689 0 0)
(212.144 0 0)
(213.586 0 0)
(215.014 0 0)
(216.429 0 0)
(217.832 0 0)
(219.221 0 0)
(220.598 0 0)
(221.962 0 0)
(223.314 0 0)
(224.654 0 0)
(225.981 0 0)
(227.296 0 0)
(228.598 0 0)
(229.889 0 0)
(231.168 0 0)
(232.435 0 0)
(233.69 0 0)
(234.934 0 0)
(236.165 0 0)
(237.39 0 0)
(238.586 0 0)
(239.823 0 0)
(240.887 0 0)
(242.439 0 0)
(112.37 0 0)
(114.323 0 0)
(116.325 0 0)
(118.364 0 0)
(120.429 0 0)
(122.513 0 0)
(124.608 0 0)
(126.709 0 0)
(128.81 0 0)
(130.909 0 0)
(133.002 0 0)
(135.087 0 0)
(137.161 0 0)
(139.223 0 0)
(141.271 0 0)
(143.306 0 0)
(145.324 0 0)
(147.327 0 0)
(149.314 0 0)
(151.284 0 0)
(153.236 0 0)
(155.172 0 0)
(157.09 0 0)
(158.991 0 0)
(160.875 0 0)
(162.741 0 0)
(164.59 0 0)
(166.422 0 0)
(168.237 0 0)
(170.035 0 0)
(171.817 0 0)
(173.582 0 0)
(175.33 0 0)
(177.062 0 0)
(178.778 0 0)
(180.479 0 0)
(182.163 0 0)
(183.832 0 0)
(185.486 0 0)
(187.125 0 0)
(188.748 0 0)
(190.357 0 0)
(191.951 0 0)
(193.531 0 0)
(195.097 0 0)
(196.648 0 0)
(198.185 0 0)
(199.708 0 0)
(201.218 0 0)
(202.714 0 0)
(204.197 0 0)
(205.667 0 0)
(207.123 0 0)
(208.567 0 0)
(209.997 0 0)
(211.415 0 0)
(212.82 0 0)
(214.213 0 0)
(215.593 0 0)
(216.961 0 0)
(218.317 0 0)
(219.661 0 0)
(220.993 0 0)
(222.313 0 0)
(223.621 0 0)
(224.917 0 0)
(226.202 0 0)
(227.476 0 0)
(228.738 0 0)
(229.988 0 0)
(231.228 0 0)
(232.456 0 0)
(233.673 0 0)
(234.878 0 0)
(236.077 0 0)
(237.249 0 0)
(238.461 0 0)
(239.503 0 0)
(241.023 0 0)
(114.619 0 0)
(116.563 0 0)
(118.541 0 0)
(120.544 0 0)
(122.563 0 0)
(124.594 0 0)
(126.63 0 0)
(128.667 0 0)
(130.702 0 0)
(132.732 0 0)
(134.754 0 0)
(136.767 0 0)
(138.769 0 0)
(140.759 0 0)
(142.735 0 0)
(144.698 0 0)
(146.645 0 0)
(148.578 0 0)
(150.495 0 0)
(152.396 0 0)
(154.281 0 0)
(156.15 0 0)
(158.003 0 0)
(159.839 0 0)
(161.66 0 0)
(163.464 0 0)
(165.251 0 0)
(167.023 0 0)
(168.779 0 0)
(170.519 0 0)
(172.244 0 0)
(173.953 0 0)
(175.646 0 0)
(177.325 0 0)
(178.988 0 0)
(180.636 0 0)
(182.27 0 0)
(183.889 0 0)
(185.493 0 0)
(187.084 0 0)
(188.66 0 0)
(190.222 0 0)
(191.771 0 0)
(193.305 0 0)
(194.827 0 0)
(196.334 0 0)
(197.829 0 0)
(199.311 0 0)
(200.779 0 0)
(202.235 0 0)
(203.678 0 0)
(205.109 0 0)
(206.527 0 0)
(207.933 0 0)
(209.327 0 0)
(210.708 0 0)
(212.078 0 0)
(213.435 0 0)
(214.781 0 0)
(216.116 0 0)
(217.438 0 0)
(218.75 0 0)
(220.049 0 0)
(221.338 0 0)
(222.615 0 0)
(223.882 0 0)
(225.137 0 0)
(226.381 0 0)
(227.615 0 0)
(228.837 0 0)
(230.049 0 0)
(231.25 0 0)
(232.442 0 0)
(233.62 0 0)
(234.794 0 0)
(235.941 0 0)
(237.128 0 0)
(238.15 0 0)
(239.638 0 0)
(116.857 0 0)
(118.777 0 0)
(120.718 0 0)
(122.676 0 0)
(124.644 0 0)
(126.617 0 0)
(128.592 0 0)
(130.564 0 0)
(132.532 0 0)
(134.494 0 0)
(136.447 0 0)
(138.39 0 0)
(140.322 0 0)
(142.242 0 0)
(144.149 0 0)
(146.042 0 0)
(147.921 0 0)
(149.786 0 0)
(151.636 0 0)
(153.471 0 0)
(155.291 0 0)
(157.096 0 0)
(158.885 0 0)
(160.66 0 0)
(162.419 0 0)
(164.163 0 0)
(165.892 0 0)
(167.606 0 0)
(169.305 0 0)
(170.989 0 0)
(172.658 0 0)
(174.313 0 0)
(175.954 0 0)
(177.58 0 0)
(179.192 0 0)
(180.79 0 0)
(182.374 0 0)
(183.944 0 0)
(185.501 0 0)
(187.045 0 0)
(188.575 0 0)
(190.092 0 0)
(191.596 0 0)
(193.087 0 0)
(194.565 0 0)
(196.031 0 0)
(197.484 0 0)
(198.925 0 0)
(200.354 0 0)
(201.77 0 0)
(203.174 0 0)
(204.567 0 0)
(205.948 0 0)
(207.317 0 0)
(208.674 0 0)
(210.02 0 0)
(211.355 0 0)
(212.678 0 0)
(213.991 0 0)
(215.292 0 0)
(216.582 0 0)
(217.861 0 0)
(219.13 0 0)
(220.387 0 0)
(221.634 0 0)
(222.871 0 0)
(224.097 0 0)
(225.312 0 0)
(226.518 0 0)
(227.712 0 0)
(228.897 0 0)
(230.072 0 0)
(231.237 0 0)
(232.39 0 0)
(233.538 0 0)
(234.661 0 0)
(235.823 0 0)
(236.823 0 0)
(238.28 0 0)
(119.066 0 0)
(120.95 0 0)
(122.847 0 0)
(124.754 0 0)
(126.666 0 0)
(128.58 0 0)
(130.492 0 0)
(132.4 0 0)
(134.302 0 0)
(136.196 0 0)
(138.082 0 0)
(139.957 0 0)
(141.821 0 0)
(143.673 0 0)
(145.512 0 0)
(147.339 0 0)
(149.152 0 0)
(150.952 0 0)
(152.737 0 0)
(154.509 0 0)
(156.266 0 0)
(158.009 0 0)
(159.738 0 0)
(161.453 0 0)
(163.153 0 0)
(164.839 0 0)
(166.511 0 0)
(168.169 0 0)
(169.813 0 0)
(171.443 0 0)
(173.06 0 0)
(174.662 0 0)
(176.251 0 0)
(177.827 0 0)
(179.39 0 0)
(180.939 0 0)
(182.475 0 0)
(183.999 0 0)
(185.509 0 0)
(187.007 0 0)
(188.493 0 0)
(189.966 0 0)
(191.426 0 0)
(192.875 0 0)
(194.311 0 0)
(195.736 0 0)
(197.149 0 0)
(198.55 0 0)
(199.939 0 0)
(201.318 0 0)
(202.684 0 0)
(204.04 0 0)
(205.384 0 0)
(206.717 0 0)
(208.039 0 0)
(209.35 0 0)
(210.651 0 0)
(211.94 0 0)
(213.22 0 0)
(214.488 0 0)
(215.746 0 0)
(216.994 0 0)
(218.232 0 0)
(219.459 0 0)
(220.676 0 0)
(221.883 0 0)
(223.08 0 0)
(224.268 0 0)
(225.445 0 0)
(226.613 0 0)
(227.77 0 0)
(228.918 0 0)
(230.057 0 0)
(231.185 0 0)
(232.309 0 0)
(233.407 0 0)
(234.544 0 0)
(235.524 0 0)
(236.948 0 0)
(121.234 0 0)
(123.073 0 0)
(124.922 0 0)
(126.774 0 0)
(128.628 0 0)
(130.481 0 0)
(132.33 0 0)
(134.174 0 0)
(136.011 0 0)
(137.84 0 0)
(139.659 0 0)
(141.468 0 0)
(143.267 0 0)
(145.053 0 0)
(146.828 0 0)
(148.59 0 0)
(150.34 0 0)
(152.077 0 0)
(153.8 0 0)
(155.511 0 0)
(157.208 0 0)
(158.891 0 0)
(160.562 0 0)
(162.219 0 0)
(163.862 0 0)
(165.493 0 0)
(167.11 0 0)
(168.714 0 0)
(170.305 0 0)
(171.883 0 0)
(173.448 0 0)
(175 0 0)
(176.54 0 0)
(178.067 0 0)
(179.581 0 0)
(181.083 0 0)
(182.573 0 0)
(184.051 0 0)
(185.517 0 0)
(186.971 0 0)
(188.413 0 0)
(189.843 0 0)
(191.262 0 0)
(192.669 0 0)
(194.065 0 0)
(195.449 0 0)
(196.823 0 0)
(198.185 0 0)
(199.537 0 0)
(200.877 0 0)
(202.207 0 0)
(203.526 0 0)
(204.835 0 0)
(206.133 0 0)
(207.42 0 0)
(208.697 0 0)
(209.964 0 0)
(211.221 0 0)
(212.468 0 0)
(213.705 0 0)
(214.932 0 0)
(216.148 0 0)
(217.356 0 0)
(218.553 0 0)
(219.741 0 0)
(220.919 0 0)
(222.088 0 0)
(223.247 0 0)
(224.397 0 0)
(225.537 0 0)
(226.669 0 0)
(227.791 0 0)
(228.904 0 0)
(230.006 0 0)
(231.105 0 0)
(232.179 0 0)
(233.291 0 0)
(234.25 0 0)
(235.644 0 0)
(123.352 0 0)
(125.143 0 0)
(126.938 0 0)
(128.734 0 0)
(130.529 0 0)
(132.321 0 0)
(134.108 0 0)
(135.889 0 0)
(137.662 0 0)
(139.427 0 0)
(141.182 0 0)
(142.927 0 0)
(144.662 0 0)
(146.385 0 0)
(148.098 0 0)
(149.798 0 0)
(151.486 0 0)
(153.163 0 0)
(154.826 0 0)
(156.478 0 0)
(158.117 0 0)
(159.744 0 0)
(161.358 0 0)
(162.959 0 0)
(164.548 0 0)
(166.125 0 0)
(167.689 0 0)
(169.241 0 0)
(170.781 0 0)
(172.309 0 0)
(173.824 0 0)
(175.328 0 0)
(176.819 0 0)
(178.299 0 0)
(179.767 0 0)
(181.223 0 0)
(182.668 0 0)
(184.102 0 0)
(185.524 0 0)
(186.935 0 0)
(188.335 0 0)
(189.724 0 0)
(191.102 0 0)
(192.469 0 0)
(193.825 0 0)
(195.171 0 0)
(196.506 0 0)
(197.831 0 0)
(199.145 0 0)
(200.449 0 0)
(201.743 0 0)
(203.027 0 0)
(204.3 0 0)
(205.564 0 0)
(206.818 0 0)
(208.062 0 0)
(209.296 0 0)
(210.52 0 0)
(211.735 0 0)
(212.941 0 0)
(214.137 0 0)
(215.324 0 0)
(216.501 0 0)
(217.669 0 0)
(218.828 0 0)
(219.978 0 0)
(221.118 0 0)
(222.25 0 0)
(223.373 0 0)
(224.487 0 0)
(225.592 0 0)
(226.688 0 0)
(227.775 0 0)
(228.853 0 0)
(229.927 0 0)
(230.977 0 0)
(232.065 0 0)
(233.003 0 0)
(234.365 0 0)
(125.414 0 0)
(127.153 0 0)
(128.893 0 0)
(130.632 0 0)
(132.368 0 0)
(134.1 0 0)
(135.825 0 0)
(137.544 0 0)
(139.255 0 0)
(140.958 0 0)
(142.651 0 0)
(144.335 0 0)
(146.008 0 0)
(147.671 0 0)
(149.323 0 0)
(150.963 0 0)
(152.593 0 0)
(154.211 0 0)
(155.817 0 0)
(157.412 0 0)
(158.995 0 0)
(160.567 0 0)
(162.127 0 0)
(163.675 0 0)
(165.211 0 0)
(166.736 0 0)
(168.25 0 0)
(169.751 0 0)
(171.242 0 0)
(172.721 0 0)
(174.188 0 0)
(175.645 0 0)
(177.09 0 0)
(178.524 0 0)
(179.947 0 0)
(181.359 0 0)
(182.761 0 0)
(184.151 0 0)
(185.531 0 0)
(186.901 0 0)
(188.26 0 0)
(189.608 0 0)
(190.947 0 0)
(192.275 0 0)
(193.593 0 0)
(194.9 0 0)
(196.198 0 0)
(197.486 0 0)
(198.764 0 0)
(200.033 0 0)
(201.291 0 0)
(202.541 0 0)
(203.78 0 0)
(205.01 0 0)
(206.231 0 0)
(207.442 0 0)
(208.645 0 0)
(209.838 0 0)
(211.021 0 0)
(212.196 0 0)
(213.362 0 0)
(214.519 0 0)
(215.667 0 0)
(216.806 0 0)
(217.937 0 0)
(219.059 0 0)
(220.172 0 0)
(221.276 0 0)
(222.372 0 0)
(223.46 0 0)
(224.539 0 0)
(225.61 0 0)
(226.672 0 0)
(227.725 0 0)
(228.775 0 0)
(229.801 0 0)
(230.864 0 0)
(231.783 0 0)
(233.113 0 0)
(127.418 0 0)
(129.104 0 0)
(130.788 0 0)
(132.469 0 0)
(134.146 0 0)
(135.818 0 0)
(137.484 0 0)
(139.143 0 0)
(140.793 0 0)
(142.436 0 0)
(144.069 0 0)
(145.693 0 0)
(147.307 0 0)
(148.911 0 0)
(150.505 0 0)
(152.088 0 0)
(153.661 0 0)
(155.223 0 0)
(156.774 0 0)
(158.315 0 0)
(159.844 0 0)
(161.363 0 0)
(162.87 0 0)
(164.367 0 0)
(165.853 0 0)
(167.328 0 0)
(168.792 0 0)
(170.245 0 0)
(171.688 0 0)
(173.12 0 0)
(174.541 0 0)
(175.952 0 0)
(177.352 0 0)
(178.742 0 0)
(180.122 0 0)
(181.491 0 0)
(182.85 0 0)
(184.199 0 0)
(185.538 0 0)
(186.868 0 0)
(188.187 0 0)
(189.496 0 0)
(190.796 0 0)
(192.086 0 0)
(193.367 0 0)
(194.638 0 0)
(195.899 0 0)
(197.151 0 0)
(198.394 0 0)
(199.628 0 0)
(200.852 0 0)
(202.068 0 0)
(203.274 0 0)
(204.471 0 0)
(205.66 0 0)
(206.84 0 0)
(208.01 0 0)
(209.172 0 0)
(210.326 0 0)
(211.471 0 0)
(212.607 0 0)
(213.735 0 0)
(214.854 0 0)
(215.965 0 0)
(217.068 0 0)
(218.162 0 0)
(219.248 0 0)
(220.326 0 0)
(221.395 0 0)
(222.457 0 0)
(223.511 0 0)
(224.556 0 0)
(225.594 0 0)
(226.622 0 0)
(227.648 0 0)
(228.651 0 0)
(229.69 0 0)
(230.588 0 0)
(231.888 0 0)
(129.362 0 0)
(130.992 0 0)
(132.62 0 0)
(134.245 0 0)
(135.864 0 0)
(137.478 0 0)
(139.085 0 0)
(140.685 0 0)
(142.278 0 0)
(143.862 0 0)
(145.437 0 0)
(147.003 0 0)
(148.561 0 0)
(150.108 0 0)
(151.646 0 0)
(153.174 0 0)
(154.693 0 0)
(156.201 0 0)
(157.699 0 0)
(159.187 0 0)
(160.664 0 0)
(162.132 0 0)
(163.589 0 0)
(165.036 0 0)
(166.473 0 0)
(167.9 0 0)
(169.316 0 0)
(170.723 0 0)
(172.119 0 0)
(173.506 0 0)
(174.883 0 0)
(176.249 0 0)
(177.606 0 0)
(178.953 0 0)
(180.291 0 0)
(181.619 0 0)
(182.937 0 0)
(184.246 0 0)
(185.545 0 0)
(186.835 0 0)
(188.116 0 0)
(189.388 0 0)
(190.65 0 0)
(191.903 0 0)
(193.147 0 0)
(194.382 0 0)
(195.609 0 0)
(196.826 0 0)
(198.034 0 0)
(199.234 0 0)
(200.425 0 0)
(201.608 0 0)
(202.782 0 0)
(203.947 0 0)
(205.104 0 0)
(206.253 0 0)
(207.393 0 0)
(208.525 0 0)
(209.648 0 0)
(210.764 0 0)
(211.871 0 0)
(212.97 0 0)
(214.061 0 0)
(215.144 0 0)
(216.22 0 0)
(217.287 0 0)
(218.346 0 0)
(219.398 0 0)
(220.442 0 0)
(221.478 0 0)
(222.506 0 0)
(223.527 0 0)
(224.54 0 0)
(225.545 0 0)
(226.546 0 0)
(227.526 0 0)
(228.541 0 0)
(229.419 0 0)
(230.689 0 0)
(131.244 0 0)
(132.82 0 0)
(134.392 0 0)
(135.961 0 0)
(137.524 0 0)
(139.081 0 0)
(140.631 0 0)
(142.174 0 0)
(143.71 0 0)
(145.238 0 0)
(146.757 0 0)
(148.268 0 0)
(149.77 0 0)
(151.264 0 0)
(152.748 0 0)
(154.223 0 0)
(155.688 0 0)
(157.145 0 0)
(158.592 0 0)
(160.029 0 0)
(161.457 0 0)
(162.875 0 0)
(164.284 0 0)
(165.683 0 0)
(167.073 0 0)
(168.453 0 0)
(169.824 0 0)
(171.185 0 0)
(172.537 0 0)
(173.88 0 0)
(175.214 0 0)
(176.538 0 0)
(177.853 0 0)
(179.158 0 0)
(180.455 0 0)
(181.743 0 0)
(183.022 0 0)
(184.291 0 0)
(185.552 0 0)
(186.804 0 0)
(188.048 0 0)
(189.282 0 0)
(190.508 0 0)
(191.725 0 0)
(192.934 0 0)
(194.134 0 0)
(195.326 0 0)
(196.51 0 0)
(197.685 0 0)
(198.852 0 0)
(200.01 0 0)
(201.161 0 0)
(202.303 0 0)
(203.437 0 0)
(204.563 0 0)
(205.681 0 0)
(206.791 0 0)
(207.894 0 0)
(208.988 0 0)
(210.075 0 0)
(211.154 0 0)
(212.225 0 0)
(213.288 0 0)
(214.344 0 0)
(215.393 0 0)
(216.433 0 0)
(217.467 0 0)
(218.492 0 0)
(219.511 0 0)
(220.522 0 0)
(221.525 0 0)
(222.521 0 0)
(223.511 0 0)
(224.491 0 0)
(225.469 0 0)
(226.427 0 0)
(227.418 0 0)
(228.276 0 0)
(229.515 0 0)
(133.064 0 0)
(134.586 0 0)
(136.104 0 0)
(137.618 0 0)
(139.126 0 0)
(140.627 0 0)
(142.123 0 0)
(143.611 0 0)
(145.092 0 0)
(146.565 0 0)
(148.031 0 0)
(149.489 0 0)
(150.938 0 0)
(152.379 0 0)
(153.811 0 0)
(155.235 0 0)
(156.65 0 0)
(158.057 0 0)
(159.454 0 0)
(160.843 0 0)
(162.223 0 0)
(163.594 0 0)
(164.956 0 0)
(166.309 0 0)
(167.653 0 0)
(168.989 0 0)
(170.315 0 0)
(171.633 0 0)
(172.942 0 0)
(174.243 0 0)
(175.534 0 0)
(176.817 0 0)
(178.091 0 0)
(179.357 0 0)
(180.614 0 0)
(181.863 0 0)
(183.104 0 0)
(184.335 0 0)
(185.559 0 0)
(186.774 0 0)
(187.981 0 0)
(189.18 0 0)
(190.37 0 0)
(191.553 0 0)
(192.727 0 0)
(193.894 0 0)
(195.052 0 0)
(196.202 0 0)
(197.345 0 0)
(198.48 0 0)
(199.607 0 0)
(200.726 0 0)
(201.837 0 0)
(202.941 0 0)
(204.037 0 0)
(205.125 0 0)
(206.206 0 0)
(207.28 0 0)
(208.345 0 0)
(209.404 0 0)
(210.455 0 0)
(211.499 0 0)
(212.535 0 0)
(213.564 0 0)
(214.586 0 0)
(215.601 0 0)
(216.608 0 0)
(217.609 0 0)
(218.602 0 0)
(219.588 0 0)
(220.567 0 0)
(221.539 0 0)
(222.505 0 0)
(223.462 0 0)
(224.417 0 0)
(225.352 0 0)
(226.319 0 0)
(227.158 0 0)
(228.367 0 0)
(134.824 0 0)
(136.293 0 0)
(137.758 0 0)
(139.218 0 0)
(140.672 0 0)
(142.12 0 0)
(143.562 0 0)
(144.997 0 0)
(146.426 0 0)
(147.847 0 0)
(149.26 0 0)
(150.667 0 0)
(152.065 0 0)
(153.456 0 0)
(154.838 0 0)
(156.213 0 0)
(157.579 0 0)
(158.937 0 0)
(160.288 0 0)
(161.629 0 0)
(162.963 0 0)
(164.288 0 0)
(165.605 0 0)
(166.914 0 0)
(168.215 0 0)
(169.507 0 0)
(170.791 0 0)
(172.067 0 0)
(173.334 0 0)
(174.593 0 0)
(175.845 0 0)
(177.088 0 0)
(178.323 0 0)
(179.55 0 0)
(180.769 0 0)
(181.98 0 0)
(183.183 0 0)
(184.378 0 0)
(185.566 0 0)
(186.745 0 0)
(187.917 0 0)
(189.081 0 0)
(190.237 0 0)
(191.386 0 0)
(192.527 0 0)
(193.66 0 0)
(194.786 0 0)
(195.904 0 0)
(197.015 0 0)
(198.118 0 0)
(199.214 0 0)
(200.303 0 0)
(201.384 0 0)
(202.458 0 0)
(203.525 0 0)
(204.584 0 0)
(205.636 0 0)
(206.681 0 0)
(207.719 0 0)
(208.75 0 0)
(209.774 0 0)
(210.791 0 0)
(211.801 0 0)
(212.804 0 0)
(213.8 0 0)
(214.789 0 0)
(215.771 0 0)
(216.747 0 0)
(217.715 0 0)
(218.677 0 0)
(219.632 0 0)
(220.581 0 0)
(221.523 0 0)
(222.457 0 0)
(223.389 0 0)
(224.301 0 0)
(225.246 0 0)
(226.065 0 0)
(227.245 0 0)
(136.524 0 0)
(137.941 0 0)
(139.354 0 0)
(140.762 0 0)
(142.164 0 0)
(143.56 0 0)
(144.951 0 0)
(146.335 0 0)
(147.712 0 0)
(149.083 0 0)
(150.447 0 0)
(151.803 0 0)
(153.153 0 0)
(154.495 0 0)
(155.83 0 0)
(157.157 0 0)
(158.476 0 0)
(159.788 0 0)
(161.093 0 0)
(162.39 0 0)
(163.679 0 0)
(164.96 0 0)
(166.234 0 0)
(167.499 0 0)
(168.758 0 0)
(170.008 0 0)
(171.251 0 0)
(172.486 0 0)
(173.714 0 0)
(174.933 0 0)
(176.146 0 0)
(177.35 0 0)
(178.547 0 0)
(179.737 0 0)
(180.919 0 0)
(182.093 0 0)
(183.26 0 0)
(184.42 0 0)
(185.572 0 0)
(186.717 0 0)
(187.854 0 0)
(188.985 0 0)
(190.108 0 0)
(191.223 0 0)
(192.332 0 0)
(193.433 0 0)
(194.527 0 0)
(195.614 0 0)
(196.694 0 0)
(197.767 0 0)
(198.833 0 0)
(199.891 0 0)
(200.943 0 0)
(201.988 0 0)
(203.026 0 0)
(204.057 0 0)
(205.082 0 0)
(206.099 0 0)
(207.11 0 0)
(208.114 0 0)
(209.111 0 0)
(210.102 0 0)
(211.086 0 0)
(212.063 0 0)
(213.033 0 0)
(213.997 0 0)
(214.955 0 0)
(215.906 0 0)
(216.85 0 0)
(217.788 0 0)
(218.72 0 0)
(219.645 0 0)
(220.564 0 0)
(221.476 0 0)
(222.385 0 0)
(223.275 0 0)
(224.197 0 0)
(224.997 0 0)
(226.148 0 0)
(138.165 0 0)
(139.532 0 0)
(140.894 0 0)
(142.252 0 0)
(143.604 0 0)
(144.95 0 0)
(146.291 0 0)
(147.626 0 0)
(148.954 0 0)
(150.276 0 0)
(151.592 0 0)
(152.901 0 0)
(154.203 0 0)
(155.498 0 0)
(156.787 0 0)
(158.069 0 0)
(159.343 0 0)
(160.611 0 0)
(161.871 0 0)
(163.124 0 0)
(164.37 0 0)
(165.609 0 0)
(166.841 0 0)
(168.066 0 0)
(169.283 0 0)
(170.493 0 0)
(171.696 0 0)
(172.892 0 0)
(174.081 0 0)
(175.263 0 0)
(176.437 0 0)
(177.605 0 0)
(178.765 0 0)
(179.918 0 0)
(181.064 0 0)
(182.203 0 0)
(183.335 0 0)
(184.46 0 0)
(185.579 0 0)
(186.69 0 0)
(187.794 0 0)
(188.891 0 0)
(189.982 0 0)
(191.066 0 0)
(192.142 0 0)
(193.213 0 0)
(194.276 0 0)
(195.332 0 0)
(196.382 0 0)
(197.425 0 0)
(198.462 0 0)
(199.492 0 0)
(200.515 0 0)
(201.531 0 0)
(202.542 0 0)
(203.545 0 0)
(204.542 0 0)
(205.533 0 0)
(206.517 0 0)
(207.494 0 0)
(208.465 0 0)
(209.43 0 0)
(210.389 0 0)
(211.341 0 0)
(212.286 0 0)
(213.226 0 0)
(214.159 0 0)
(215.086 0 0)
(216.007 0 0)
(216.921 0 0)
(217.83 0 0)
(218.732 0 0)
(219.628 0 0)
(220.517 0 0)
(221.404 0 0)
(222.273 0 0)
(223.172 0 0)
(223.954 0 0)
(225.075 0 0)
(139.75 0 0)
(141.068 0 0)
(142.381 0 0)
(143.689 0 0)
(144.993 0 0)
(146.291 0 0)
(147.584 0 0)
(148.871 0 0)
(150.152 0 0)
(151.428 0 0)
(152.697 0 0)
(153.96 0 0)
(155.217 0 0)
(156.468 0 0)
(157.712 0 0)
(158.949 0 0)
(160.18 0 0)
(161.405 0 0)
(162.623 0 0)
(163.834 0 0)
(165.039 0 0)
(166.237 0 0)
(167.429 0 0)
(168.614 0 0)
(169.792 0 0)
(170.963 0 0)
(172.128 0 0)
(173.286 0 0)
(174.437 0 0)
(175.582 0 0)
(176.72 0 0)
(177.851 0 0)
(178.976 0 0)
(180.094 0 0)
(181.205 0 0)
(182.31 0 0)
(183.408 0 0)
(184.5 0 0)
(185.585 0 0)
(186.663 0 0)
(187.735 0 0)
(188.801 0 0)
(189.86 0 0)
(190.913 0 0)
(191.959 0 0)
(192.999 0 0)
(194.032 0 0)
(195.059 0 0)
(196.079 0 0)
(197.094 0 0)
(198.101 0 0)
(199.103 0 0)
(200.098 0 0)
(201.087 0 0)
(202.07 0 0)
(203.047 0 0)
(204.017 0 0)
(204.981 0 0)
(205.939 0 0)
(206.891 0 0)
(207.836 0 0)
(208.776 0 0)
(209.71 0 0)
(210.637 0 0)
(211.558 0 0)
(212.474 0 0)
(213.383 0 0)
(214.287 0 0)
(215.184 0 0)
(216.075 0 0)
(216.961 0 0)
(217.841 0 0)
(218.715 0 0)
(219.582 0 0)
(220.447 0 0)
(221.295 0 0)
(222.171 0 0)
(222.934 0 0)
(224.027 0 0)
(141.279 0 0)
(142.55 0 0)
(143.815 0 0)
(145.077 0 0)
(146.333 0 0)
(147.585 0 0)
(148.832 0 0)
(150.073 0 0)
(151.309 0 0)
(152.539 0 0)
(153.764 0 0)
(154.983 0 0)
(156.196 0 0)
(157.403 0 0)
(158.605 0 0)
(159.8 0 0)
(160.99 0 0)
(162.173 0 0)
(163.35 0 0)
(164.521 0 0)
(165.686 0 0)
(166.845 0 0)
(167.997 0 0)
(169.144 0 0)
(170.284 0 0)
(171.418 0 0)
(172.545 0 0)
(173.667 0 0)
(174.782 0 0)
(175.891 0 0)
(176.993 0 0)
(178.09 0 0)
(179.18 0 0)
(180.264 0 0)
(181.342 0 0)
(182.413 0 0)
(183.479 0 0)
(184.538 0 0)
(185.591 0 0)
(186.638 0 0)
(187.679 0 0)
(188.713 0 0)
(189.742 0 0)
(190.764 0 0)
(191.781 0 0)
(192.791 0 0)
(193.795 0 0)
(194.793 0 0)
(195.785 0 0)
(196.771 0 0)
(197.751 0 0)
(198.725 0 0)
(199.693 0 0)
(200.655 0 0)
(201.611 0 0)
(202.562 0 0)
(203.506 0 0)
(204.444 0 0)
(205.377 0 0)
(206.303 0 0)
(207.224 0 0)
(208.139 0 0)
(209.048 0 0)
(209.951 0 0)
(210.849 0 0)
(211.741 0 0)
(212.627 0 0)
(213.507 0 0)
(214.382 0 0)
(215.251 0 0)
(216.114 0 0)
(216.971 0 0)
(217.823 0 0)
(218.669 0 0)
(219.512 0 0)
(220.339 0 0)
(221.194 0 0)
(221.939 0 0)
(223.004 0 0)
(142.755 0 0)
(143.979 0 0)
(145.2 0 0)
(146.415 0 0)
(147.627 0 0)
(148.834 0 0)
(150.036 0 0)
(151.233 0 0)
(152.425 0 0)
(153.612 0 0)
(154.794 0 0)
(155.97 0 0)
(157.142 0 0)
(158.307 0 0)
(159.468 0 0)
(160.622 0 0)
(161.771 0 0)
(162.915 0 0)
(164.053 0 0)
(165.185 0 0)
(166.311 0 0)
(167.432 0 0)
(168.547 0 0)
(169.656 0 0)
(170.76 0 0)
(171.857 0 0)
(172.949 0 0)
(174.035 0 0)
(175.116 0 0)
(176.19 0 0)
(177.258 0 0)
(178.321 0 0)
(179.378 0 0)
(180.429 0 0)
(181.474 0 0)
(182.514 0 0)
(183.547 0 0)
(184.575 0 0)
(185.597 0 0)
(186.613 0 0)
(187.624 0 0)
(188.628 0 0)
(189.627 0 0)
(190.62 0 0)
(191.608 0 0)
(192.589 0 0)
(193.565 0 0)
(194.535 0 0)
(195.499 0 0)
(196.458 0 0)
(197.411 0 0)
(198.358 0 0)
(199.299 0 0)
(200.235 0 0)
(201.165 0 0)
(202.09 0 0)
(203.009 0 0)
(203.922 0 0)
(204.83 0 0)
(205.732 0 0)
(206.628 0 0)
(207.519 0 0)
(208.404 0 0)
(209.284 0 0)
(210.158 0 0)
(211.027 0 0)
(211.89 0 0)
(212.747 0 0)
(213.6 0 0)
(214.446 0 0)
(215.288 0 0)
(216.123 0 0)
(216.954 0 0)
(217.778 0 0)
(218.6 0 0)
(219.406 0 0)
(220.24 0 0)
(220.967 0 0)
(222.004 0 0)
(144.179 0 0)
(145.359 0 0)
(146.535 0 0)
(147.707 0 0)
(148.875 0 0)
(150.039 0 0)
(151.198 0 0)
(152.352 0 0)
(153.503 0 0)
(154.648 0 0)
(155.788 0 0)
(156.924 0 0)
(158.055 0 0)
(159.18 0 0)
(160.301 0 0)
(161.417 0 0)
(162.527 0 0)
(163.632 0 0)
(164.732 0 0)
(165.827 0 0)
(166.916 0 0)
(168 0 0)
(169.079 0 0)
(170.153 0 0)
(171.221 0 0)
(172.283 0 0)
(173.341 0 0)
(174.392 0 0)
(175.439 0 0)
(176.48 0 0)
(177.515 0 0)
(178.545 0 0)
(179.57 0 0)
(180.589 0 0)
(181.603 0 0)
(182.611 0 0)
(183.614 0 0)
(184.611 0 0)
(185.603 0 0)
(186.59 0 0)
(187.57 0 0)
(188.546 0 0)
(189.516 0 0)
(190.48 0 0)
(191.44 0 0)
(192.393 0 0)
(193.341 0 0)
(194.284 0 0)
(195.221 0 0)
(196.153 0 0)
(197.08 0 0)
(198.001 0 0)
(198.916 0 0)
(199.827 0 0)
(200.732 0 0)
(201.631 0 0)
(202.525 0 0)
(203.414 0 0)
(204.297 0 0)
(205.175 0 0)
(206.048 0 0)
(206.915 0 0)
(207.777 0 0)
(208.633 0 0)
(209.485 0 0)
(210.331 0 0)
(211.171 0 0)
(212.007 0 0)
(212.837 0 0)
(213.662 0 0)
(214.482 0 0)
(215.296 0 0)
(216.106 0 0)
(216.909 0 0)
(217.71 0 0)
(218.496 0 0)
(219.309 0 0)
(220.018 0 0)
(221.028 0 0)
(145.553 0 0)
(146.69 0 0)
(147.824 0 0)
(148.953 0 0)
(150.079 0 0)
(151.201 0 0)
(152.319 0 0)
(153.433 0 0)
(154.543 0 0)
(155.648 0 0)
(156.749 0 0)
(157.845 0 0)
(158.937 0 0)
(160.024 0 0)
(161.107 0 0)
(162.184 0 0)
(163.257 0 0)
(164.326 0 0)
(165.389 0 0)
(166.448 0 0)
(167.501 0 0)
(168.55 0 0)
(169.594 0 0)
(170.633 0 0)
(171.667 0 0)
(172.696 0 0)
(173.719 0 0)
(174.738 0 0)
(175.752 0 0)
(176.761 0 0)
(177.764 0 0)
(178.763 0 0)
(179.756 0 0)
(180.745 0 0)
(181.728 0 0)
(182.706 0 0)
(183.679 0 0)
(184.646 0 0)
(185.609 0 0)
(186.567 0 0)
(187.519 0 0)
(188.466 0 0)
(189.408 0 0)
(190.345 0 0)
(191.277 0 0)
(192.203 0 0)
(193.124 0 0)
(194.041 0 0)
(194.952 0 0)
(195.858 0 0)
(196.758 0 0)
(197.654 0 0)
(198.544 0 0)
(199.43 0 0)
(200.31 0 0)
(201.185 0 0)
(202.055 0 0)
(202.919 0 0)
(203.779 0 0)
(204.633 0 0)
(205.483 0 0)
(206.327 0 0)
(207.166 0 0)
(208 0 0)
(208.829 0 0)
(209.653 0 0)
(210.472 0 0)
(211.285 0 0)
(212.094 0 0)
(212.898 0 0)
(213.696 0 0)
(214.49 0 0)
(215.279 0 0)
(216.061 0 0)
(216.842 0 0)
(217.608 0 0)
(218.4 0 0)
(219.091 0 0)
(220.075 0 0)
(146.878 0 0)
(147.974 0 0)
(149.067 0 0)
(150.156 0 0)
(151.242 0 0)
(152.324 0 0)
(153.402 0 0)
(154.477 0 0)
(155.547 0 0)
(156.614 0 0)
(157.676 0 0)
(158.735 0 0)
(159.789 0 0)
(160.839 0 0)
(161.885 0 0)
(162.926 0 0)
(163.963 0 0)
(164.996 0 0)
(166.024 0 0)
(167.048 0 0)
(168.067 0 0)
(169.082 0 0)
(170.092 0 0)
(171.098 0 0)
(172.099 0 0)
(173.095 0 0)
(174.086 0 0)
(175.073 0 0)
(176.055 0 0)
(177.033 0 0)
(178.006 0 0)
(178.974 0 0)
(179.937 0 0)
(180.895 0 0)
(181.849 0 0)
(182.797 0 0)
(183.741 0 0)
(184.681 0 0)
(185.615 0 0)
(186.544 0 0)
(187.469 0 0)
(188.388 0 0)
(189.303 0 0)
(190.213 0 0)
(191.118 0 0)
(192.018 0 0)
(192.914 0 0)
(193.804 0 0)
(194.69 0 0)
(195.57 0 0)
(196.446 0 0)
(197.317 0 0)
(198.183 0 0)
(199.044 0 0)
(199.9 0 0)
(200.751 0 0)
(201.597 0 0)
(202.438 0 0)
(203.275 0 0)
(204.106 0 0)
(204.933 0 0)
(205.755 0 0)
(206.571 0 0)
(207.383 0 0)
(208.19 0 0)
(208.993 0 0)
(209.79 0 0)
(210.582 0 0)
(211.37 0 0)
(212.153 0 0)
(212.931 0 0)
(213.703 0 0)
(214.472 0 0)
(215.235 0 0)
(215.995 0 0)
(216.742 0 0)
(217.513 0 0)
(218.188 0 0)
(219.144 0 0)
(148.157 0 0)
(149.214 0 0)
(150.267 0 0)
(151.317 0 0)
(152.364 0 0)
(153.407 0 0)
(154.447 0 0)
(155.484 0 0)
(156.517 0 0)
(157.546 0 0)
(158.572 0 0)
(159.594 0 0)
(160.612 0 0)
(161.627 0 0)
(162.637 0 0)
(163.643 0 0)
(164.646 0 0)
(165.644 0 0)
(166.639 0 0)
(167.629 0 0)
(168.615 0 0)
(169.597 0 0)
(170.574 0 0)
(171.547 0 0)
(172.517 0 0)
(173.481 0 0)
(174.442 0 0)
(175.398 0 0)
(176.349 0 0)
(177.297 0 0)
(178.239 0 0)
(179.178 0 0)
(180.112 0 0)
(181.041 0 0)
(181.966 0 0)
(182.886 0 0)
(183.802 0 0)
(184.714 0 0)
(185.62 0 0)
(186.523 0 0)
(187.42 0 0)
(188.313 0 0)
(189.202 0 0)
(190.086 0 0)
(190.965 0 0)
(191.839 0 0)
(192.709 0 0)
(193.575 0 0)
(194.435 0 0)
(195.291 0 0)
(196.142 0 0)
(196.989 0 0)
(197.831 0 0)
(198.668 0 0)
(199.501 0 0)
(200.329 0 0)
(201.152 0 0)
(201.97 0 0)
(202.784 0 0)
(203.593 0 0)
(204.398 0 0)
(205.198 0 0)
(205.993 0 0)
(206.783 0 0)
(207.569 0 0)
(208.35 0 0)
(209.126 0 0)
(209.897 0 0)
(210.664 0 0)
(211.427 0 0)
(212.184 0 0)
(212.937 0 0)
(213.685 0 0)
(214.428 0 0)
(215.17 0 0)
(215.897 0 0)
(216.648 0 0)
(217.306 0 0)
(218.237 0 0)
(149.392 0 0)
(150.41 0 0)
(151.425 0 0)
(152.437 0 0)
(153.447 0 0)
(154.453 0 0)
(155.456 0 0)
(156.456 0 0)
(157.453 0 0)
(158.447 0 0)
(159.437 0 0)
(160.424 0 0)
(161.408 0 0)
(162.388 0 0)
(163.364 0 0)
(164.337 0 0)
(165.306 0 0)
(166.271 0 0)
(167.233 0 0)
(168.19 0 0)
(169.144 0 0)
(170.094 0 0)
(171.041 0 0)
(171.983 0 0)
(172.921 0 0)
(173.855 0 0)
(174.786 0 0)
(175.712 0 0)
(176.634 0 0)
(177.552 0 0)
(178.466 0 0)
(179.376 0 0)
(180.281 0 0)
(181.183 0 0)
(182.08 0 0)
(182.973 0 0)
(183.861 0 0)
(184.746 0 0)
(185.626 0 0)
(186.502 0 0)
(187.373 0 0)
(188.24 0 0)
(189.103 0 0)
(189.962 0 0)
(190.816 0 0)
(191.665 0 0)
(192.511 0 0)
(193.352 0 0)
(194.188 0 0)
(195.02 0 0)
(195.848 0 0)
(196.671 0 0)
(197.489 0 0)
(198.303 0 0)
(199.113 0 0)
(199.918 0 0)
(200.719 0 0)
(201.515 0 0)
(202.307 0 0)
(203.094 0 0)
(203.877 0 0)
(204.655 0 0)
(205.429 0 0)
(206.198 0 0)
(206.963 0 0)
(207.723 0 0)
(208.479 0 0)
(209.23 0 0)
(209.977 0 0)
(210.719 0 0)
(211.457 0 0)
(212.19 0 0)
(212.919 0 0)
(213.642 0 0)
(214.364 0 0)
(215.073 0 0)
(215.804 0 0)
(216.445 0 0)
(217.351 0 0)
(150.583 0 0)
(151.564 0 0)
(152.543 0 0)
(153.519 0 0)
(154.492 0 0)
(155.463 0 0)
(156.431 0 0)
(157.396 0 0)
(158.358 0 0)
(159.317 0 0)
(160.273 0 0)
(161.226 0 0)
(162.176 0 0)
(163.123 0 0)
(164.067 0 0)
(165.007 0 0)
(165.944 0 0)
(166.877 0 0)
(167.807 0 0)
(168.734 0 0)
(169.657 0 0)
(170.576 0 0)
(171.492 0 0)
(172.404 0 0)
(173.313 0 0)
(174.218 0 0)
(175.119 0 0)
(176.016 0 0)
(176.91 0 0)
(177.8 0 0)
(178.686 0 0)
(179.568 0 0)
(180.446 0 0)
(181.32 0 0)
(182.19 0 0)
(183.057 0 0)
(183.919 0 0)
(184.777 0 0)
(185.631 0 0)
(186.482 0 0)