/*--------------------------------*- C++ -*----------------------------------*\
| =========                 |                                                 |
| \\      /  F ield         | OpenFOAM: The Open Source CFD Toolbox           |
|  \\    /   O peration     | Version:  2312                                  |
|   \\  /    A nd           | Website:  www.openfoam.com                      |
|    \\/     M anipulation  |                                                 |
\*---------------------------------------------------------------------------*/
FoamFile
{
    version     2.0;
    format      ascii;
    arch        "LSB;label=32;scalar=64";
    class       surfaceScalarField;
    location    "0.804";
    object      phi;
}
// * * * * * * * * * * * * * * * * * * * * * * * * * * * * * * * * * * * * * //

dimensions      [0 3 -1 0 0 0 0];

oriented        oriented;

internalField   nonuniform List<scalar> 
62015
(
48.2934
0.0941177
-49.4161
47.1469
0.0902016
45.9764
0.0862794
44.7813
0.0823564
43.5618
0.0784398
42.3189
0.0745379
41.0554
0.070662
39.7766
0.0668262
38.4913
0.0630505
37.2138
0.0593598
35.9642
0.0557864
34.7686
0.0523674
33.6566
0.0491412
32.6569
0.0461402
31.7925
0.043385
31.0772
0.0408795
30.5141
0.0386116
30.0972
0.0365559
29.8142
0.0346794
29.6491
0.0329469
29.5853
0.0313241
29.6067
0.0297801
29.699
0.0282887
29.8499
0.0268278
30.0489
0.0253796
30.2877
0.0239299
30.5592
0.0224672
30.8576
0.0209829
31.1785
0.0194697
31.518
0.0179221
31.873
0.016336
32.2412
0.0147082
32.6205
0.0130364
33.0091
0.0113183
33.4057
0.00955326
33.8092
0.00773985
34.2187
0.00587798
34.6333
0.0039674
35.0524
0.00200785
35.4755
0
35.9021
-0.0020559
36.3319
-0.00415945
36.7645
-0.00630951
37.1996
-0.00850555
37.6372
-0.0107467
38.0769
-0.0130315
38.5186
-0.0153594
38.9623
-0.0177286
39.4078
-0.0201383
39.8551
-0.0225872
40.304
-0.0250737
40.7546
-0.0275964
41.2068
-0.0301538
41.6606
-0.0327448
42.1159
-0.0353673
42.5728
-0.0380201
43.0312
-0.0407013
43.4912
-0.0434095
43.9528
-0.046143
44.4159
-0.0488999
44.8805
-0.0516786
45.3468
-0.0544774
45.8146
-0.0572944
46.2841
-0.0601277
46.7552
-0.0629759
47.2279
-0.0658368
47.7023
-0.0687087
48.1783
-0.0715896
48.6561
-0.0744778
49.1355
-0.0773713
49.6166
-0.0802684
50.0995
-0.0831666
50.5839
-0.0860652
51.0707
-0.08896
51.5572
-0.0918544
52.0517
-0.0947314
52.5287
-0.0976347
53.0668
-0.100421
-0.103529
53.4251
45.7722
0.181055
-46.8574
44.6639
0.173435
43.5334
0.165808
42.3807
0.158188
41.2067
0.15059
40.0137
0.143035
38.806
0.135549
37.5911
0.128167
36.3806
0.120935
35.1913
0.113911
34.0455
0.107161
32.9689
0.100758
31.9881
0.0947661
31.1257
0.0892306
30.397
0.0841695
29.8085
0.07957
29.3575
0.075393
29.0351
0.071582
28.8278
0.0680726
28.721
0.0647995
28.6997
0.0617024
28.7503
0.0587284
28.8607
0.0558324
29.0207
0.0529776
29.2218
0.0501338
29.4568
0.047277
29.7199
0.0443879
30.0064
0.0414514
30.3125
0.0384554
30.635
0.0353908
30.9713
0.0322501
31.3192
0.0290279
31.6771
0.0257197
32.0435
0.0223229
32.4171
0.0188349
32.7971
0.0152545
33.1826
0.0115808
33.5729
0.00781363
33.9674
0.00395319
34.3657
0
34.7673
-0.00404505
35.172
-0.00818077
35.5794
-0.0124059
35.9893
-0.0167185
36.4016
-0.0211169
36.816
-0.0255992
37.2324
-0.0301629
37.6508
-0.0348061
38.071
-0.0395262
38.4929
-0.0443207
38.9166
-0.0491867
39.3419
-0.054122
39.7688
-0.0591233
40.1974
-0.064188
40.6275
-0.0693128
41.0592
-0.074495
41.4925
-0.0797313
41.9274
-0.0850185
42.3638
-0.0903533
42.8018
-0.0957327
43.2414
-0.101153
43.6825
-0.106611
44.1253
-0.112103
44.5697
-0.117626
45.0157
-0.123177
45.4634
-0.128751
45.9127
-0.134345
46.3637
-0.139956
46.8164
-0.14558
47.2708
-0.151213
47.7268
-0.156852
48.1846
-0.162493
48.644
-0.168133
49.1057
-0.173765
49.5672
-0.179394
50.0362
-0.184991
50.4891
-0.190634
50.9989
-0.196057
-0.202085
51.3426
43.3079
0.260877
-44.3573
42.237
0.249765
41.1461
0.238655
40.036
0.227569
38.9088
0.216536
37.7682
0.205594
36.6206
0.19479
35.476
0.184188
34.3487
0.173865
33.2576
0.163914
32.2254
0.154435
31.2758
0.14552
30.43
0.137241
29.7039
0.129632
29.1053
0.122688
28.6344
0.116364
28.2849
0.110591
28.0461
0.105279
27.9049
0.100339
27.8481
0.0956835
27.8629
0.0912341
27.9377
0.0869236
28.0627
0.0826953
28.2294
0.0785027
28.4309
0.0743083
28.6613
0.0700812
28.9159
0.0657977
29.1907
0.0614381
29.4825
0.0569876
29.7887
0.0524339
30.107
0.0477679
30.4358
0.0429824
30.7734
0.0380719
31.1187
0.0330327
31.4707
0.0278618
31.8285
0.0225577
32.1913
0.0171194
32.5587
0.0115465
32.93
0.0058398
33.3048
0
33.6829
-0.0059715
34.0638
-0.0120729
34.4474
-0.0183024
34.8335
-0.024657
35.2218
-0.0311344
35.6123
-0.0377319
36.0048
-0.0444458
36.3992
-0.0512732
36.7954
-0.0582104
37.1934
-0.0652538
37.5931
-0.0723996
37.9945
-0.0796439
38.3975
-0.0869823
38.8022
-0.0944109
39.2084
-0.101925
39.6163
-0.109521
40.0257
-0.117194
40.4367
-0.124939
40.8493
-0.132751
41.2635
-0.140626
41.6793
-0.14856
42.0966
-0.156546
42.5156
-0.16458
42.9362
-0.172658
43.3585
-0.180773
43.7824
-0.188922
44.2079
-0.197098
44.6351
-0.205297
45.064
-0.213513
45.4946
-0.221741
45.9268
-0.229976
46.3608
-0.238212
46.7963
-0.246445
47.234
-0.254666
47.6718
-0.262881
48.1166
-0.271047
48.5465
-0.279278
49.0294
-0.287194
-0.295967
49.3581
40.931
0.333834
-41.9451
39.8974
0.319444
38.8467
0.305077
37.7806
0.290768
36.7026
0.276565
35.6184
0.262528
34.5365
0.248733
33.4695
0.235276
32.4337
0.222272
31.4489
0.209841
30.5361
0.198103
29.7151
0.187151
29.0009
0.177038
28.4026
0.167771
27.922
0.159307
27.5549
0.151565
27.2929
0.144444
27.1249
0.137832
27.0388
0.131618
27.0231
0.125702
27.067
0.119996
27.1609
0.114423
27.2969
0.10892
27.4679
0.103436
27.6684
0.0979284
27.8934
0.0923637
28.1392
0.0867146
28.4024
0.0809593
28.6804
0.0750808
28.971
0.0690653
29.2724
0.0629025
29.583
0.0565842
29.9016
0.0501043
30.2272
0.0434585
30.5587
0.0366434
30.8956
0.0296576
31.2372
0.0224999
31.5829
0.0151706
31.9324
0.00767018
32.2852
0
32.6411
-0.00783805
32.9998
-0.0158416
33.361
-0.024008
33.7246
-0.0323337
34.0904
-0.0408159
34.4583
-0.0494502
34.8282
-0.0582328
35.2
-0.0671595
35.5736
-0.0762255
35.949
-0.0854264
36.3261
-0.094757
36.7049
-0.104212
37.0853
-0.113787
37.4673
-0.123476
37.851
-0.133273
38.2362
-0.143173
38.6231
-0.15317
39.0115
-0.163258
39.4016
-0.173431
39.7932
-0.183682
40.1864
-0.194007
40.5813
-0.204398
40.9777
-0.214849
41.3758
-0.225353
41.7755
-0.235904
42.1768
-0.246496
42.5798
-0.257121
42.9844
-0.267773
43.3907
-0.278446
43.7986
-0.289132
44.2082
-0.299825
44.6196
-0.310517
45.0324
-0.321203
45.4475
-0.331872
45.8626
-0.342531
46.2845
-0.353126
46.6924
-0.363801
47.1501
-0.374072
-0.38543
47.4634
38.6535
0.400229
-39.6319
37.6581
0.382786
36.6492
0.365402
35.6299
0.348135
34.6052
0.331054
33.5827
0.31425
32.5735
0.297833
31.5919
0.281933
30.6551
0.266693
29.7819
0.252251
28.9901
0.238722
28.294
0.226176
27.7029
0.214633
27.2198
0.204056
26.8423
0.194362
26.5637
0.185439
26.3747
0.177159
26.2647
0.169395
26.2231
0.162024
26.24
0.15494
26.3065
0.148048
26.4148
0.141269
26.5582
0.134537
26.7312
0.127799
26.929
0.121011
27.1479
0.114137
27.3845
0.107149
27.6363
0.100023
27.9009
0.0927427
28.1766
0.0852922
28.4618
0.0776608
28.7552
0.0698401
29.0558
0.0618233
29.3627
0.0536062
29.6751
0.0451853
29.9923
0.0365591
30.3139
0.0277269
30.6393
0.0186888
30.9682
0.00944585
31.3004
0
31.6354
-0.00964647
31.973
-0.0194907
32.3132
-0.0295292
32.6556
-0.0397579
33.0002
-0.050173
33.3469
-0.0607696
33.6955
-0.0715428
34.046
-0.0824872
34.3983
-0.0935977
34.7524
-0.104869
35.1081
-0.116294
35.4655
-0.127866
35.8246
-0.139581
36.1853
-0.151431
36.5476
-0.16341
36.9116
-0.17551
37.2771
-0.187724
37.6442
-0.200046
38.0129
-0.212468
38.3832
-0.224983
38.755
-0.237583
39.1285
-0.250261
39.5036
-0.263008
39.8803
-0.275818
40.2586
-0.288682
40.6385
-0.301592
41.0201
-0.314541
41.4033
-0.327519
41.7882
-0.34052
42.1747
-0.353534
42.5628
-0.366554
42.9526
-0.37957
43.344
-0.392577
43.7375
-0.40556
44.1311
-0.418529
44.5312
-0.431418
44.9182
-0.4444
45.352
-0.456897
-0.470688
45.6502
36.4792
0.460389
-37.421
35.5239
0.440132
34.5597
0.419997
33.591
0.400066
32.6249
0.380439
31.6709
0.36124
30.7418
0.342614
29.8527
0.324719
29.0201
0.307709
28.2603
0.291718
27.5864
0.276832
27.0076
0.263084
26.5276
0.250444
26.1453
0.238832
25.8556
0.22813
25.6507
0.218201
25.5213
0.2089
25.458
0.200091
25.4516
0.191648
25.4939
0.183462
25.5774
0.175438
25.6957
0.167496
25.8436
0.159572
26.0165
0.151611
26.2104
0.14357
26.4224
0.135412
26.6496
0.127109
26.89
0.118638
27.1416
0.10998
27.4029
0.101121
27.6727
0.0920493
27.9498
0.0827561
28.2334
0.0732351
28.5226
0.0634817
28.8169
0.0534929
29.1156
0.043267
29.4183
0.0328038
29.7247
0.0221039
30.0343
0.0111685
30.3469
0
30.6623
-0.0113986
30.9802
-0.023024
31.3005
-0.0348719
31.6231
-0.046938
31.9477
-0.059217
32.2743
-0.0717039
32.6029
-0.0843926
32.9333
-0.0972771
33.2655
-0.110351
33.5995
-0.123608
33.9351
-0.137041
34.2724
-0.150643
34.6113
-0.164406
34.9519
-0.178322
35.294
-0.192385
35.6378
-0.206586
35.9831
-0.220917
36.33
-0.235369
36.6785
-0.249934
37.0286
-0.264604
37.3803
-0.27937
37.7336
-0.294223
38.0884
-0.309154
38.4449
-0.324154
38.803
-0.339214
39.1626
-0.354324
39.5239
-0.369476
39.8868
-0.384659
40.2513
-0.399866
40.6175
-0.415085
40.9853
-0.430307
41.3547
-0.445523
41.7256
-0.460725
42.0987
-0.475895
42.4719
-0.491047
42.8512
-0.506103
43.2184
-0.521262
43.6297
-0.535862
-0.551942
43.9132
34.4092
0.514658
-35.3124
33.4968
0.491853
32.581
0.469266
31.6682
0.447006
30.7669
0.42521
29.8884
0.404034
29.0461
0.383648
28.2547
0.364222
27.5284
0.345902
26.8797
0.328789
26.317
0.312926
25.8446
0.298295
25.4624
0.284818
25.1663
0.272378
24.9499
0.260828
24.8053
0.250016
24.724
0.239792
24.6978
0.230015
24.7188
0.22056
24.7803
0.211321
24.8761
0.202204
25.0012
0.193134
25.1511
0.184046
25.3221
0.174888
25.5111
0.165617
25.7156
0.156199
25.9333
0.146605
26.1624
0.136811
26.4014
0.126801
26.6489
0.116559
26.904
0.106075
27.1656
0.0953391
27.433
0.0843459
27.7056
0.0730908
27.9828
0.0615714
28.264
0.0497859
28.549
0.0377348
28.8374
0.0254186
29.1288
0.0128395
29.4231
0
29.72
-0.0130963
30.0194
-0.0264452
30.321
-0.0400422
30.6248
-0.0538819
30.9306
-0.0679589
31.2384
-0.0822668
31.5481
-0.096799
31.8596
-0.111549
32.1729
-0.126509
32.4878
-0.141672
32.8045
-0.157031
33.1227
-0.172576
33.4427
-0.1883
33.7642
-0.204193
34.0873
-0.220248
34.412
-0.236455
34.7383
-0.252806
35.0661
-0.269289
35.3955
-0.285897
35.7265
-0.30262
36.0591
-0.319447
36.3932
-0.336369
36.729
-0.353375
37.0663
-0.370456
37.4051
-0.387601
37.7456
-0.404799
38.0877
-0.42204
38.4313
-0.439314
38.7766
-0.45661
39.1234
-0.473917
39.4719
-0.491225
39.822
-0.508521
40.1736
-0.525798
40.5272
-0.543037
40.881
-0.56025
41.2407
-0.577353
41.589
-0.594566
41.9788
-0.611152
-0.629384
42.2484
32.4441
0.563415
-33.306
31.5784
0.538367
30.7161
0.513667
29.865
0.489463
29.0352
0.465919
28.2386
0.443218
27.488
0.421537
26.7964
0.401035
26.1749
0.381824
25.6314
0.363957
25.1703
0.347425
24.792
0.332156
24.4936
0.318033
24.2699
0.304908
24.1138
0.292622
24.0181
0.281013
23.9751
0.26993
23.9778
0.259237
24.0199
0.248813
24.0956
0.238555
24.2
0.228377
24.329
0.218204
24.479
0.207976
24.6469
0.197644
24.8302
0.187166
25.0268
0.176508
25.2349
0.165644
25.453
0.154552
25.6797
0.143213
25.914
0.131614
26.155
0.119744
26.4019
0.107596
26.6541
0.0951623
26.9109
0.0824399
27.172
0.0694265
27.4368
0.0561209
27.7051
0.0425236
27.9765
0.0286358
28.2509
0.0144602
28.5279
0
28.8074
-0.0147409
29.0893
-0.0297579
29.3733
-0.0450457
29.6595
-0.0605982
29.9476
-0.0764093
30.2376
-0.0924719
30.5295
-0.108779
30.8232
-0.125323
31.1185
-0.142095
31.4156
-0.159088
31.7143
-0.176293
32.0147
-0.1937
32.3167
-0.211301
32.6202
-0.229086
32.9254
-0.247045
33.2321
-0.265169
33.5403
-0.283447
33.8501
-0.301868
34.1615
-0.320423
34.4744
-0.339101
34.7889
-0.35789
35.105
-0.37678
35.4226
-0.395759
35.7417
-0.414817
36.0625
-0.433941
36.3847
-0.453121
36.7086
-0.472345
37.034
-0.4916
37.361
-0.510876
37.6896
-0.53016
38.0197
-0.549441
38.3515
-0.568705
38.6847
-0.587944
39.0199
-0.607137
39.3553
-0.626297
39.6963
-0.645333
40.0267
-0.664484
40.3962
-0.682945
-0.703199
40.6526
30.5853
0.607095
-31.4021
29.771
0.580151
28.9679
0.55373
28.1848
0.528007
27.4325
0.503171
26.7224
0.479408
26.0659
0.456883
25.4729
0.435717
24.9509
0.415973
24.5039
0.397646
24.133
0.380674
23.836
0.364941
23.6083
0.3503
23.4443
0.336587
23.3373
0.323635
23.2806
0.311283
23.2678
0.299385
23.2929
0.287811
23.3508
0.276447
23.4367
0.265197
23.5468
0.253979
23.6775
0.242725
23.826
0.231378
23.9899
0.219891
24.1669
0.208225
24.3555
0.196349
24.554
0.184237
24.7613
0.171867
24.9762
0.159224
25.1978
0.146293
25.4255
0.133066
25.6584
0.119534
25.8961
0.105691
26.1381
0.0915354
26.3839
0.0770639
26.6332
0.0622766
26.8858
0.0471741
27.1413
0.0317586
27.3995
0.0160325
27.6603
0
27.9234
-0.0163346
28.1888
-0.0329659
28.4563
-0.049888
28.7259
-0.0670947
28.9973
-0.0845786
29.2706
-0.102332
29.5457
-0.120348
29.8226
-0.138617
30.1011
-0.157131
30.3813
-0.175881
30.6631
-0.194857
30.9466
-0.214049
31.2316
-0.233447
31.5182
-0.253042
31.8063
-0.272822
32.096
-0.292776
32.3873
-0.312894
32.6801
-0.333164
32.9744
-0.353575
33.2702
-0.374115
33.5676
-0.394772
33.8665
-0.415534
34.167
-0.43639
34.469
-0.457326
34.7725
-0.47833
35.0776
-0.499391
35.3842
-0.520494
35.6924
-0.541628
36.002
-0.562779
36.3133
-0.583936
36.6261
-0.605083
36.9404
-0.62621
37.2562
-0.647303
37.5739
-0.668343
37.8919
-0.689342
38.2152
-0.710202
38.5285
-0.73118
38.8788
-0.751411
-0.773564
39.1225
28.8352
0.646202
-29.6024
28.0778
0.617759
27.3396
0.590049
26.6303
0.563265
25.9598
0.537599
25.3384
0.51322
24.7748
0.490255
24.2759
0.468771
23.8455
0.448773
23.4846
0.430201
23.1919
0.412945
22.9635
0.396861
22.7946
0.381781
22.6792
0.367536
22.6116
0.35396
22.5858
0.340897
22.5965
0.32821
22.6387
0.315777
22.7082
0.303494
22.8012
0.29127
22.9145
0.279031
23.0453
0.266714
23.1912
0.254265
23.3502
0.241641
23.5206
0.228806
23.701
0.215731
23.8901
0.20239
24.0868
0.188766
24.2904
0.174841
24.4999
0.160604
24.7148
0.146046
24.9345
0.131159
25.1585
0.115939
25.3864
0.100383
25.6179
0.0844894
25.8527
0.0682581
26.0904
0.0516905
26.3309
0.0347893
26.574
0.0175576
26.8194
0
27.0672
-0.0178786
27.3171
-0.0360725
27.569
-0.0545751
27.8229
-0.073379
28.0786
-0.0924772
28.3362
-0.111861
28.5955
-0.131522
28.8565
-0.151451
29.1191
-0.171639
29.3834
-0.192075
29.6493
-0.21275
29.9168
-0.233653
30.1858
-0.254774
30.4564
-0.2761
30.7285
-0.297621
31.0022
-0.319325
31.2773
-0.3412
31.554
-0.363234
31.8322
-0.385414
32.1119
-0.407728
32.3931
-0.430164
32.6758
-0.452707
32.9601
-0.475346
33.2458
-0.498068
33.5331
-0.520857
33.8218
-0.543702
34.1121
-0.566589
34.4039
-0.589503
34.6972
-0.612432
34.992
-0.635361
35.2883
-0.658276
35.5862
-0.681162
35.8854
-0.704009
36.1866
-0.726793
36.488
-0.749528
36.7945
-0.77211
37.0917
-0.794811
37.4236
-0.816714
-0.840649
37.6554
27.1968
0.681313
-27.9091
26.5018
0.65181
25.8339
0.623271
25.2022
0.595887
24.6156
0.56983
24.0819
0.545229
23.6071
0.522157
23.1949
0.500619
22.8464
0.480565
22.5604
0.461887
22.334
0.444444
22.1628
0.42807
22.0419
0.412593
21.9658
0.397843
21.9295
0.383662
21.9279
0.369905
21.9566
0.356444
22.0116
0.343166
22.0894
0.329977
22.1869
0.316793
22.3016
0.303548
22.431
0.290182
22.5734
0.276647
22.7271
0.262903
22.8906
0.248916
23.0628
0.234661
23.2427
0.220113
23.4293
0.205255
23.6219
0.190072
23.8199
0.174555
24.0227
0.158692
24.2298
0.14248
24.4409
0.125913
24.6556
0.108989
24.8735
0.091708
25.0945
0.0740697
25.3183
0.0560763
25.5446
0.0377309
25.7734
0.0190371
26.0045
0
26.2378
-0.0193749
26.4731
-0.0390812
26.7103
-0.0591116
26.9494
-0.0794588
27.1904
-0.100114
27.4331
-0.12107
27.6775
-0.142315
27.9236
-0.163841
28.1713
-0.185638
28.4206
-0.207695
28.6714
-0.230001
28.9238
-0.252544
29.1778
-0.275314
29.4332
-0.298298
29.6902
-0.321484
29.9487
-0.34486
30.2087
-0.368412
30.4701
-0.392129
30.7331
-0.415997
30.9975
-0.440002
31.2635
-0.464131
31.5309
-0.48837
31.7998
-0.512706
32.0701
-0.537123
32.342
-0.561608
32.6153
-0.586147
32.8901
-0.610725
33.1664
-0.635327
33.4442
-0.65994
33.7234
-0.684546
34.0041
-0.709133
34.2864
-0.733685
34.5699
-0.758189
34.8553
-0.78262
35.1411
-0.806994
35.4316
-0.831202
35.7135
-0.855526
36.0281
-0.879007
-0.904614
36.2485
25.6732
0.713077
-26.3255
25.0453
0.682976
24.4513
0.654064
23.899
0.626511
23.3952
0.600446
22.9453
0.575942
22.5526
0.553009
22.2181
0.531599
21.941
0.51161
21.7188
0.492903
21.5477
0.475316
21.4235
0.458678
21.3413
0.442817
21.2966
0.42757
21.2848
0.412791
21.302
0.398345
21.3443
0.384115
21.4086
0.370001
21.4921
0.355914
21.5921
0.341782
21.7066
0.327542
21.8338
0.31314
21.972
0.298534
22.1199
0.283686
22.2765
0.268565
22.4406
0.253148
22.6114
0.237412
22.7882
0.221343
22.9703
0.204926
23.1573
0.188151
23.3486
0.171012
23.5439
0.153502
23.7427
0.135619
23.9449
0.11736
24.1501
0.0987254
24.3581
0.0797164
24.5687
0.0603353
24.7818
0.0405858
24.9971
0.0204722
25.2147
0
25.4343
-0.0208247
25.6558
-0.041995
25.8793
-0.0635032
26.1045
-0.0853411
26.3316
-0.1075
26.5603
-0.12997
26.7907
-0.152742
27.0227
-0.175805
27.2562
-0.199149
27.4914
-0.222762
27.7281
-0.246633
27.9663
-0.27075
28.206
-0.2951
28.4472
-0.319671
28.6899
-0.34445
28.934
-0.369424
29.1797
-0.39458
29.4268
-0.419903
29.6753
-0.44538
29.9253
-0.470996
30.1768
-0.496738
30.4297
-0.522591
30.6841
-0.54854
30.9399
-0.574569
31.1972
-0.600665
31.4559
-0.626812
31.716
-0.652994
31.9777
-0.679196
32.2407
-0.705403
32.5052
-0.731599
32.7711
-0.757768
33.0385
-0.783894
33.3073
-0.809963
33.5778
-0.835951
33.8487
-0.861873
34.124
-0.887613
34.3914
-0.913467
34.6895
-0.938436
-0.965612
34.899
24.2665
0.742186
-24.8544
23.709
0.711938
23.1902
0.683075
22.7162
0.655721
22.2915
0.62995
21.9191
0.605772
21.5999
0.583141
21.3333
0.561961
21.1171
0.542095
20.9482
0.523387
20.8226
0.505665
20.7364
0.488761
20.6853
0.472509
20.6653
0.456761
20.6727
0.441379
20.7041
0.426242
20.7565
0.411246
20.8274
0.396298
20.9143
0.381321
21.0152
0.366249
21.1284
0.351024
21.2525
0.335599
21.3861
0.319935
21.5281
0.303998
21.6776
0.28776
21.8337
0.271199
21.9958
0.254296
22.1632
0.237036
22.3353
0.219408
22.5118
0.201402
22.6922
0.183012
22.8763
0.164233
23.0636
0.145063
23.2539
0.125501
23.4471
0.105547
23.6429
0.0852023
23.8411
0.064471
24.0417
0.0433567
24.2444
0.0218643
24.4492
0
24.6559
-0.0222297
24.8645
-0.0448173
25.075
-0.0677546
25.2872
-0.0910327
25.5011
-0.114642
25.7166
-0.138574
25.9338
-0.162816
26.1525
-0.187359
26.3728
-0.21219
26.5946
-0.237299
26.8179
-0.262672
27.0427
-0.288298
27.269
-0.314163
27.4967
-0.340254
27.7259
-0.366557
27.9566
-0.393059
28.1886
-0.419746
28.4222
-0.446602
28.6571
-0.473614
28.8935
-0.500767
29.1313
-0.528045
29.3705
-0.555433
29.6111
-0.582917
29.8532
-0.610479
30.0966
-0.638104
30.3415
-0.665777
30.5878
-0.693481
30.8356
-0.7212
31.0847
-0.748918
31.3352
-0.776618
31.5871
-0.804284
31.8405
-0.831898
32.0951
-0.859448
32.3515
-0.886906
32.6083
-0.914287
32.8693
-0.941474
33.1228
-0.968769
33.4054
-0.995143
-1.02379
33.6046
22.9769
0.769335
-23.4977
22.4908
0.739349
22.0461
0.710886
21.6467
0.684015
21.295
0.658748
20.992
0.635038
20.7371
0.612793
20.5285
0.591881
20.3633
0.57215
20.2383
0.553431
20.1497
0.535558
20.094
0.518368
20.0674
0.501709
20.0667
0.485444
20.0888
0.469449
20.1309
0.453616
20.1906
0.437851
20.2658
0.422072
20.3544
0.406209
20.4551
0.390203
20.5662
0.374003
20.6866
0.357567
20.8152
0.340858
20.9512
0.323847
21.0937
0.306509
21.242
0.288823
21.3956
0.270772
21.5539
0.252343
21.7165
0.233527
21.883
0.214314
22.0531
0.194699
22.2265
0.17468
22.4029
0.154252
22.5822
0.133418
22.764
0.112177
22.9483
0.0905321
23.1348
0.0684867
23.3236
0.0460459
23.5144
0.0232148
23.7072
0
23.9018
-0.0235912
24.0983
-0.0475509
24.2965
-0.0718705
24.4964
-0.0965402
24.6979
-0.121551
24.9011
-0.146891
25.1058
-0.17255
25.312
-0.198517
25.5198
-0.22478
25.729
-0.251325
25.9397
-0.278141
26.1519
-0.305215
26.3655
-0.332531
26.5805
-0.360078
26.7969
-0.38784
27.0148
-0.415804
27.2341
-0.443953
27.4548
-0.472274
27.6769
-0.500751
27.9003
-0.529368
28.1252
-0.558109
28.3515
-0.58696
28.5791
-0.615903
28.8081
-0.644921
29.0386
-0.674
29.2704
-0.703122
29.5035
-0.732269
29.7381
-0.761426
29.974
-0.790576
30.2113
-0.8197
30.45
-0.848782
30.69
-0.877804
30.9313
-0.906752
31.1743
-0.935598
31.4177
-0.964356
31.6651
-0.992907
31.9056
-1.02156
32.1733
-1.04926
-1.07928
32.3628
21.8022
0.795179
-22.2552
21.3861
0.765787
21.0117
0.737987
20.6811
0.711788
20.3949
0.687144
20.1526
0.663966
19.9526
0.642126
19.7926
0.621476
19.6695
0.601853
19.5802
0.583093
19.5213
0.565036
19.4898
0.54753
19.4825
0.530439
19.4967
0.513638
19.5299
0.497017
19.5798
0.48048
19.6445
0.463942
19.7221
0.447331
19.8113
0.430586
19.9106
0.413654
20.0189
0.396488
20.1353
0.379051
20.2587
0.361311
20.3886
0.343241
20.5242
0.324819
20.6649
0.306026
20.8103
0.286847
20.96
0.267271
21.1135
0.247289
21.2706
0.226894
21.4309
0.206081
21.5942
0.184847
21.7604
0.163192
21.9291
0.141116
22.1002
0.118621
22.2737
0.0957096
22.4493
0.0723862
22.6269
0.0486557
22.8065
0.0245248
22.988
0
23.1713
-0.0249108
23.3563
-0.050199
23.543
-0.0758553
23.7313
-0.10187
23.9212
-0.128233
24.1126
-0.154932
24.3056
-0.181957
24.5
-0.209296
24.696
-0.236935
24.8934
-0.264862
25.0922
-0.293063
25.2924
-0.321526
25.494
-0.350234
25.6971
-0.379176
25.9015
-0.408334
26.1073
-0.437695
26.3145
-0.467243
26.5231
-0.496962
26.733
-0.526836
26.9443
-0.556849
27.1569
-0.586986
27.371
-0.617228
27.5863
-0.64756
27.803
-0.677964
28.0211
-0.708423
28.2405
-0.73892
28.4613
-0.769437
28.6834
-0.799957
28.9068
-0.830463
29.1316
-0.860935
29.3577
-0.891358
29.5851
-0.92171
29.8138
-0.951979
30.044
-0.982135
30.2748
-1.01219
30.5093
-1.04203
30.7373
-1.07196
30.991
-1.10091
-1.13223
31.1712
20.7374
0.820285
-21.1244
20.3877
0.791727
20.078
0.764756
19.8088
0.739326
19.5798
0.715349
19.3894
0.692703
19.2355
0.671244
19.1156
0.650813
19.0268
0.631252
18.9662
0.612404
18.931
0.594121
18.9185
0.576265
18.9262
0.558713
18.9517
0.541355
18.9931
0.524093
19.0485
0.506842
19.1163
0.489527
19.1951
0.472086
19.2837
0.454462
19.381
0.436608
19.486
0.418485
19.598
0.400059
19.7162
0.381301
19.84
0.362187
19.9688
0.342697
20.1022
0.322816
20.2398
0.302529
20.3812
0.281827
20.526
0.260702
20.6741
0.239149
20.8252
0.217163
20.979
0.194743
21.1354
0.171889
21.2942
0.148602
21.4553
0.124884
21.6185
0.100739
21.7838
0.0761722
21.951
0.0511888
22.12
0.0257956
22.2909
0
22.4634
-0.0261895
22.6377
-0.052764
22.8135
-0.0797137
22.9909
-0.107028
23.1698
-0.134697
23.3503
-0.162708
23.5322
-0.191049
23.7156
-0.219708
23.9004
-0.248671
24.0866
-0.277926
24.2742
-0.307459
24.4631
-0.337254
24.6535
-0.367298
24.8452
-0.397576
25.0383
-0.428071
25.2327
-0.458769
25.4285
-0.489653
25.6256
-0.520708
25.8241
-0.551916
26.0238
-0.583261
26.2249
-0.614726
26.4274
-0.646294
26.6311
-0.677947
26.8362
-0.709668
27.0426
-0.741439
27.2503
-0.773242
27.4593
-0.805059
27.6696
-0.836872
27.8812
-0.868662
28.0941
-0.900411
28.3083
-0.932101
28.5237
-0.963712
28.7404
-0.995228
28.9586
-1.02662
29.1774
-1.05791
29.3997
-1.08896
29.6159
-1.12009
29.8563
-1.15022
-1.18274
30.0277
19.7754
0.845113
-20.1001
19.4864
0.817528
19.2344
0.79146
19.0189
0.766821
18.8387
0.743493
18.6919
0.721335
18.5761
0.700198
18.4889
0.679927
18.4277
0.660368
18.3901
0.641378
18.3735
0.622823
18.3758
0.604579
18.3948
0.586538
18.4288
0.568601
18.4761
0.550684
18.5351
0.53271
18.6047
0.514614
18.6835
0.496341
18.7708
0.477841
18.8655
0.459074
18.9669
0.440003
19.0743
0.420598
19.1871
0.400835
19.3049
0.380692
19.4272
0.360152
19.5535
0.3392
19.6836
0.317825
19.817
0.296018
19.9537
0.273773
20.0933
0.251085
20.2356
0.227952
20.3804
0.204373
20.5276
0.180348
20.6771
0.15588
20.8287
0.130971
20.9823
0.105625
21.1378
0.0798483
21.2952
0.0536471
21.4543
0.0270283
21.6152
0
21.7776
-0.0274289
21.9417
-0.0552489
22.1073
-0.0834497
22.2745
-0.112021
22.4431
-0.14095
22.6131
-0.170226
22.7846
-0.199836
22.9576
-0.229767
23.1318
-0.260006
23.3075
-0.290538
23.4845
-0.321349
23.6629
-0.352424
23.8426
-0.383748
24.0237
-0.415306
24.2061
-0.447082
24.3897
-0.479059
24.5747
-0.511221
24.761
-0.543552
24.9486
-0.576033
25.1375
-0.608649
25.3277
-0.64138
25.5192
-0.674211
25.7119
-0.707122
25.906
-0.740095
26.1013
-0.773112
26.2979
-0.806155
26.4958
-0.839205
26.6949
-0.872243
26.8953
-0.905251
27.097
-0.938209
27.2999
-0.971098
27.5041
-1.0039
27.7094
-1.03659
27.9162
-1.06915
28.1235
-1.1016
28.3343
-1.13379
28.5394
-1.16606
28.7671
-1.1973
-1.23095
28.9301
18.907
0.869996
-19.1749
18.6721
0.843436
18.4703
0.81827
18.3007
0.794383
18.1614
0.771642
18.0506
0.749901
17.9659
0.729011
17.9051
0.708825
17.866
0.689204
17.8464
0.670017
17.8443
0.651143
17.858
0.632475
17.8856
0.613916
17.9257
0.595381
17.977
0.576793
18.0382
0.558088
18.1083
0.539208
18.1864
0.520103
18.2717
0.500732
18.3634
0.481057
18.4609
0.461047
18.5637
0.440675
18.6712
0.41992
18.7831
0.398764
18.899
0.377189
19.0185
0.355185
19.1413
0.332741
19.2673
0.309851
19.3961
0.286509
19.5277
0.262711
19.6617
0.238456
19.798
0.213744
19.9366
0.188576
20.0773
0.162956
20.2199
0.136885
20.3645
0.110371
20.5108
0.0834176
20.659
0.0560327
20.8087
0.0282241
20.9601
0
21.1131
-0.0286301
21.2676
-0.0576562
21.4236
-0.0870676
21.5811
-0.116853
21.74
-0.147
21.9003
-0.177497
22.062
-0.208331
22.2251
-0.239487
22.3895
-0.270953
22.5552
-0.302713
22.7223
-0.334752
22.8906
-0.367056
23.0603
-0.399609
23.2313
-0.432395
23.4035
-0.465397
23.5771
-0.498598
23.7519
-0.531982
23.9279
-0.565532
24.1053
-0.59923
24.2839
-0.633057
24.4638
-0.666996
24.6449
-0.701029
24.8273
-0.735137
25.0109
-0.769301
25.1958
-0.803503
25.3819
-0.837724
25.5692
-0.871944
25.7578
-0.906144
25.9476
-0.940305
26.1386
-0.974407
26.3309
-1.00843
26.5243
-1.04236
26.7189
-1.07616
26.9149
-1.10983
27.1114
-1.14336
27.3112
-1.17663
27.5057
-1.20997
27.7215
-1.24225
-1.27696
27.8765
18.1223
0.895154
-18.3398
17.9343
0.869594
17.7754
0.845274
17.6441
0.822062
17.5387
0.79982
17.4572
0.778406
17.3976
0.757679
17.3579
0.737504
17.3362
0.717755
17.3307
0.698315
17.3399
0.679079
17.362
0.659951
17.396
0.640848
17.4404
0.621693
17.4942
0.602423
17.5564
0.582979
17.6262
0.563312
17.7029
0.543377
17.7857
0.523138
17.8742
0.502562
17.9676
0.481623
18.0657
0.460296
18.168
0.438563
18.2742
0.416408
18.3839
0.393816
18.4969
0.370779
18.6129
0.347286
18.7317
0.323333
18.8531
0.298916
18.977
0.274032
19.1031
0.24868
19.2315
0.222862
19.3619
0.196579
19.4943
0.169834
19.6285
0.142633
19.7645
0.11498
19.9023
0.0868828
20.0417
0.0583481
20.1827
0.029384
20.3252
0
20.4692
-0.0297943
20.6148
-0.0599885
20.7617
-0.090571
20.9101
-0.12153
21.0598
-0.152854
21.2109
-0.184529
21.3634
-0.216543
21.5171
-0.24888
21.6722
-0.281527
21.8286
-0.314468
21.9862
-0.347689
22.1452
-0.381173
22.3054
-0.414904
22.4668
-0.448867
22.6295
-0.483044
22.7935
-0.517417
22.9587
-0.55197
23.1251
-0.586685
23.2928
-0.621543
23.4617
-0.656527
23.6318
-0.691618
23.8032
-0.726796
23.9757
-0.762044
24.1495
-0.797341
24.3245
-0.832669
24.5007
-0.868008
24.678
-0.903339
24.8566
-0.938641
25.0364
-0.973895
25.2173
-1.00908
25.3994
-1.04418
25.5827
-1.07916
25.7671
-1.11403
25.9529
-1.14873
26.1392
-1.18329
26.3286
-1.21758
26.513
-1.25192
26.7175
-1.28519
-1.32088
26.8649
17.411
0.920706
-17.5849
17.2629
0.896072
17.1399
0.872502
17.0403
0.849862
16.9625
0.828019
16.9047
0.806836
16.8651
0.786186
16.8421
0.765946
16.834
0.746006
16.8395
0.726261
16.8571
0.706621
16.8856
0.687001
16.924
0.667329
16.9712
0.64754
17.0264
0.627576
17.0887
0.607387
17.1576
0.58693
17.2323
0.566167
17.3124
0.545065
17.3973
0.523597
17.4867
0.501738
17.5801
0.479468
17.6773
0.456771
17.7779
0.433632
17.8816
0.410041
17.9883
0.385988
18.0978
0.361466
18.2098
0.336472
18.3242
0.311002
18.4408
0.285055
18.5596
0.258631
18.6804
0.231732
18.8031
0.204361
18.9277
0.176521
19.054
0.148218
19.182
0.119458
19.3116
0.0902472
19.4428
0.0605949
19.5755
0.0305093
19.7097
0
19.8453
-0.0309228
19.9824
-0.0622479
20.1208
-0.093964
20.2606
-0.126059
20.4017
-0.158519
20.5441
-0.191331
20.6879
-0.224483
20.8329
-0.257957
20.9792
-0.291742
21.1267
-0.32582
21.2755
-0.360175
21.4256
-0.394793
21.5768
-0.429656
21.7293
-0.464747
21.883
-0.50005
22.0379
-0.535545
22.194
-0.571217
22.3514
-0.607045
22.5099
-0.643012
22.6696
-0.6791
22.8305
-0.715288
22.9926
-0.751559
23.1559
-0.787891
23.3203
-0.824267
23.486
-0.860665
23.6528
-0.897067
23.8207
-0.933451
23.9898
-0.969798
24.1601
-1.00609
24.3315
-1.0423
24.504
-1.07841
24.6777
-1.1144
24.8525
-1.15026
25.0285
-1.18594
25.2051
-1.22147
25.3846
-1.25672
25.5596
-1.292
25.7533
-1.3262
-1.36282
25.8936
16.7634
0.946696
-16.9004
16.6487
0.922877
16.5552
0.899941
16.4815
0.877761
16.426
0.856209
16.3871
0.835163
16.3633
0.814506
16.3534
0.794131
16.3559
0.77394
16.3696
0.753844
16.3935
0.733761
16.4266
0.713621
16.468
0.693359
16.5168
0.67292
16.5724
0.652252
16.6342
0.631314
16.7016
0.610067
16.774
0.588478
16.8511
0.566519
16.9325
0.544166
17.0177
0.521398
17.1065
0.498197
17.1987
0.47455
17.2939
0.450444
17.3919
0.425869
17.4926
0.40082
17.5958
0.375289
17.7014
0.349275
17.8091
0.322774
17.9189
0.295787
18.0307
0.268316
18.1444
0.240361
18.2598
0.211928
18.377
0.18302
18.4959
0.153644
18.6163
0.123806
18.7383
0.0935136
18.8617
0.0627754
18.9867
0.0316009
19.113
0
19.2407
-0.0320165
19.3698
-0.0644373
19.5002
-0.09725
19.6319
-0.130442
19.7649
-0.164001
19.8992
-0.197911
20.0347
-0.23216
20.1715
-0.266731
20.3095
-0.301611
20.4487
-0.336783
20.5892
-0.37223
20.7308
-0.407937
20.8736
-0.443886
21.0176
-0.48006
21.1628
-0.516441
21.3092
-0.553011
21.4568
-0.589752
21.6055
-0.626646
21.7554
-0.663672
21.9064
-0.700813
22.0586
-0.738049
22.212
-0.77536
22.3665
-0.812726
22.5221
-0.850127
22.6789
-0.887543
22.8368
-0.924954
22.9958
-0.962339
23.156
-0.999677
23.3173
-1.03695
23.4796
-1.07413
23.6431
-1.1112
23.8077
-1.14814
23.9733
-1.18494
24.1402
-1.22155
24.3076
-1.25799
24.4778
-1.29414
24.6437
-1.33031
24.8273
-1.36539
-1.40287
24.9607
16.1705
0.973111
-16.2766
16.0833
0.949978
16.0139
0.927554
15.961