/*--------------------------------*- C++ -*----------------------------------*\
| =========                 |                                                 |
| \\      /  F ield         | OpenFOAM: The Open Source CFD Toolbox           |
|  \\    /   O peration     | Version:  2312                                  |
|   \\  /    A nd           | Website:  www.openfoam.com                      |
|    \\/     M anipulation  |                                                 |
\*---------------------------------------------------------------------------*/
FoamFile
{
    version     2.0;
    format      ascii;
    arch        "LSB;label=32;scalar=64";
    class       surfaceScalarField;
    location    "0.086";
    object      phi;
}
// * * * * * * * * * * * * * * * * * * * * * * * * * * * * * * * * * * * * * //

dimensions      [0 3 -1 0 0 0 0];

oriented        oriented;

internalField   nonuniform List<scalar> 
62015
(
39.3275
0.0767874
-38.4878
40.1585
0.0769225
40.9784
0.0769378
41.7856
0.0768306
42.5795
0.0765994
43.3596
0.0762429
44.1258
0.0757616
44.8779
0.0751554
45.6163
0.0744255
46.3411
0.0735725
47.0527
0.0725979
47.7515
0.0715031
48.438
0.0702899
49.1125
0.0689596
49.7755
0.0675143
50.4275
0.0659555
51.0689
0.0642857
51.7002
0.0625063
52.3218
0.0606192
52.9342
0.0586268
53.5377
0.0565312
54.1328
0.054334
54.7199
0.0520377
55.2993
0.0496444
55.8715
0.0471561
56.4368
0.0445753
56.9955
0.0419038
57.548
0.0391443
58.0946
0.0362988
58.6356
0.0333696
59.1713
0.030359
59.702
0.0272694
60.2279
0.0241036
60.7494
0.020863
61.2667
0.0175512
61.78
0.0141695
62.2896
0.0107212
62.7957
0.00720867
63.2984
0.00363383
63.7981
0
64.2949
-0.00369062
64.789
-0.0074358
65.2805
-0.0112322
65.7697
-0.0150777
66.2567
-0.0189699
66.7417
-0.0229052
67.2248
-0.0268822
67.7061
-0.0308969
68.1858
-0.0349477
68.664
-0.0390315
69.1409
-0.0431454
69.6164
-0.0472867
70.0908
-0.0514527
70.5642
-0.055641
71.0365
-0.0598482
71.508
-0.064072
71.9786
-0.0683094
72.4486
-0.0725577
72.9178
-0.0768142
73.3864
-0.0810757
73.8544
-0.0853399
74.3219
-0.0896041
74.789
-0.0938648
75.2555
-0.0981196
75.7217
-0.102366
76.1874
-0.106601
76.6527
-0.110822
77.1177
-0.115025
77.5822
-0.119209
78.0464
-0.123371
78.5102
-0.127507
78.9736
-0.131615
79.4364
-0.135694
79.8992
-0.139737
80.3601
-0.143748
80.825
-0.147711
81.2751
-0.151659
81.7692
-0.155483
-0.159512
82.1236
39.0705
0.155008
-38.293
39.8391
0.155059
40.5962
0.154875
41.341
0.154453
42.0731
0.153793
42.7925
0.152893
43.4991
0.151754
44.193
0.150377
44.8745
0.148765
45.5439
0.146918
46.2015
0.14484
46.8477
0.142533
47.4829
0.140001
48.1075
0.137246
48.7219
0.134271
49.3265
0.131082
49.9218
0.127679
50.5081
0.124068
51.0859
0.120253
51.6554
0.116236
52.2172
0.112022
52.7716
0.107614
53.3188
0.103017
53.8594
0.0982341
54.3935
0.0932702
54.9216
0.0881293
55.4439
0.0828151
55.9607
0.0773324
56.4724
0.071685
56.9791
0.0658779
57.4813
0.0599149
57.979
0.0538009
58.4727
0.04754
58.9624
0.0411375
59.4485
0.0345972
59.9312
0.0279243
60.4107
0.0211232
60.8871
0.0141989
61.3608
0.00715623
61.8318
0
62.3003
-0.0072649
62.7666
-0.0146335
63.2308
-0.0221011
63.693
-0.0296622
64.1533
-0.037312
64.612
-0.0450454
65.0692
-0.0528568
65.525
-0.060742
65.9795
-0.0686949
66.4328
-0.0767109
66.885
-0.0847839
67.3363
-0.0929098
67.7867
-0.101082
68.2364
-0.109297
68.6853
-0.117547
69.1336
-0.125829
69.5814
-0.134136
70.0287
-0.142463
70.4756
-0.150806
70.9221
-0.159157
71.3683
-0.167513
71.8142
-0.175868
72.2599
-0.184216
72.7054
-0.192552
73.1507
-0.20087
73.5958
-0.209165
74.0407
-0.217433
74.4855
-0.225666
74.9302
-0.233861
75.3748
-0.242012
75.8191
-0.250113
76.2634
-0.25816
76.7073
-0.266147
77.1515
-0.274067
77.594
-0.281922
78.0407
-0.289687
78.4734
-0.297419
78.948
-0.304912
-0.312798
79.2929
38.7984
0.234511
-38.0809
39.5067
0.234266
40.2038
0.23368
40.8894
0.232751
41.5632
0.231479
42.2254
0.229863
42.876
0.227905
43.5152
0.225607
44.1434
0.222973
44.7607
0.220004
45.3676
0.216705
45.9645
0.213079
46.5516
0.209132
47.1293
0.204866
47.698
0.200288
48.2582
0.195401
48.8101
0.19021
49.3541
0.184722
49.8905
0.17894
50.4198
0.17287
50.9422
0.166517
51.4581
0.159888
51.9678
0.152987
52.4716
0.14582
52.9698
0.138393
53.4627
0.130712
53.9505
0.122784
54.4336
0.114612
54.9122
0.106206
55.3865
0.0975691
55.8568
0.0887091
56.3233
0.0796323
56.7863
0.0703448
57.2459
0.0608537
57.7024
0.0511649
58.156
0.0412857
58.6068
0.0312229
59.0551
0.0209828
59.5009
0.0105729
59.9446
0
60.3863
-0.0107288
60.826
-0.0216064
61.264
-0.0326258
61.7004
-0.0437792
62.1354
-0.0550597
62.569
-0.0664601
63.0014
-0.0779724
63.4327
-0.0895897
63.863
-0.101304
64.2925
-0.113108
64.7212
-0.124995
65.1492
-0.136955
65.5766
-0.148983
66.0034
-0.161069
66.4299
-0.173207
66.856
-0.185389
67.2817
-0.197606
67.7073
-0.209851
68.1326
-0.222118
68.5578
-0.234395
68.9829
-0.246679
69.408
-0.258958
69.833
-0.271227
70.2581
-0.283477
70.6831
-0.2957
71.1083
-0.30789
71.5334
-0.320037
71.9587
-0.332134
72.384
-0.344174
72.8094
-0.356149
73.2349
-0.36805
73.6605
-0.379871
74.0859
-0.391605
74.5119
-0.403241
74.9364
-0.414781
75.3651
-0.426188
75.7809
-0.437547
76.2362
-0.448561
-0.460137
76.5697
38.4857
0.314998
-37.8251
39.1374
0.314266
39.7785
0.313098
40.4089
0.31149
41.0287
0.309444
41.6378
0.306961
42.2366
0.304042
42.8253
0.300693
43.4041
0.296915
43.9733
0.292712
44.5333
0.288091
45.0844
0.283055
45.6269
0.277609
46.1612
0.27176
46.6876
0.265513
47.2063
0.258874
47.7179
0.251849
48.2225
0.244444
48.7205
0.236666
49.2122
0.228521
49.6979
0.220017
50.1779
0.21116
50.6525
0.201956
51.1219
0.192414
51.5864
0.182541
52.0464
0.172343
52.5019
0.161829
52.9533
0.151006
53.4008
0.139883
53.8446
0.128466
54.285
0.116764
54.7221
0.104785
55.1562
0.0925377
55.5874
0.0800302
56.016
0.0672705
56.442
0.0542679
56.8658
0.0410305
57.2874
0.0275677
57.7071
0.0138878
58.1249
0
58.5411
-0.0140866
58.9557
-0.0283629
59.3689
-0.0428197
59.7809
-0.0574472
60.1917
-0.0722372
60.6015
-0.0871788
61.0103
-0.102263
61.4184
-0.117481
61.8257
-0.132822
62.2324
-0.148277
62.6387
-0.163836
63.0444
-0.179489
63.4499
-0.195226
63.855
-0.211038
64.2599
-0.226914
64.6647
-0.242845
65.0694
-0.258819
65.4741
-0.274829
65.8788
-0.290863
66.2836
-0.306911
66.6884
-0.322963
67.0934
-0.33901
67.4986
-0.35504
67.904
-0.371045
68.3096
-0.387014
68.7154
-0.402937
69.1215
-0.418804
69.5279
-0.434605
69.9345
-0.45033
70.3414
-0.465969
70.7485
-0.481513
71.1559
-0.496951
71.5635
-0.512274
71.9716
-0.527471
72.3787
-0.542541
72.7898
-0.557438
73.1889
-0.572272
73.6258
-0.586659
-0.601769
73.9472
38.1258
0.396158
-37.5184
38.7248
0.394772
39.314
0.392861
39.8934
0.390424
40.4632
0.387464
41.0236
0.383982
41.5747
0.379981
42.1167
0.375466
42.6501
0.37044
43.1749
0.36491
43.6917
0.358879
44.2005
0.352355
44.7019
0.345343
45.196
0.337849
45.6831
0.329881
46.1636
0.321445
46.6377
0.312548
47.1058
0.303198
47.5681
0.293402
48.0249
0.283169
48.4765
0.272505
48.9231
0.26142
49.3649
0.24992
49.8023
0.238016
50.2354
0.225716
50.6646
0.213028
51.0899
0.199961
51.5117
0.186525
51.9301
0.172728
52.3454
0.158581
52.7577
0.144093
53.1672
0.129273
53.5742
0.114132
53.9787
0.0986795
54.381
0.0829254
54.7812
0.0668803
55.1795
0.0505548
55.5761
0.033959
55.971
0.0171037
56.3645
0
56.7566
-0.0173414
57.1474
-0.0349097
57.5372
-0.0526935
57.926
-0.0706814
58.314
-0.0888625
58.7012
-0.107225
59.0878
-0.125758
59.4737
-0.144449
59.8593
-0.163288
60.2444
-0.182261
60.6293
-0.201358
61.014
-0.220566
61.3985
-0.239874
61.7829
-0.259269
62.1674
-0.27874
62.5518
-0.298275
62.9364
-0.317861
63.3212
-0.337486
63.7062
-0.357139
64.0914
-0.376806
64.4769
-0.396477
64.8627
-0.416138
65.2488
-0.435778
65.6353
-0.455384
66.0223
-0.474945
66.4096
-0.494448
66.7973
-0.51388
67.1855
-0.533231
67.574
-0.552488
67.9631
-0.571639
68.3525
-0.590673
68.7423
-0.609575
69.1325
-0.628338
69.5234
-0.646944
69.9135
-0.665396
70.3077
-0.683636
70.6905
-0.701798
71.1095
-0.719417
-0.737908
71.4187
37.72
0.477709
-37.162
38.2702
0.47552
38.8114
0.472727
39.3439
0.469332
39.8678
0.465335
40.3831
0.460741
40.8903
0.455553
41.3895
0.449776
41.881
0.443416
42.365
0.436476
42.8419
0.428965
43.3118
0.420887
43.7752
0.412251
44.2321
0.403063
44.683
0.393331
45.1281
0.383063
45.5676
0.372266
46.0019
0.36095
46.431
0.349122
46.8554
0.336791
47.2753
0.323967
47.6908
0.310658
48.1022
0.296874
48.5097
0.282626
48.9136
0.267921
49.314
0.252771
49.7112
0.237187
50.1053
0.221178
50.4965
0.204754
50.8851
0.187928
51.2711
0.170709
51.6548
0.15311
52.0363
0.135141
52.4158
0.116814
52.7935
0.0981404
53.1694
0.0791325
53.5438
0.0598024
53.9167
0.0401621
54.2884
0.0202237
54.6588
0
55.0282
-0.0204965
55.3967
-0.0412533
55.7644
-0.062257
56.1314
-0.0834953
56.4977
-0.104954
56.8636
-0.126622
57.229
-0.148483
57.5941
-0.170526
57.959
-0.192737
58.3237
-0.215101
58.6883
-0.237607
59.0529
-0.260238
59.4175
-0.282982
59.7823
-0.305826
60.1472
-0.328754
60.5124
-0.351753
60.8778
-0.37481
61.2436
-0.397909
61.6097
-0.421037
61.9763
-0.44418
62.3433
-0.467323
62.7107
-0.490453
63.0786
-0.513555
63.4471
-0.536616
63.8161
-0.55962
64.1856
-0.582555
64.5557
-0.605406
64.9264
-0.628159
65.2976
-0.6508
65.6694
-0.673316
66.0418
-0.695692
66.4148
-0.717913
66.7881
-0.73997
67.1624
-0.761841
67.536
-0.783531
67.9137
-0.804972
68.2808
-0.82632
68.6826
-0.847033
-0.868759
68.9797
37.2725
0.5594
-36.7603
37.7776
0.556281
38.2748
0.552487
38.764
0.548021
39.2456
0.542884
39.7196
0.537081
40.1864
0.530617
40.6462
0.523496
41.0991
0.515725
41.5455
0.50731
41.9857
0.498256
42.4197
0.488572
42.848
0.478265
43.2707
0.467343
43.688
0.455814
44.1003
0.443687
44.5078
0.43097
44.9107
0.417672
45.3091
0.403804
45.7035
0.389374
46.0938
0.374393
46.4804
0.358871
46.8635
0.342817
47.2433
0.326245
47.6199
0.309163
47.9935
0.291583
48.3644
0.273517
48.7326
0.254976
49.0984
0.235973
49.462
0.216519
49.8234
0.196626
50.1829
0.176308
50.5406
0.155576
50.8967
0.134445
51.2512
0.112926
51.6043
0.0910337
51.9562
0.0687813
52.3069
0.0461821
52.6566
0.0232505
53.0055
0
53.3535
-0.023555
53.7009
-0.0473998
54.0477
-0.0715206
54.394
-0.095902
54.74
-0.12053
55.0856
-0.145389
55.4311
-0.170465
55.7764
-0.195742
56.1217
-0.221205
56.467
-0.246838
56.8124
-0.272627
57.158
-0.298555
57.5038
-0.324607
57.8498
-0.350768
58.1962
-0.377021
58.543
-0.403352
58.8902
-0.429744
59.2379
-0.45618
59.5861
-0.482646
59.9348
-0.509126
60.2841
-0.535602
60.634
-0.562061
60.9845
-0.588485
61.3357
-0.614858
61.6875
-0.641165
62.04
-0.66739
62.3932
-0.693517
62.7471
-0.71953
63.1017
-0.745414
63.457
-0.771152
63.8129
-0.796729
64.1696
-0.822129
64.5268
-0.847339
64.885
-0.872336
65.2427
-0.897125
65.6045
-0.921631
65.9563
-0.946027
66.3413
-0.969704
-0.99452
66.6268
36.7883
0.641016
-36.3183
37.252
0.636857
37.7085
0.631958
38.158
0.626325
38.6007
0.619959
39.0367
0.612865
39.4664
0.605049
39.8898
0.596516
40.3073
0.587272
40.7191
0.577324
41.1253
0.566679
41.5262
0.555345
41.9221
0.54333
42.3131
0.530642
42.6995
0.51729
43.0815
0.503284
43.4593
0.488633
43.833
0.473346
44.203
0.457435
44.5694
0.440909
44.9324
0.423779
45.2922
0.406056
45.6489
0.387753
46.0027
0.368879
46.3539
0.349449
46.7026
0.329473
47.0489
0.308964
47.393
0.287935
47.7351
0.266398
48.0752
0.244369
48.4137
0.221859
48.7505
0.198882
49.0858
0.175453
49.4198
0.151585
49.7526
0.127294
50.0843
0.102593
50.4151
0.0774985
50.7449
0.0520244
51.074
0.0261864
51.4025
0
51.7304
-0.0265193
52.0579
-0.0533557
52.385
-0.0804932
52.7119
-0.107916
53.0385
-0.135607
53.3651
-0.16355
53.6917
-0.191728
54.0183
-0.220126
54.3451
-0.248725
54.672
-0.27751
54.9992
-0.306462
55.3267
-0.335565
55.6546
-0.364802
55.9829
-0.394155
56.3116
-0.423607
56.6409
-0.453141
56.9708
-0.482738
57.3012
-0.512381
57.6323
-0.542053
57.964
-0.571736
58.2965
-0.601413
58.6296
-0.631065
58.9635
-0.660675
59.2982
-0.690226
59.6336
-0.7197
59.9698
-0.749079
60.3068
-0.778345
60.6445
-0.807482
60.9831
-0.836472
61.3225
-0.865296
61.6627
-0.893939
62.0037
-0.922382
62.3453
-0.950611
62.6881
-0.978601
63.0305
-1.00636
63.3769
-1.03379
63.7139
-1.06111
64.0828
-1.08762
-1.11539
64.3569
36.2724
0.722366
-35.8413
36.6979
0.717071
37.1171
0.710981
37.53
0.704099
37.937
0.696428
38.3381
0.687975
38.7335
0.678743
39.1236
0.668741
39.5084
0.657972
39.8882
0.646446
40.2632
0.634169
40.6335
0.621151
40.9995
0.607398
41.3612
0.592921
41.7189
0.577728
42.0728
0.56183
42.4231
0.545236
42.7699
0.527958
43.1134
0.510005
43.4539
0.49139
43.7914
0.472124
44.1262
0.452218
44.4584
0.431685
44.7881
0.410538
45.1156
0.388789
45.441
0.366452
45.7643
0.343539
46.0859
0.320066
46.4058
0.296045
46.7241
0.271492
47.041
0.24642
47.3565
0.220846
47.6709
0.194783
47.9843
0.168247
48.2967
0.141254
48.6083
0.11382
48.9191
0.0859616
49.2294
0.0576943
49.5391
0.0290347
49.8483
0
50.1573
-0.029393
50.466
-0.0591271
50.7746
-0.0891846
51.083
-0.119549
51.3915
-0.150201
51.7001
-0.181123
52.0088
-0.212298
52.3177
-0.243707
52.6269
-0.275332
52.9364
-0.307155
53.2463
-0.339156
53.5567
-0.371318
53.8676
-0.40362
54.179
-0.436045
54.491
-0.468574
54.8037
-0.501187
55.117
-0.533865
55.4311
-0.566589
55.7458
-0.599341
56.0614
-0.6321
56.3777
-0.664848
56.6949
-0.697566
57.0129
-0.730233
57.3318
-0.762831
57.6515
-0.795341
57.9721
-0.827743
58.2935
-0.860018
58.6159
-0.892148
58.9392
-0.924113
59.2633
-0.955894
59.5883
-0.987471
59.9142
-1.01883
60.2409
-1.04995
60.5687
-1.0808
60.8964
-1.11139
61.228
-1.14164
61.5508
-1.17174
61.9039
-1.20096
-1.23155
62.1672
35.7293
0.803282
-35.3339
36.1198
0.796773
36.5046
0.789416
36.8839
0.781217
37.258
0.772179
37.6269
0.762308
37.9909
0.751609
38.3502
0.740088
38.7049
0.727754
39.0552
0.714613
39.4013
0.700673
39.7435
0.685942
40.0818
0.67043
40.4164
0.654146
40.7476
0.637101
41.0755
0.619303
41.4003
0.600765
41.7221
0.581497
42.041
0.56151
42.3574
0.540816
42.6712
0.519429
42.9828
0.49736
43.2921
0.474622
43.5994
0.451229
43.9048
0.427195
44.2084
0.402533
44.5104
0.377258
44.8109
0.351385
45.11
0.324929
45.4078
0.297904
45.7045
0.270327
46.0002
0.242214
46.295
0.21358
46.589
0.184442
46.8822
0.154819
47.1749
0.124724
47.4671
0.0941778
47.7588
0.0631964
48.0503
0.0317976
48.3415
0
48.6326
-0.0321784
48.9236
-0.0647196
49.2146
-0.0976043
49.5058
-0.130813
49.7971
-0.164329
50.0886
-0.19813
50.3804
-0.232199
50.6725
-0.266515
50.9651
-0.301058
51.2581
-0.33581
51.5517
-0.37075
51.8458
-0.405857
52.1406
-0.441111
52.436
-0.476493
52.7321
-0.511981
53.029
-0.547556
53.3266
-0.583196
53.625
-0.618881
53.9243
-0.654591
54.2244
-0.690304
54.5254
-0.726001
54.8273
-0.761659
55.1302
-0.797259
55.4339
-0.832779
55.7386
-0.8682
56.0443
-0.9035
56.3509
-0.938659
56.6585
-0.973656
56.9671
-1.00847
57.2766
-1.04308
57.587
-1.07747
57.8985
-1.11161
58.2108
-1.1455
58.5243
-1.17909
58.8377
-1.2124
59.155
-1.24533
59.4641
-1.27809
59.8021
-1.30992
-1.34319
60.0548
35.1631
0.883617
-34.8006
35.5213
0.875826
35.8746
0.867142
36.223
0.857568
36.5668
0.847111
36.9062
0.835774
37.2412
0.823565
37.5721
0.81049
37.8991
0.796556
38.2222
0.781771
38.5417
0.766143
38.8578
0.749681
39.1705
0.732394
39.4801
0.714293
39.7868
0.695388
40.0905
0.675689
40.3916
0.655208
40.6902
0.633956
40.9864
0.611945
41.2804
0.589188
41.5722
0.565698
41.8621
0.541489
42.1501
0.516572
42.4365
0.490965
42.7213
0.464679
43.0046
0.437731
43.2866
0.410135
43.5674
0.381907
43.8471
0.353063
44.1258
0.323619
44.4036
0.293593
44.6807
0.262999
44.957
0.231858
45.2328
0.200184
45.5081
0.167997
45.783
0.135314
46.0577
0.102154
46.3321
0.0685359
46.6063
0.0344781
46.8806
0
47.1548
-0.0348789
47.4291
-0.0701391
47.7037
-0.10576
47.9784
-0.141723
48.2534
-0.178006
48.5289
-0.21459
48.8047
-0.251453
49.081
-0.288575
49.3578
-0.325934
49.6353
-0.36351
49.9133
-0.401282
50.1921
-0.439227
50.4715
-0.477323
50.7517
-0.515551
51.0327
-0.553887
51.3146
-0.59231
51.5972
-0.630798
51.8808
-0.669328
52.1653
-0.70788
52.4507
-0.74643
52.7371
-0.784956
53.0245
-0.823437
53.3128
-0.861851
53.6022
-0.900174
53.8926
-0.938386
54.184
-0.976464
54.4764
-1.01439
54.7698
-1.05213
55.0643
-1.08967
55.3598
-1.12699
55.6563
-1.16407
55.9538
-1.20089
56.2523
-1.23742
56.552
-1.27363
56.8518
-1.30953
57.1554
-1.34503
57.4512
-1.38034
57.7747
-1.41465
-1.45049
58.0172
34.5775
0.963243
-34.2452
34.9061
0.954115
35.2304
0.944052
35.5504
0.933057
35.8664
0.921138
36.1785
0.908298
36.4869
0.894545
36.7917
0.879885
37.093
0.864325
37.3911
0.847874
37.686
0.830541
37.978
0.812334
38.2671
0.793264
38.5535
0.77334
38.8373
0.752573
39.1188
0.730975
39.3979
0.708557
39.675
0.685332
39.95
0.661311
40.2231
0.636508
40.4945
0.610937
40.7642
0.584611
41.0325
0.557546
41.2993
0.529754
41.5649
0.501253
41.8293
0.472057
42.0926
0.442183
42.355
0.411646
42.6165
0.380464
42.8773
0.348653
43.1374
0.316232
43.397
0.283218
43.6561
0.249629
43.9149
0.215483
44.1733
0.1808
44.4316
0.145598
44.6897
0.109897
44.9478
0.0737173
45.2059
0.0370782
45.4641
0
45.7225
-0.0374966
45.9811
-0.0753908
46.24
-0.113662
46.4993
-0.152288
46.759
-0.191248
47.0192
-0.23052
47.2799
-0.270083
47.5413
-0.309913
47.8032
-0.34999
48.0659
-0.39029
48.3292
-0.430791
48.5933
-0.47147
48.8583
-0.512304
49.1241
-0.553271
49.3907
-0.594347
49.6583
-0.63551
49.9267
-0.676735
50.1962
-0.718
50.4666
-0.759282
50.7381
-0.800556
51.0105
-0.8418
51.284
-0.88299
51.5585
-0.924103
51.8341
-0.965114
52.1108
-1.006
52.3886
-1.04674
52.6674
-1.08731
52.9473
-1.12769
53.2283
-1.16784
53.5103
-1.20776
53.7935
-1.24742
54.0777
-1.28678
54.3629
-1.32584
54.6494
-1.36456
54.936
-1.40295
55.2264
-1.4409
55.5095
-1.47865
55.8189
-1.51533
-1.55362
56.0516
33.976
1.04205
-33.6714
34.2774
1.03154
34.575
1.02005
34.8689
1.0076
35.1593
0.994185
35.4463
0.979812
35.7301
0.964489
36.0108
0.948221
36.2885
0.931017
36.5634
0.912886
36.8356
0.893836
37.1053
0.873876
37.3725
0.853017
37.6375
0.83127
37.9002
0.808645
38.161
0.785154
38.4198
0.760809
38.6768
0.735624
38.9321
0.70961
39.1859
0.682781
39.4383
0.655152
39.6893
0.626738
39.939
0.597552
40.1877
0.567612
40.4353
0.536931
40.682
0.505527
40.9279
0.473417
41.1731
0.440618
41.4177
0.407146
41.6617
0.373021
41.9052
0.33826
42.1485
0.302881
42.3914
0.266905
42.6341
0.230351
42.8767
0.193237
43.1193
0.155585
43.3619
0.117414
43.6047
0.0787455
43.8476
0.0396004
44.0907
0
44.3341
-0.0400342
44.5779
-0.0804805
44.8221
-0.121317
45.0669
-0.16252
45.3121
-0.204069
45.5579
-0.24594
45.8044
-0.288109
46.0515
-0.330555
46.2994
-0.373254
46.548
-0.416181
46.7975
-0.459313
47.0477
-0.502627
47.2989
-0.546098
47.551
-0.589702
47.804
-0.633415
48.058
-0.677213
48.313
-0.72107
48.569
-0.764964
48.826
-0.808868
49.0841
-0.852759
49.3433
-0.896612
49.6036
-0.940402
49.865
-0.984104
50.1274
-1.02769
50.391
-1.07115
50.6557
-1.11444
50.9216
-1.15755
51.1885
-1.20044
51.4566
-1.2431
51.7258
-1.2855
51.9961
-1.32762
52.2676
-1.36943
52.54
-1.41092
52.8138
-1.45203
53.0879
-1.4928
53.3655
-1.53309
53.6364
-1.57317
53.9323
-1.61212
-1.65274
54.1555
33.3616
1.11993
-33.0824
33.6379
1.108
33.911
1.09507
34.1808
1.08113
34.4477
1.06619
34.7116
1.05026
34.9727
1.03335
35.2312
1.01546
35.4872
0.996595
35.7407
0.976773
35.9919
0.956
36.2409
0.934285
36.4879
0.911638
36.733
0.888071
36.9762
0.863594
37.2178
0.838221
37.4577
0.811962
37.6961
0.784833
37.9332
0.756845
38.169
0.728014
38.4036
0.698353
38.6371
0.667878
38.8697
0.636605
39.1014
0.604549
39.3323
0.571727
39.5625
0.538156
39.7921
0.503854
40.0212
0.468837
40.2499
0.433125
40.4782
0.396736
40.7062
0.359689
40.9341
0.322004
41.1619
0.2837
41.3896
0.244798
41.6174
0.205319
41.8452
0.165283
42.0733
0.12471
42.3015
0.0836248
42.5301
0.0420473
42.7591
0
42.9884
-0.0424944
43.2183
-0.0854131
43.4486
-0.128733
43.6796
-0.172431
43.9111
-0.216483
44.1434
-0.260865
44.3763
-0.305554
44.6101
-0.350525
44.8446
-0.395753
45.08
-0.441215
45.3162
-0.486884
45.5534
-0.532737
45.7915
-0.578747
46.0306
-0.624891
46.2707
-0.671142
46.5118
-0.717474
46.7539
-0.763863
46.9972
-0.810283
47.2415
-0.856708
47.4869
-0.903112
47.7334
-0.94947
47.9811
-0.995755
48.2299
-1.04194
48.4799
-1.08801
48.731
-1.13392
48.9832
-1.17966
49.2367
-1.2252
49.4913
-1.27051
49.747
-1.31556
50.0039
-1.36034
50.2619
-1.40482
50.5211
-1.44897
50.7814
-1.49277
51.043
-1.53618
51.3049
-1.57921
51.5703
-1.62174
51.8294
-1.66405
52.1124
-1.70517
-1.74801
52.3265
32.7369
1.19682
-32.4812
32.9903
1.18344
33.2408
1.16902
33.4885
1.15357
33.7337
1.1371
33.9763
1.11959
34.2166
1.10108
34.4546
1.08155
34.6904
1.06103
34.9241
1.03951
35.1559
1.01701
35.3859
0.993544
35.6142
0.969114
35.8408
0.943734
36.066
0.917416
36.2897
0.890173
36.5121
0.862017
36.7332
0.832963
36.9533
0.803023
37.1724
0.772213
37.3905
0.740548
37.6077
0.708044
37.8243
0.674715
38.0401
0.64058
38.2554
0.605655
38.4702
0.569958
38.6846
0.533506
38.8987
0.496319
39.1125
0.458415
39.3262
0.419814
39.5397
0.380535
39.7532
0.340599
39.9667
0.300026
40.1804
0.258838
40.3942
0.217055
40.6082
0.174699
40.8226
0.131794
41.0372
0.0883596
41.2524
0.0444209
41.4679
0
41.684
-0.0448794
41.9007
-0.0901936
42.118
-0.135918
42.3359
-0.18203
42.5546
-0.228503
42.774
-0.275314
42.9942
-0.322436
43.2153
-0.369845
43.4372
-0.417515
43.66
-0.465422
43.8838
-0.513537
44.1085
-0.561837
44.3342
-0.610294
44.561
-0.658883
44.7888
-0.707576
45.0176
-0.756348
45.2476
-0.805171
45.4787
-0.85402
45.7109
-0.902867
45.9442
-0.951685
46.1787
-1.00045
46.4144
-1.04913
46.6512
-1.0977
46.8892
-1.14614
47.1284
-1.19441
47.3688
-1.24249
47.6104
-1.29036
47.8532
-1.33798
48.0971
-1.38534
48.3422
-1.43239
48.5885
-1.47913
48.836
-1.52551
49.0845
-1.57153
49.3345
-1.61713
49.5848
-1.66233
49.8385
-1.70701
50.0863
-1.75144
50.3567
-1.79464
-1.83959
50.5621
32.1046
1.27263
-31.8704
32.3368
1.25778
32.5666
1.24187
32.794
1.22489
33.0191
1.20686
33.2421
1.18777
33.4631
1.16765
33.6822
1.14648
33.8994
1.12429
34.1149
1.10108
34.3288
1.07686
34.5411
1.05164
34.752
1.02544
34.9616
0.998254
35.17
0.970109
35.3771
0.941012
35.5833
0.910978
35.7884
0.880019
35.9927
0.848152
36.1962
0.81539
36.3989
0.781749
36.601
0.747246
36.8026
0.711897
37.0038
0.675719
37.2045
0.63873
37.4049
0.600947
37.6051
0.562391
37.8051
0.523079
38.005
0.483032
38.2049
0.442269
38.4048
0.400811
38.6048
0.358679
38.805
0.315895
39.0054
0.272479
39.2062
0.228454
39.4072
0.183843
39.6087
0.138669
39.8106
0.0929542
40.013
0.0467234
40.216
0
40.4196
-0.0471916
40.6239
-0.0948266
40.8288
-0.14288
41.0345
-0.191328
41.241
-0.240143
41.4483
-0.289301
41.6565
-0.338774
41.8655
-0.388538
42.0755
-0.438566
42.2864
-0.488831
42.4984
-0.539306
42.7113
-0.589964
42.9253
-0.640778
43.1404
-0.691721
43.3565
-0.742766
43.5738
-0.793885
43.7921
-0.845049
44.0117
-0.896233
44.2323
-0.947408
44.4542
-0.998545
44.6772
-1.04962
44.9015
-1.1006
45.1269
-1.15146
45.3535
-1.20217
45.5814
-1.2527
45.8104
-1.30303
46.0407
-1.35313
46.2721
-1.40297
46.5048
-1.45252
46.7387
-1.50176
46.9737
-1.55066
47.2099
-1.59918
47.4473
-1.64732
47.686
-1.69502
47.9252
-1.74229
48.1676
-1.78901
48.4046
-1.83547
48.6631
-1.88065
-1.92762
48.86
31.4668
1.3473
-31.2524
31.6796
1.33097
31.8902
1.31355
32.0989
1.29504
32.3056
1.27544
32.5105
1.25477
32.7138
1.23303
32.9153
1.21022
33.1154
1.18636
33.314
1.16146
33.5113
1.13553
33.7073
1.10857
33.9022
1.0806
34.0959
1.05163
34.2887
1.02167
34.4805
0.990741
34.6716
0.958849
34.8618
0.92601
35.0514
0.89224
35.2404
0.857554
35.4288
0.821968
35.6169
0.785499
35.8045
0.748164
35.9919
0.70998
36.179
0.670966
36.366
0.631141
36.5529
0.590523
36.7398
0.549133
36.9267
0.50699
37.1137
0.464116
37.3008
0.420531
37.4882
0.376258
37.6759
0.331317
37.864
0.285732
38.0524
0.239526
38.2412
0.192721
38.4306
0.145342
38.6205
0.0974127
38.811
0.0489571
39.0021
0
39.194
-0.0494333
39.3865
-0.0993172
39.5798
-0.149626
39.774
-0.200334
39.969
-0.251415
40.1648
-0.302842
40.3616
-0.354588
40.5593
-0.406626
40.758
-0.458929
40.9577
-0.51147
41.1584
-0.56422
41.3602
-0.617152
41.563
-0.670237
41.767
-0.723448
41.9721
-0.776757
42.1783
-0.830134
42.3857
-0.883551
42.5942
-0.93698
42.804
-0.990391
43.0149
-1.04376
43.227
-1.09705
43.4404
-1.15024
43.6549
-1.20329
43.8707
-1.25619
44.0877
-1.30889
44.3059
-1.36137
44.5254
-1.41361
44.7461
-1.46557
44.9679
-1.51723
45.191
-1.56856
45.4153
-1.61952
45.6408
-1.67009
45.8675
-1.72025
46.0955
-1.76996
46.324
-1.81921
46.5556
-1.86789
46.7822
-1.91628
47.0292
-1.96336
-2.01225
47.2179
30.8255
1.42079
-30.6293
31.0204
1.40297
31.2135
1.38403
31.4048
1.36397
31.5946
1.34281
31.7829
1.32055
31.9697
1.29719
32.1552
1.27275
32.3394
1.24723
32.5224
1.22065
32.7043
1.19301
32.8852
1.16432
33.0652
1.1346
33.2443
1.10386
33.4226
1.07211
33.6002
1.03936
33.7772
1.00564
33.9536
0.970943
34.1295
0.935298
34.305
0.898717
34.4802
0.861218
34.655
0.822816
34.8297
0.78353
35.0042
0.743379
35.1787
0.70238
35.3531
0.660553
35.5276
0.617918
35.7022
0.574495
35.8769
0.530305
36.0519
0.485369
36.2271
0.439709
36.4027
0.393347
36.5786
0.346306
36.755
0.298609
36.9319
0.250279
37.1093
0.201342
37.2873
0.15182
37.4659
0.101739
37.6451
0.0511238
37.8251
0
38.0059
-0.0516066
38.1874
-0.10367
38.3697
-0.156163
38.553
-0.209059
38.7371
-0.262331
38.9221
-0.315952
39.1081
-0.369894
39.2951
-0.424129
39.4831
-0.478629
39.6722
-0.533366
39.8623
-0.58831
40.0535
-0.643434
40.2458
-0.698708
40.4392
-0.754104
40.6338
-0.809592
40.8296
-0.865142
41.0265
-0.920726
41.2246
-0.976314
41.424
-1.03188
41.6245
-1.08738
41.8262
-1.1428
42.0292
-1.19811
42.2334
-1.25327
42.4389
-1.30826
42.6455
-1.36305
42.8534
-1.4176
43.0626
-1.47189
43.2729
-1.52588
43.4845
-1.57955
43.6973
-1.63288
43.9114
-1.68582
44.1266
-1.73835
44.343
-1.79045
44.5607
-1.84207
44.779
-1.89322
45.0003
-1.94376
45.2169
-1.994
45.4528
-2.04289
-2.09361
45.6338
30.1826
1.49305
-30.0031
30.361
1.47373
30.5378
1.45327
30.7133
1.43167
30.8874
1.40895
31.0603
1.3851
31.232
1.36013
31.4026
1.33406
31.5721
1.30689
31.7407
1.27863
31.9084
1.2493
32.0753
1.2189
32.2415
1.18745
32.407
1.15495
32.5719
1.12143
32.7363
1.08689
32.9002
1.05135
33.0638
1.01483
33.227
0.977337
33.39
0.938892
33.5527
0.899511
33.7154
0.859212
33.8779
0.818012
34.0405
0.77593
34.2031
0.732986
34.3658
0.6892
34.5286
0.644591
34.6917
0.59918
34.8551
0.55299
35.0188
0.506041
35.1828
0.458356
35.3473
0.409959
35.5122
0.360872
35.6777
0.311118
35.8437
0.260723
36.0104
0.209711
36.1777
0.158107
36.3456
0.105937
36.5144
0.0532256
36.6838
0
36.8541
-0.0537135
37.0253
-0.107888
37.1973
-0.162496
37.3702
-0.21751
37.5441
-0.272903
37.7189
-0.328645
37.8947
-0.38471
38.0716
-0.441067
38.2495
-0.497688
38.4284
-0.554544
38.6085
-0.611606
38.7897
-0.668843
38.972
-0.726227
39.1555
-0.783727
39.3401
-0.841313
39.5259
-0.898956
39.7129
-0.956624
39.9011
-1.01429
40.0906
-1.07192
40.2812
-1.12948
40.4731
-1.18695
40.6662
-1.24429
40.8605
-1.30148
41.0561
-1.35847
41.253
-1.41525
41.451
-1.47179
41.6503
-1.52804
41.8509
-1.58398
42.0526
-1.63959
42.2556
-1.69482
42.4598
-1.74966
42.6652
-1.80406
42.8718
-1.85801
43.0797
-1.91146
43.2882
-1.96442
43.4996
-2.01675
43.7066
-2.06876
43.932
-2.11938
-2.17183
44.1055
29.5395
1.56405
-29.3754
29.7027
1.54323
29.8647
1.52125
30.0255
1.49811
30.1852
1.47382
30.3439
1.44839
30.5016
1.42183
30.6584
1.39414
30.8144
1.36533
30.9697
1.33541
31.1242
1.3044
31.2782
1.2723
31.4316
1.23913
31.5845
1.20491
31.7369
1.16963
31.8891
1.13333
32.0409
1.096
32.1925
1.05768
32.3439
1.01837
32.4951
0.978093
32.6464
0.936863
32.7976
0.8947
32.9489
0.851623
33.1002
0.80765
33.2518
0.762801
33.4035
0.717096
33.5556
0.670557
33.7079
0.623204
33.8606
0.57506
34.0137
0.526147
34.1673
0.476488
34.3214
0.426106
34.476
0.375025
34.6312
0.323271
34.7871
0.270866
34.9436
0.217837
35.1008
0.16421
35.2588
0.11001
35.4176
0.0552647
35.5772
0
35.7376
-0.0557564
35.899
-0.111977
36.0612
-0.168634
36.2244
-0.225698
36.3886
-0.283142
36.5538
-0.340936
36.72
-0.399052
36.8873
-0.457459
37.0556
-0.516129
37.2251
-0.57503
37.3956
-0.634134
37.5673
-0.69341
37.7402
-0.752826
37.9142
-0.812354
38.0893
-0.871962
38.2657
-0.931618
38.4433
-0.991292
38.6221
-1.05095
38.8021
-1.11057
38.9834
-1.17011
39.1659
-1.22955
39.3496
-1.28884
39.5345
-1.34797
39.7207
-1.40689
39.9082
-1.46559
40.0969
-1.52402
40.2868
-1.58215
40.478
-1.63996
40.6703
-1.69741
40.8639
-1.75448
41.0587
-1.81113
41.2548
-1.86732
41.4519
-1.92304
41.6504
-1.97825
41.8496
-2.03294
42.0515
-2.08697
42.2494
-2.14066
42.4646
-2.19294
-2.24704
42.6309
28.8978
1.63375
-28.7479
29.0471
1.61144
29.1953
1.58794
29.3426
1.56327
29.489
1.53743
29.6345
1.51043
29.7793
1.48227
29.9234
1.45297
30.0669
1.42254
30.2098
1.39098
30.3522
1.35831
30.4941
1.32453
30.6357
1.28967
30.7769
1.25373
30.9179
1.21673
31.0586
1.17868
31.1991
1.1396
31.3396
1.09951
31.48
1.05841
31.6204
1.01633
31.7609
0.973288
31.9015
0.929298
32.0422
0.884379
32.1832
0.838553
32.3244
0.791839
32.4659
0.744259
32.6078
0.695832
32.7501
0.646582
32.8928
0.596531
33.0361
0.545701
33.1798
0.494116
33.3241
0.4418
33.4691
0.388779
33.6147
0.335075
33.761
0.280716
33.908
0.225726
34.0558
0.170133
34.2044
0.113963
34.3538
0.0572427
34.5041
0
34.6553
-0.0577371
34.8074
-0.11594
34.9604
-0.174581
35.1145
-0.23363
35.2695
-0.293059
35.4256
-0.352838
35.5827
-0.412936
35.7409
-0.473324
35.9003
-0.533972
36.0607
-0.594848
36.2222
-0.655922
36.3849
-0.717163
36.5488
-0.77854
36.7138
-0.840022
36.88
-0.901576
37.0475
-0.963171
37.2161
-1.02478
37.386
-1.08636
37.557
-1.14789
37.7294
-1.20933
37.9029
-1.27065
38.0777
-1.33182
38.2537
-1.39281
38.431
-1.45359
38.6095
-1.51412
38.7892
-1.57437
38.9702
-1.63431
39.1524
-1.6939
39.3358
-1.75313
39.5205
-1.81195
39.7063
-1.87033
39.8934
-1.92824
40.0816
-1.98565
40.2711
-2.04253
40.4613
-2.09887
40.6542
-2.15454
40.8432
-2.20983
41.0488
-2.26369
-2.31937
41.2082
28.2587
1.70214
-28.1218
28.3951
1.67834
28.5307
1.65334
28.6655
1.62714
28.7996
1.59976
28.9331
1.5712
29.066
1.54147
29.1983
1.51057
29.3302
1.47853
29.4617
1.44534
29.5928
1.41103
29.7236
1.3756
29.8542
1.33907
29.9846
1.30144
30.1148
1.26274
30.2449
1.22297
30.375
1.18217
30.5052
1.14033
30.6353
1.09747
30.7656
1.05363
30.8961
1.0088
31.0268
0.963019
31.1577
0.916297
31.2889
0.868657
31.4205
0.820118
31.5525
0.770702
31.6849
0.720431
31.8178
0.669328
31.9512
0.617415
32.0851
0.564715
32.2197
0.511253
32.3549
0.457054
32.4907
0.402141