/*--------------------------------*- C++ -*----------------------------------*\
| =========                 |                                                 |
| \\      /  F ield         | OpenFOAM: The Open Source CFD Toolbox           |
|  \\    /   O peration     | Version:  2312                                  |
|   \\  /    A nd           | Website:  www.openfoam.com                      |
|    \\/     M anipulation  |                                                 |
\*---------------------------------------------------------------------------*/
FoamFile
{
    version     2.0;
    format      ascii;
    arch        "LSB;label=32;scalar=64";
    class       volVectorField;
    location    "0.559";
    object      U;
}
// * * * * * * * * * * * * * * * * * * * * * * * * * * * * * * * * * * * * * //

dimensions      [0 1 -1 0 0 0 0];

internalField   nonuniform List<vector> 
31205
(
(273.334 0 0)
(271.842 0 0)
(270.299 0 0)
(268.702 0 0)
(267.05 0 0)
(265.341 0 0)
(263.572 0 0)
(261.741 0 0)
(259.845 0 0)
(257.881 0 0)
(255.847 0 0)
(253.737 0 0)
(251.548 0 0)
(249.276 0 0)
(246.915 0 0)
(244.459 0 0)
(241.902 0 0)
(239.236 0 0)
(236.453 0 0)
(233.541 0 0)
(230.49 0 0)
(227.285 0 0)
(223.91 0 0)
(220.343 0 0)
(216.56 0 0)
(212.53 0 0)
(208.21 0 0)
(203.547 0 0)
(198.471 0 0)
(192.88 0 0)
(186.607 0 0)
(179.347 0 0)
(170.645 0 0)
(160.163 0 0)
(148.237 0 0)
(136.137 0 0)
(125.463 0 0)
(117.214 0 0)
(111.477 0 0)
(107.786 0 0)
(105.565 0 0)
(104.336 0 0)
(103.769 0 0)
(103.647 0 0)
(103.83 0 0)
(104.229 0 0)
(104.786 0 0)
(105.461 0 0)
(106.225 0 0)
(107.059 0 0)
(107.949 0 0)
(108.884 0 0)
(109.854 0 0)
(110.855 0 0)
(111.88 0 0)
(112.926 0 0)
(113.988 0 0)
(115.065 0 0)
(116.154 0 0)
(117.253 0 0)
(118.36 0 0)
(119.475 0 0)
(120.595 0 0)
(121.72 0 0)
(122.848 0 0)
(123.98 0 0)
(125.114 0 0)
(126.25 0 0)
(127.387 0 0)
(128.526 0 0)
(129.664 0 0)
(130.802 0 0)
(131.941 0 0)
(133.078 0 0)
(134.219 0 0)
(135.341 0 0)
(136.517 0 0)
(137.524 0 0)
(139.044 0 0)
(271.985 0 0)
(270.488 0 0)
(268.942 0 0)
(267.343 0 0)
(265.689 0 0)
(263.98 0 0)
(262.212 0 0)
(260.384 0 0)
(258.491 0 0)
(256.532 0 0)
(254.504 0 0)
(252.401 0 0)
(250.221 0 0)
(247.958 0 0)
(245.608 0 0)
(243.164 0 0)
(240.621 0 0)
(237.97 0 0)
(235.203 0 0)
(232.31 0 0)
(229.279 0 0)
(226.095 0 0)
(222.743 0 0)
(219.202 0 0)
(215.447 0 0)
(211.446 0 0)
(207.159 0 0)
(202.532 0 0)
(197.494 0 0)
(191.944 0 0)
(185.714 0 0)
(178.499 0 0)
(169.859 0 0)
(159.481 0 0)
(147.716 0 0)
(135.81 0 0)
(125.309 0 0)
(117.174 0 0)
(111.49 0 0)
(107.809 0 0)
(105.572 0 0)
(104.315 0 0)
(103.714 0 0)
(103.555 0 0)
(103.701 0 0)
(104.063 0 0)
(104.583 0 0)
(105.22 0 0)
(105.948 0 0)
(106.746 0 0)
(107.6 0 0)
(108.499 0 0)
(109.435 0 0)
(110.401 0 0)
(111.391 0 0)
(112.403 0 0)
(113.432 0 0)
(114.476 0 0)
(115.531 0 0)
(116.597 0 0)
(117.672 0 0)
(118.754 0 0)
(119.842 0 0)
(120.935 0 0)
(122.032 0 0)
(123.133 0 0)
(124.235 0 0)
(125.34 0 0)
(126.447 0 0)
(127.554 0 0)
(128.662 0 0)
(129.77 0 0)
(130.879 0 0)
(131.985 0 0)
(133.096 0 0)
(134.189 0 0)
(135.334 0 0)
(136.316 0 0)
(137.79 0 0)
(270.561 0 0)
(269.06 0 0)
(267.51 0 0)
(265.908 0 0)
(264.253 0 0)
(262.543 0 0)
(260.776 0 0)
(258.949 0 0)
(257.059 0 0)
(255.104 0 0)
(253.08 0 0)
(250.983 0 0)
(248.809 0 0)
(246.555 0 0)
(244.213 0 0)
(241.78 0 0)
(239.248 0 0)
(236.61 0 0)
(233.857 0 0)
(230.978 0 0)
(227.963 0 0)
(224.798 0 0)
(221.465 0 0)
(217.944 0 0)
(214.21 0 0)
(210.232 0 0)
(205.969 0 0)
(201.367 0 0)
(196.355 0 0)
(190.83 0 0)
(184.621 0 0)
(177.423 0 0)
(168.806 0 0)
(158.498 0 0)
(146.885 0 0)
(135.201 0 0)
(124.932 0 0)
(116.978 0 0)
(111.404 0 0)
(107.775 0 0)
(105.55 0 0)
(104.284 0 0)
(103.661 0 0)
(103.473 0 0)
(103.587 0 0)
(103.916 0 0)
(104.401 0 0)
(105.004 0 0)
(105.697 0 0)
(106.461 0 0)
(107.28 0 0)
(108.145 0 0)
(109.047 0 0)
(109.979 0 0)
(110.937 0 0)
(111.916 0 0)
(112.912 0 0)
(113.923 0 0)
(114.947 0 0)
(115.981 0 0)
(117.024 0 0)
(118.074 0 0)
(119.131 0 0)
(120.193 0 0)
(121.259 0 0)
(122.329 0 0)
(123.402 0 0)
(124.477 0 0)
(125.553 0 0)
(126.63 0 0)
(127.709 0 0)
(128.787 0 0)
(129.866 0 0)
(130.943 0 0)
(132.025 0 0)
(133.09 0 0)
(134.204 0 0)
(135.163 0 0)
(136.591 0 0)
(269.102 0 0)
(267.597 0 0)
(266.043 0 0)
(264.439 0 0)
(262.782 0 0)
(261.072 0 0)
(259.305 0 0)
(257.479 0 0)
(255.591 0 0)
(253.639 0 0)
(251.618 0 0)
(249.526 0 0)
(247.359 0 0)
(245.111 0 0)
(242.777 0 0)
(240.352 0 0)
(237.83 0 0)
(235.202 0 0)
(232.461 0 0)
(229.595 0 0)
(226.594 0 0)
(223.442 0 0)
(220.125 0 0)
(216.62 0 0)
(212.903 0 0)
(208.942 0 0)
(204.696 0 0)
(200.111 0 0)
(195.114 0 0)
(189.602 0 0)
(183.395 0 0)
(176.186 0 0)
(167.562 0 0)
(157.294 0 0)
(145.822 0 0)
(134.377 0 0)
(124.38 0 0)
(116.655 0 0)
(111.235 0 0)
(107.69 0 0)
(105.501 0 0)
(104.241 0 0)
(103.607 0 0)
(103.399 0 0)
(103.487 0 0)
(103.787 0 0)
(104.241 0 0)
(104.812 0 0)
(105.473 0 0)
(106.204 0 0)
(106.991 0 0)
(107.824 0 0)
(108.693 0 0)
(109.593 0 0)
(110.519 0 0)
(111.465 0 0)
(112.43 0 0)
(113.41 0 0)
(114.402 0 0)
(115.405 0 0)
(116.418 0 0)
(117.438 0 0)
(118.464 0 0)
(119.496 0 0)
(120.532 0 0)
(121.572 0 0)
(122.615 0 0)
(123.66 0 0)
(124.708 0 0)
(125.756 0 0)
(126.805 0 0)
(127.855 0 0)
(128.905 0 0)
(129.954 0 0)
(131.007 0 0)
(132.044 0 0)
(133.128 0 0)
(134.064 0 0)
(135.449 0 0)
(267.629 0 0)
(266.12 0 0)
(264.563 0 0)
(262.957 0 0)
(261.299 0 0)
(259.588 0 0)
(257.821 0 0)
(255.997 0 0)
(254.111 0 0)
(252.162 0 0)
(250.145 0 0)
(248.058 0 0)
(245.896 0 0)
(243.654 0 0)
(241.328 0 0)
(238.911 0 0)
(236.397 0 0)
(233.779 0 0)
(231.048 0 0)
(228.194 0 0)
(225.204 0 0)
(222.066 0 0)
(218.761 0 0)
(215.27 0 0)
(211.567 0 0)
(207.621 0 0)
(203.388 0 0)
(198.815 0 0)
(193.828 0 0)
(188.319 0 0)
(182.104 0 0)
(174.871 0 0)
(166.222 0 0)
(155.983 0 0)
(144.65 0 0)
(133.455 0 0)
(123.747 0 0)
(116.271 0 0)
(111.022 0 0)
(107.577 0 0)
(105.437 0 0)
(104.191 0 0)
(103.553 0 0)
(103.329 0 0)
(103.395 0 0)
(103.669 0 0)
(104.095 0 0)
(104.636 0 0)
(105.266 0 0)
(105.967 0 0)
(106.723 0 0)
(107.524 0 0)
(108.362 0 0)
(109.231 0 0)
(110.126 0 0)
(111.042 0 0)
(111.976 0 0)
(112.925 0 0)
(113.887 0 0)
(114.86 0 0)
(115.842 0 0)
(116.833 0 0)
(117.83 0 0)
(118.832 0 0)
(119.839 0 0)
(120.85 0 0)
(121.864 0 0)
(122.881 0 0)
(123.899 0 0)
(124.919 0 0)
(125.94 0 0)
(126.961 0 0)
(127.984 0 0)
(129.004 0 0)
(130.03 0 0)
(131.039 0 0)
(132.094 0 0)
(133.007 0 0)
(134.352 0 0)
(266.152 0 0)
(264.639 0 0)
(263.08 0 0)
(261.473 0 0)
(259.814 0 0)
(258.104 0 0)
(256.338 0 0)
(254.515 0 0)
(252.632 0 0)
(250.686 0 0)
(248.673 0 0)
(246.591 0 0)
(244.434 0 0)
(242.199 0 0)
(239.879 0 0)
(237.471 0 0)
(234.966 0 0)
(232.357 0 0)
(229.636 0 0)
(226.792 0 0)
(223.814 0 0)
(220.687 0 0)
(217.395 0 0)
(213.917 0 0)
(210.226 0 0)
(206.292 0 0)
(202.07 0 0)
(197.507 0 0)
(192.526 0 0)
(187.017 0 0)
(180.787 0 0)
(173.52 0 0)
(164.841 0 0)
(154.63 0 0)
(143.44 0 0)
(132.501 0 0)
(123.088 0 0)
(115.865 0 0)
(110.794 0 0)
(107.453 0 0)
(105.365 0 0)
(104.139 0 0)
(103.499 0 0)
(103.262 0 0)
(103.308 0 0)
(103.558 0 0)
(103.957 0 0)
(104.471 0 0)
(105.072 0 0)
(105.742 0 0)
(106.468 0 0)
(107.24 0 0)
(108.048 0 0)
(108.887 0 0)
(109.751 0 0)
(110.637 0 0)
(111.542 0 0)
(112.461 0 0)
(113.394 0 0)
(114.338 0 0)
(115.291 0 0)
(116.252 0 0)
(117.22 0 0)
(118.194 0 0)
(119.173 0 0)
(120.155 0 0)
(121.141 0 0)
(122.13 0 0)
(123.12 0 0)
(124.112 0 0)
(125.106 0 0)
(126.1 0 0)
(127.094 0 0)
(128.088 0 0)
(129.086 0 0)
(130.069 0 0)
(131.095 0 0)
(131.985 0 0)
(133.292 0 0)
(264.675 0 0)
(263.16 0 0)
(261.6 0 0)
(259.992 0 0)
(258.333 0 0)
(256.623 0 0)
(254.859 0 0)
(253.039 0 0)
(251.159 0 0)
(249.216 0 0)
(247.208 0 0)
(245.131 0 0)
(242.98 0 0)
(240.751 0 0)
(238.439 0 0)
(236.038 0 0)
(233.542 0 0)
(230.943 0 0)
(228.232 0 0)
(225.398 0 0)
(222.431 0 0)
(219.316 0 0)
(216.036 0 0)
(212.569 0 0)
(208.89 0 0)
(204.967 0 0)
(200.755 0 0)
(196.2 0 0)
(191.223 0 0)
(185.709 0 0)
(179.46 0 0)
(172.156 0 0)
(163.446 0 0)
(153.268 0 0)
(142.228 0 0)
(131.548 0 0)
(122.429 0 0)
(115.458 0 0)
(110.562 0 0)
(107.326 0 0)
(105.291 0 0)
(104.085 0 0)
(103.446 0 0)
(103.198 0 0)
(103.226 0 0)
(103.453 0 0)
(103.827 0 0)
(104.313 0 0)
(104.886 0 0)
(105.528 0 0)
(106.226 0 0)
(106.968 0 0)
(107.747 0 0)
(108.557 0 0)
(109.392 0 0)
(110.249 0 0)
(111.125 0 0)
(112.015 0 0)
(112.92 0 0)
(113.835 0 0)
(114.76 0 0)
(115.693 0 0)
(116.633 0 0)
(117.579 0 0)
(118.529 0 0)
(119.484 0 0)
(120.443 0 0)
(121.404 0 0)
(122.367 0 0)
(123.332 0 0)
(124.298 0 0)
(125.265 0 0)
(126.233 0 0)
(127.2 0 0)
(128.171 0 0)
(129.128 0 0)
(130.127 0 0)
(130.994 0 0)
(132.264 0 0)
(263.201 0 0)
(261.685 0 0)
(260.124 0 0)
(258.516 0 0)
(256.859 0 0)
(255.15 0 0)
(253.388 0 0)
(251.57 0 0)
(249.694 0 0)
(247.756 0 0)
(245.752 0 0)
(243.681 0 0)
(241.536 0 0)
(239.314 0 0)
(237.01 0 0)
(234.617 0 0)
(232.13 0 0)
(229.54 0 0)
(226.838 0 0)
(224.016 0 0)
(221.059 0 0)
(217.955 0 0)
(214.686 0 0)
(211.231 0 0)
(207.564 0 0)
(203.65 0 0)
(199.448 0 0)
(194.899 0 0)
(189.924 0 0)
(184.404 0 0)
(178.131 0 0)
(170.788 0 0)
(162.05 0 0)
(151.91 0 0)
(141.029 0 0)
(130.611 0 0)
(121.783 0 0)
(115.058 0 0)
(110.333 0 0)
(107.199 0 0)
(105.217 0 0)
(104.033 0 0)
(103.395 0 0)
(103.137 0 0)
(103.148 0 0)
(103.353 0 0)
(103.703 0 0)
(104.163 0 0)
(104.71 0 0)
(105.324 0 0)
(105.993 0 0)
(106.707 0 0)
(107.458 0 0)
(108.24 0 0)
(109.047 0 0)
(109.876 0 0)
(110.723 0 0)
(111.586 0 0)
(112.462 0 0)
(113.35 0 0)
(114.247 0 0)
(115.153 0 0)
(116.065 0 0)
(116.984 0 0)
(117.908 0 0)
(118.835 0 0)
(119.767 0 0)
(120.701 0 0)
(121.638 0 0)
(122.577 0 0)
(123.516 0 0)
(124.457 0 0)
(125.399 0 0)
(126.34 0 0)
(127.285 0 0)
(128.216 0 0)
(129.188 0 0)
(130.033 0 0)
(131.267 0 0)
(261.73 0 0)
(260.214 0 0)
(258.654 0 0)
(257.046 0 0)
(255.391 0 0)
(253.684 0 0)
(251.925 0 0)
(250.111 0 0)
(248.238 0 0)
(246.305 0 0)
(244.307 0 0)
(242.241 0 0)
(240.103 0 0)
(237.888 0 0)
(235.592 0 0)
(233.207 0 0)
(230.729 0 0)
(228.148 0 0)
(225.457 0 0)
(222.645 0 0)
(219.699 0 0)
(216.606 0 0)
(213.348 0 0)
(209.904 0 0)
(206.247 0 0)
(202.344 0 0)
(198.149 0 0)
(193.606 0 0)
(188.632 0 0)
(183.102 0 0)
(176.804 0 0)
(169.421 0 0)
(160.656 0 0)
(150.564 0 0)
(139.849 0 0)
(129.696 0 0)
(121.154 0 0)
(114.668 0 0)
(110.109 0 0)
(107.076 0 0)
(105.146 0 0)
(103.982 0 0)
(103.347 0 0)
(103.079 0 0)
(103.073 0 0)
(103.258 0 0)
(103.585 0 0)
(104.02 0 0)
(104.541 0 0)
(105.128 0 0)
(105.771 0 0)
(106.457 0 0)
(107.181 0 0)
(107.935 0 0)
(108.715 0 0)
(109.516 0 0)
(110.336 0 0)
(111.172 0 0)
(112.021 0 0)
(112.881 0 0)
(113.752 0 0)
(114.631 0 0)
(115.517 0 0)
(116.409 0 0)
(117.306 0 0)
(118.208 0 0)
(119.113 0 0)
(120.021 0 0)
(120.932 0 0)
(121.845 0 0)
(122.759 0 0)
(123.674 0 0)
(124.59 0 0)
(125.506 0 0)
(126.425 0 0)
(127.332 0 0)
(128.277 0 0)
(129.1 0 0)
(130.299 0 0)
(260.265 0 0)
(258.749 0 0)
(257.189 0 0)
(255.584 0 0)
(253.93 0 0)
(252.227 0 0)
(250.471 0 0)
(248.661 0 0)
(246.793 0 0)
(244.864 0 0)
(242.872 0 0)
(240.813 0 0)
(238.681 0 0)
(236.474 0 0)
(234.186 0 0)
(231.81 0 0)
(229.34 0 0)
(226.769 0 0)
(224.088 0 0)
(221.286 0 0)
(218.351 0 0)
(215.269 0 0)
(212.022 0 0)
(208.589 0 0)
(204.942 0 0)
(201.048 0 0)
(196.86 0 0)
(192.321 0 0)
(187.346 0 0)
(181.805 0 0)
(175.478 0 0)
(168.054 0 0)
(159.268 0 0)
(149.233 0 0)
(138.692 0 0)
(128.804 0 0)
(120.544 0 0)
(114.291 0 0)
(109.893 0 0)
(106.956 0 0)
(105.076 0 0)
(103.934 0 0)
(103.301 0 0)
(103.025 0 0)
(103.003 0 0)
(103.168 0 0)
(103.472 0 0)
(103.884 0 0)
(104.379 0 0)
(104.941 0 0)
(105.557 0 0)
(106.218 0 0)
(106.914 0 0)
(107.642 0 0)
(108.395 0 0)
(109.17 0 0)
(109.963 0 0)
(110.772 0 0)
(111.595 0 0)
(112.429 0 0)
(113.274 0 0)
(114.126 0 0)
(114.986 0 0)
(115.853 0 0)
(116.724 0 0)
(117.6 0 0)
(118.48 0 0)
(119.363 0 0)
(120.249 0 0)
(121.136 0 0)
(122.025 0 0)
(122.915 0 0)
(123.807 0 0)
(124.697 0 0)
(125.592 0 0)
(126.474 0 0)
(127.394 0 0)
(128.195 0 0)
(129.36 0 0)
(258.804 0 0)
(257.29 0 0)
(255.732 0 0)
(254.129 0 0)
(252.478 0 0)
(250.778 0 0)
(249.026 0 0)
(247.22 0 0)
(245.357 0 0)
(243.434 0 0)
(241.448 0 0)
(239.395 0 0)
(237.271 0 0)
(235.072 0 0)
(232.791 0 0)
(230.424 0 0)
(227.964 0 0)
(225.403 0 0)
(222.731 0 0)
(219.94 0 0)
(217.016 0 0)
(213.944 0 0)
(210.708 0 0)
(207.285 0 0)
(203.647 0 0)
(199.761 0 0)
(195.58 0 0)
(191.044 0 0)
(186.067 0 0)
(180.511 0 0)
(174.153 0 0)
(166.688 0 0)
(157.886 0 0)
(147.917 0 0)
(137.558 0 0)
(127.936 0 0)
(119.952 0 0)
(113.925 0 0)
(109.683 0 0)
(106.84 0 0)
(105.009 0 0)
(103.887 0 0)
(103.257 0 0)
(102.973 0 0)
(102.937 0 0)
(103.083 0 0)
(103.366 0 0)
(103.754 0 0)
(104.225 0 0)
(104.762 0 0)
(105.353 0 0)
(105.988 0 0)
(106.659 0 0)
(107.36 0 0)
(108.087 0 0)
(108.836 0 0)
(109.604 0 0)
(110.387 0 0)
(111.184 0 0)
(111.993 0 0)
(112.812 0 0)
(113.639 0 0)
(114.474 0 0)
(115.315 0 0)
(116.162 0 0)
(117.013 0 0)
(117.868 0 0)
(118.726 0 0)
(119.587 0 0)
(120.45 0 0)
(121.314 0 0)
(122.18 0 0)
(123.047 0 0)
(123.913 0 0)
(124.784 0 0)
(125.642 0 0)
(126.537 0 0)
(127.318 0 0)
(128.449 0 0)
(257.35 0 0)
(255.838 0 0)
(254.282 0 0)
(252.681 0 0)
(251.034 0 0)
(249.338 0 0)
(247.59 0 0)
(245.789 0 0)
(243.932 0 0)
(242.015 0 0)
(240.035 0 0)
(237.989 0 0)
(235.873 0 0)
(233.681 0 0)
(231.409 0 0)
(229.051 0 0)
(226.6 0 0)
(224.048 0 0)
(221.387 0 0)
(218.605 0 0)
(215.692 0 0)
(212.631 0 0)
(209.405 0 0)
(205.991 0 0)
(202.363 0 0)
(198.485 0 0)
(194.309 0 0)
(189.775 0 0)
(184.793 0 0)
(179.22 0 0)
(172.829 0 0)
(165.323 0 0)
(156.51 0 0)
(146.617 0 0)
(136.447 0 0)
(127.092 0 0)
(119.379 0 0)
(113.571 0 0)
(109.479 0 0)
(106.727 0 0)
(104.944 0 0)
(103.843 0 0)
(103.216 0 0)
(102.924 0 0)
(102.874 0 0)
(103.002 0 0)
(103.265 0 0)
(103.631 0 0)
(104.079 0 0)
(104.592 0 0)
(105.158 0 0)
(105.767 0 0)
(106.413 0 0)
(107.09 0 0)
(107.792 0 0)
(108.516 0 0)
(109.258 0 0)
(110.017 0 0)
(110.789 0 0)
(111.572 0 0)
(112.366 0 0)
(113.169 0 0)
(113.979 0 0)
(114.796 0 0)
(115.618 0 0)
(116.445 0 0)
(117.276 0 0)
(118.11 0 0)
(118.946 0 0)
(119.785 0 0)
(120.626 0 0)
(121.468 0 0)
(122.311 0 0)
(123.154 0 0)
(124.001 0 0)
(124.836 0 0)
(125.706 0 0)
(126.467 0 0)
(127.565 0 0)
(255.903 0 0)
(254.393 0 0)
(252.84 0 0)
(251.243 0 0)
(249.6 0 0)
(247.908 0 0)
(246.165 0 0)
(244.369 0 0)
(242.518 0 0)
(240.607 0 0)
(238.634 0 0)
(236.595 0 0)
(234.486 0 0)
(232.303 0 0)
(230.039 0 0)
(227.69 0 0)
(225.248 0 0)
(222.706 0 0)
(220.055 0 0)
(217.283 0 0)
(214.38 0 0)
(211.329 0 0)
(208.113 0 0)
(204.709 0 0)
(201.089 0 0)
(197.218 0 0)
(193.047 0 0)
(188.513 0 0)
(183.525 0 0)
(177.933 0 0)
(171.506 0 0)
(163.959 0 0)
(155.142 0 0)
(145.333 0 0)
(135.359 0 0)
(126.271 0 0)
(118.824 0 0)
(113.229 0 0)
(109.282 0 0)
(106.617 0 0)
(104.882 0 0)
(103.8 0 0)
(103.177 0 0)
(102.879 0 0)
(102.815 0 0)
(102.926 0 0)
(103.169 0 0)
(103.514 0 0)
(103.939 0 0)
(104.428 0 0)
(104.971 0 0)
(105.556 0 0)
(106.178 0 0)
(106.83 0 0)
(107.508 0 0)
(108.207 0 0)
(108.925 0 0)
(109.659 0 0)
(110.407 0 0)
(111.167 0 0)
(111.937 0 0)
(112.715 0 0)
(113.501 0 0)
(114.294 0 0)
(115.093 0 0)
(115.896 0 0)
(116.703 0 0)
(117.513 0 0)
(118.327 0 0)
(119.142 0 0)
(119.96 0 0)
(120.778 0 0)
(121.599 0 0)
(122.418 0 0)
(123.242 0 0)
(124.054 0 0)
(124.901 0 0)
(125.642 0 0)
(126.708 0 0)
(254.464 0 0)
(252.956 0 0)
(251.407 0 0)
(249.814 0 0)
(248.174 0 0)
(246.487 0 0)
(244.75 0 0)
(242.96 0 0)
(241.114 0 0)
(239.21 0 0)
(237.244 0 0)
(235.213 0 0)
(233.112 0 0)
(230.936 0 0)
(228.681 0 0)
(226.341 0 0)
(223.909 0 0)
(221.376 0 0)
(218.734 0 0)
(215.973 0 0)
(213.08 0 0)
(210.039 0 0)
(206.832 0 0)
(203.437 0 0)
(199.825 0 0)
(195.96 0 0)
(191.793 0 0)
(187.258 0 0)
(182.261 0 0)
(176.647 0 0)
(170.183 0 0)
(162.598 0 0)
(153.782 0 0)
(144.068 0 0)
(134.296 0 0)
(125.474 0 0)
(118.286 0 0)
(112.897 0 0)
(109.09 0 0)
(106.511 0 0)
(104.821 0 0)
(103.76 0 0)
(103.14 0 0)
(102.836 0 0)
(102.76 0 0)
(102.854 0 0)
(103.078 0 0)
(103.402 0 0)
(103.805 0 0)
(104.273 0 0)
(104.792 0 0)
(105.354 0 0)
(105.953 0 0)
(106.581 0 0)
(107.235 0 0)
(107.911 0 0)
(108.605 0 0)
(109.315 0 0)
(110.039 0 0)
(110.776 0 0)
(111.522 0 0)
(112.277 0 0)
(113.04 0 0)
(113.81 0 0)
(114.585 0 0)
(115.365 0 0)
(116.149 0 0)
(116.937 0 0)
(117.727 0 0)
(118.52 0 0)
(119.315 0 0)
(120.111 0 0)
(120.908 0 0)
(121.706 0 0)
(122.507 0 0)
(123.297 0 0)
(124.12 0 0)
(124.842 0 0)
(125.877 0 0)
(253.032 0 0)
(251.528 0 0)
(249.983 0 0)
(248.394 0 0)
(246.76 0 0)
(245.078 0 0)
(243.346 0 0)
(241.562 0 0)
(239.722 0 0)
(237.825 0 0)
(235.866 0 0)
(233.843 0 0)
(231.749 0 0)
(229.582 0 0)
(227.336 0 0)
(225.005 0 0)
(222.582 0 0)
(220.059 0 0)
(217.427 0 0)
(214.675 0 0)
(211.791 0 0)
(208.76 0 0)
(205.563 0 0)
(202.176 0 0)
(198.572 0 0)
(194.711 0 0)
(190.547 0 0)
(186.01 0 0)
(181.002 0 0)
(175.364 0 0)
(168.86 0 0)
(161.238 0 0)
(152.432 0 0)
(142.822 0 0)
(133.258 0 0)
(124.699 0 0)
(117.766 0 0)
(112.576 0 0)
(108.905 0 0)
(106.407 0 0)
(104.762 0 0)
(103.721 0 0)
(103.106 0 0)
(102.795 0 0)
(102.708 0 0)
(102.787 0 0)
(102.992 0 0)
(103.296 0 0)
(103.679 0 0)
(104.124 0 0)
(104.621 0 0)
(105.161 0 0)
(105.736 0 0)
(106.342 0 0)
(106.973 0 0)
(107.625 0 0)
(108.297 0 0)
(108.984 0 0)
(109.685 0 0)
(110.399 0 0)
(111.122 0 0)
(111.855 0 0)
(112.595 0 0)
(113.342 0 0)
(114.094 0 0)
(114.852 0 0)
(115.614 0 0)
(116.379 0 0)
(117.147 0 0)
(117.918 0 0)
(118.691 0 0)
(119.465 0 0)
(120.24 0 0)
(121.016 0 0)
(121.795 0 0)
(122.564 0 0)
(123.364 0 0)
(124.067 0 0)
(125.072 0 0)
(251.609 0 0)
(250.109 0 0)
(248.568 0 0)
(246.984 0 0)
(245.355 0 0)
(243.679 0 0)
(241.953 0 0)
(240.175 0 0)
(238.342 0 0)
(236.452 0 0)
(234.501 0 0)
(232.485 0 0)
(230.399 0 0)
(228.241 0 0)
(226.003 0 0)
(223.681 0 0)
(221.267 0 0)
(218.753 0 0)
(216.131 0 0)
(213.389 0 0)
(210.515 0 0)
(207.493 0 0)
(204.304 0 0)
(200.925 0 0)
(197.327 0 0)
(193.472 0 0)
(189.308 0 0)
(184.768 0 0)
(179.747 0 0)
(174.082 0 0)
(167.538 0 0)
(159.882 0 0)
(151.093 0 0)
(141.596 0 0)
(132.244 0 0)
(123.949 0 0)
(117.262 0 0)
(112.265 0 0)
(108.725 0 0)
(106.307 0 0)
(104.705 0 0)
(103.683 0 0)
(103.073 0 0)
(102.758 0 0)
(102.659 0 0)
(102.723 0 0)
(102.911 0 0)
(103.196 0 0)
(103.558 0 0)
(103.983 0 0)
(104.458 0 0)
(104.976 0 0)
(105.529 0 0)
(106.112 0 0)
(106.721 0 0)
(107.351 0 0)
(108 0 0)
(108.665 0 0)
(109.344 0 0)
(110.035 0 0)
(110.736 0 0)
(111.447 0 0)
(112.165 0 0)
(112.89 0 0)
(113.621 0 0)
(114.356 0 0)
(115.096 0 0)
(115.84 0 0)
(116.587 0 0)
(117.336 0 0)
(118.087 0 0)
(118.839 0 0)
(119.594 0 0)
(120.347 0 0)
(121.105 0 0)
(121.853 0 0)
(122.631 0 0)
(123.316 0 0)
(124.291 0 0)
(250.196 0 0)
(248.701 0 0)
(247.164 0 0)
(245.585 0 0)
(243.961 0 0)
(242.291 0 0)
(240.571 0 0)
(238.8 0 0)
(236.974 0 0)
(235.091 0 0)
(233.147 0 0)
(231.139 0 0)
(229.062 0 0)
(226.912 0 0)
(224.683 0 0)
(222.37 0 0)
(219.965 0 0)
(217.461 0 0)
(214.848 0 0)
(212.115 0 0)
(209.25 0 0)
(206.237 0 0)
(203.056 0 0)
(199.685 0 0)
(196.093 0 0)
(192.241 0 0)
(188.077 0 0)
(183.532 0 0)
(178.495 0 0)
(172.801 0 0)
(166.216 0 0)
(158.529 0 0)
(149.765 0 0)
(140.391 0 0)
(131.256 0 0)
(123.221 0 0)
(116.776 0 0)
(111.965 0 0)
(108.551 0 0)
(106.21 0 0)
(104.651 0 0)
(103.648 0 0)
(103.042 0 0)
(102.722 0 0)
(102.613 0 0)
(102.663 0 0)
(102.834 0 0)
(103.101 0 0)
(103.443 0 0)
(103.848 0 0)
(104.302 0 0)
(104.799 0 0)
(105.331 0 0)
(105.893 0 0)
(106.479 0 0)
(107.088 0 0)
(107.715 0 0)
(108.359 0 0)
(109.016 0 0)
(109.685 0 0)
(110.365 0 0)
(111.054 0 0)
(111.75 0 0)
(112.454 0 0)
(113.163 0 0)
(113.878 0 0)
(114.596 0 0)
(115.319 0 0)
(116.044 0 0)
(116.772 0 0)
(117.503 0 0)
(118.234 0 0)
(118.968 0 0)
(119.701 0 0)
(120.437 0 0)
(121.165 0 0)
(121.922 0 0)
(122.588 0 0)
(123.535 0 0)
(248.793 0 0)
(247.302 0 0)
(245.771 0 0)
(244.197 0 0)
(242.579 0 0)
(240.915 0 0)
(239.201 0 0)
(237.437 0 0)
(235.618 0 0)
(233.742 0 0)
(231.806 0 0)
(229.806 0 0)
(227.737 0 0)
(225.596 0 0)
(223.376 0 0)
(221.071 0 0)
(218.675 0 0)
(216.18 0 0)
(213.577 0 0)
(210.853 0 0)
(207.997 0 0)
(204.992 0 0)
(201.82 0 0)
(198.455 0 0)
(194.868 0 0)
(191.019 0 0)
(186.854 0 0)
(182.301 0 0)
(177.248 0 0)
(171.521 0 0)
(164.894 0 0)
(157.181 0 0)
(148.451 0 0)
(139.208 0 0)
(130.294 0 0)
(122.516 0 0)
(116.305 0 0)
(111.675 0 0)
(108.382 0 0)
(106.116 0 0)
(104.597 0 0)
(103.614 0 0)
(103.013 0 0)
(102.689 0 0)
(102.57 0 0)
(102.606 0 0)
(102.762 0 0)
(103.01 0 0)
(103.334 0 0)
(103.719 0 0)
(104.154 0 0)
(104.63 0 0)
(105.141 0 0)
(105.682 0 0)
(106.248 0 0)
(106.835 0 0)
(107.441 0 0)
(108.064 0 0)
(108.7 0 0)
(109.348 0 0)
(110.007 0 0)
(110.675 0 0)
(111.35 0 0)
(112.033 0 0)
(112.722 0 0)
(113.415 0 0)
(114.113 0 0)
(114.815 0 0)
(115.52 0 0)
(116.228 0 0)
(116.938 0 0)
(117.649 0 0)
(118.362 0 0)
(119.075 0 0)
(119.791 0 0)
(120.499 0 0)
(121.234 0 0)
(121.883 0 0)
(122.802 0 0)
(247.4 0 0)
(245.914 0 0)
(244.388 0 0)
(242.82 0 0)
(241.208 0 0)
(239.55 0 0)
(237.844 0 0)
(236.086 0 0)
(234.274 0 0)
(232.406 0 0)
(230.478 0 0)
(228.486 0 0)
(226.425 0 0)
(224.292 0 0)
(222.081 0 0)
(219.785 0 0)
(217.399 0 0)
(214.913 0 0)
(212.318 0 0)
(209.603 0 0)
(206.756 0 0)
(203.759 0 0)
(200.594 0 0)
(197.235 0 0)
(193.653 0 0)
(189.805 0 0)
(185.638 0 0)
(181.076 0 0)
(176.003 0 0)
(170.243 0 0)
(163.574 0 0)
(155.839 0 0)
(147.151 0 0)
(138.048 0 0)
(129.358 0 0)
(121.834 0 0)
(115.852 0 0)
(111.395 0 0)
(108.219 0 0)
(106.025 0 0)
(104.546 0 0)
(103.581 0 0)
(102.985 0 0)
(102.658 0 0)
(102.53 0 0)
(102.553 0 0)
(102.693 0 0)
(102.925 0 0)
(103.231 0 0)
(103.596 0 0)
(104.012 0 0)
(104.468 0 0)
(104.959 0 0)
(105.48 0 0)
(106.025 0 0)
(106.592 0 0)
(107.178 0 0)
(107.78 0 0)
(108.395 0 0)
(109.023 0 0)
(109.662 0 0)
(110.309 0 0)
(110.965 0 0)
(111.627 0 0)
(112.295 0 0)
(112.969 0 0)
(113.647 0 0)
(114.329 0 0)
(115.014 0 0)
(115.701 0 0)
(116.391 0 0)
(117.083 0 0)
(117.776 0 0)
(118.469 0 0)
(119.165 0 0)
(119.854 0 0)
(120.569 0 0)
(121.201 0 0)
(122.092 0 0)
(246.017 0 0)
(244.537 0 0)
(243.017 0 0)
(241.455 0 0)
(239.849 0 0)
(238.198 0 0)
(236.498 0 0)
(234.747 0 0)
(232.943 0 0)
(231.083 0 0)
(229.162 0 0)
(227.178 0 0)
(225.126 0 0)
(223.002 0 0)
(220.799 0 0)
(218.512 0 0)
(216.135 0 0)
(213.657 0 0)
(211.071 0 0)
(208.366 0 0)
(205.526 0 0)
(202.537 0 0)
(199.379 0 0)
(196.026 0 0)
(192.446 0 0)
(188.599 0 0)
(184.429 0 0)
(179.856 0 0)
(174.761 0 0)
(168.965 0 0)
(162.255 0 0)
(154.503 0 0)
(145.867 0 0)
(136.912 0 0)
(128.448 0 0)
(121.174 0 0)
(115.414 0 0)
(111.124 0 0)
(108.062 0 0)
(105.936 0 0)
(104.496 0 0)
(103.55 0 0)
(102.959 0 0)
(102.629 0 0)
(102.492 0 0)
(102.503 0 0)
(102.628 0 0)
(102.844 0 0)
(103.132 0 0)
(103.48 0 0)
(103.876 0 0)
(104.313 0 0)
(104.785 0 0)
(105.286 0 0)
(105.812 0 0)
(106.359 0 0)
(106.925 0 0)
(107.507 0 0)
(108.103 0 0)
(108.711 0 0)
(109.329 0 0)
(109.957 0 0)
(110.593 0 0)
(111.235 0 0)
(111.884 0 0)
(112.538 0 0)
(113.196 0 0)
(113.859 0 0)
(114.524 0 0)
(115.192 0 0)
(115.863 0 0)
(116.535 0 0)
(117.209 0 0)
(117.883 0 0)
(118.56 0 0)
(119.229 0 0)
(119.924 0 0)
(120.54 0 0)
(121.404 0 0)
(244.646 0 0)
(243.171 0 0)
(241.657 0 0)
(240.102 0 0)
(238.503 0 0)
(236.858 0 0)
(235.165 0 0)
(233.422 0 0)
(231.625 0 0)
(229.772 0 0)
(227.86 0 0)
(225.884 0 0)
(223.84 0 0)
(221.724 0 0)
(219.53 0 0)
(217.252 0 0)
(214.883 0 0)
(212.415 0 0)
(209.837 0 0)
(207.14 0 0)
(204.308 0 0)
(201.326 0 0)
(198.174 0 0)
(194.826 0 0)
(191.249 0 0)
(187.402 0 0)
(183.226 0 0)
(178.641 0 0)
(173.522 0 0)
(167.688 0 0)
(160.938 0 0)
(153.175 0 0)
(144.6 0 0)
(135.801 0 0)
(127.565 0 0)
(120.537 0 0)
(114.991 0 0)
(110.863 0 0)
(107.909 0 0)
(105.851 0 0)
(104.449 0 0)
(103.52 0 0)
(102.935 0 0)
(102.602 0 0)
(102.457 0 0)
(102.456 0 0)
(102.568 0 0)
(102.767 0 0)
(103.039 0 0)
(103.369 0 0)
(103.747 0 0)
(104.166 0 0)
(104.619 0 0)
(105.101 0 0)
(105.607 0 0)
(106.135 0 0)
(106.682 0 0)
(107.245 0 0)
(107.821 0 0)
(108.41 0 0)
(109.009 0 0)
(109.618 0 0)
(110.234 0 0)
(110.858 0 0)
(111.487 0 0)
(112.122 0 0)
(112.761 0 0)
(113.405 0 0)
(114.051 0 0)
(114.701 0 0)
(115.352 0 0)
(116.005 0 0)
(116.66 0 0)
(117.316 0 0)
(117.974 0 0)
(118.625 0 0)
(119.301 0 0)
(119.9 0 0)
(120.738 0 0)
(243.286 0 0)
(241.817 0 0)
(240.31 0 0)
(238.761 0 0)
(237.168 0 0)
(235.53 0 0)
(233.845 0 0)
(232.109 0 0)
(230.32 0 0)
(228.475 0 0)
(226.57 0 0)
(224.603 0 0)
(222.567 0 0)
(220.46 0 0)
(218.274 0 0)
(216.005 0 0)
(213.644 0 0)
(211.184 0 0)
(208.615 0 0)
(205.926 0 0)
(203.102 0 0)
(200.127 0 0)
(196.98 0 0)
(193.636 0 0)
(190.061 0 0)
(186.212 0 0)
(182.03 0 0)
(177.431 0 0)
(172.284 0 0)
(166.412 0 0)
(159.624 0 0)
(151.856 0 0)
(143.352 0 0)
(134.715 0 0)
(126.709 0 0)
(119.922 0 0)
(114.584 0 0)
(110.611 0 0)
(107.762 0 0)
(105.768 0 0)
(104.402 0 0)
(103.492 0 0)
(102.912 0 0)
(102.576 0 0)
(102.424 0 0)
(102.412 0 0)
(102.51 0 0)
(102.695 0 0)
(102.95 0 0)
(103.263 0 0)
(103.624 0 0)
(104.025 0 0)
(104.46 0 0)
(104.923 0 0)
(105.411 0 0)
(105.921 0 0)
(106.449 0 0)
(106.992 0 0)
(107.55 0 0)
(108.12 0 0)
(108.701 0 0)
(109.291 0 0)
(109.888 0 0)
(110.493 0 0)
(111.104 0 0)
(111.721 0 0)
(112.342 0 0)
(112.966 0 0)
(113.594 0 0)
(114.225 0 0)
(114.858 0 0)
(115.493 0 0)
(116.13 0 0)
(116.767 0 0)
(117.407 0 0)
(118.04 0 0)
(118.697 0 0)
(119.28 0 0)
(120.093 0 0)
(241.938 0 0)
(240.476 0 0)
(238.974 0 0)
(237.432 0 0)
(235.847 0 0)
(234.216 0 0)
(232.537 0 0)
(230.809 0 0)
(229.028 0 0)
(227.191 0 0)
(225.294 0 0)
(223.334 0 0)
(221.307 0 0)
(219.208 0 0)
(217.031 0 0)
(214.77 0 0)
(212.418 0 0)
(209.966 0 0)
(207.405 0 0)
(204.724 0 0)
(201.907 0 0)
(198.938 0 0)
(195.797 0 0)
(192.456 0 0)
(188.882 0 0)
(185.03 0 0)
(180.841 0 0)
(176.224 0 0)
(171.049 0 0)
(165.137 0 0)
(158.313 0 0)
(150.548 0 0)
(142.123 0 0)
(133.655 0 0)
(125.879 0 0)
(119.328 0 0)
(114.192 0 0)
(110.369 0 0)
(107.619 0 0)
(105.688 0 0)
(104.358 0 0)
(103.464 0 0)
(102.89 0 0)
(102.553 0 0)
(102.394 0 0)
(102.371 0 0)
(102.456 0 0)
(102.627 0 0)
(102.867 0 0)
(103.163 0 0)
(103.507 0 0)
(103.89 0 0)
(104.308 0 0)
(104.753 0 0)
(105.223 0 0)
(105.715 0 0)
(106.225 0 0)
(106.75 0 0)
(107.29 0 0)
(107.842 0 0)
(108.404 0 0)
(108.976 0 0)
(109.555 0 0)
(110.142 0 0)
(110.735 0 0)
(111.333 0 0)
(111.936 0 0)
(112.543 0 0)
(113.153 0 0)
(113.766 0 0)
(114.381 0 0)
(114.999 0 0)
(115.617 0 0)
(116.237 0 0)
(116.859 0 0)
(117.475 0 0)
(118.113 0 0)
(118.68 0 0)
(119.469 0 0)
(240.602 0 0)
(239.146 0 0)
(237.652 0 0)
(236.116 0 0)
(234.538 0 0)
(232.914 0 0)
(231.243 0 0)
(229.522 0 0)
(227.749 0 0)
(225.92 0 0)
(224.031 0 0)
(222.08 0 0)
(220.061 0 0)
(217.97 0 0)
(215.801 0 0)
(213.548 0 0)
(211.205 0 0)
(208.761 0 0)
(206.208 0 0)
(203.533 0 0)
(200.723 0 0)
(197.76 0 0)
(194.623 0 0)
(191.285 0 0)
(187.711 0 0)
(183.856 0 0)
(179.657 0 0)
(175.022 0 0)
(169.816 0 0)
(163.864 0 0)
(157.007 0 0)
(149.251 0 0)
(140.915 0 0)
(132.623 0 0)
(125.075 0 0)
(118.756 0 0)
(113.814 0 0)
(110.135 0 0)
(107.482 0 0)
(105.611 0 0)
(104.315 0 0)
(103.438 0 0)
(102.87 0 0)
(102.531 0 0)
(102.365 0 0)
(102.333 0 0)
(102.405 0 0)
(102.562 0 0)
(102.787 0 0)
(103.068 0 0)
(103.395 0 0)
(103.762 0 0)
(104.162 0 0)
(104.591 0 0)
(105.043 0 0)
(105.517 0 0)
(106.01 0 0)
(106.518 0 0)
(107.04 0 0)
(107.574 0 0)
(108.118 0 0)
(108.672 0 0)
(109.235 0 0)
(109.804 0 0)
(110.379 0 0)
(110.96 0 0)
(111.545 0 0)
(112.134 0 0)
(112.727 0 0)
(113.323 0 0)
(113.921 0 0)
(114.52 0 0)
(115.122 0 0)
(115.724 0 0)
(116.329 0 0)
(116.927 0 0)
(117.547 0 0)
(118.1 0 0)
(118.865 0 0)
(239.278 0 0)
(237.829 0 0)
(236.342 0 0)
(234.813 0 0)
(233.242 0 0)
(231.626 0 0)
(229.962 0 0)
(228.249 0 0)
(226.483 0 0)
(224.662 0 0)
(222.781 0 0)
(220.838 0 0)
(218.827 0 0)
(216.745 0 0)
(214.584 0 0)
(212.34 0 0)
(210.004 0 0)
(207.568 0 0)
(205.022 0 0)
(202.355 0 0)
(199.551 0 0)
(196.593 0 0)
(193.46 0 0)
(190.124 0 0)
(186.549 0 0)
(182.689 0 0)
(178.479 0 0)
(173.823 0 0)
(168.585 0 0)
(162.592 0 0)
(155.705 0 0)
(147.967 0 0)
(139.729 0 0)
(131.618 0 0)
(124.298 0 0)
(118.205 0 0)
(113.451 0 0)
(109.909 0 0)
(107.349 0 0)
(105.536 0 0)
(104.273 0 0)
(103.414 0 0)
(102.851 0 0)
(102.511 0 0)
(102.338 0 0)
(102.297 0 0)
(102.358 0 0)
(102.501 0 0)
(102.712 0 0)
(102.977 0 0)
(103.289 0 0)
(103.64 0 0)
(104.023 0 0)
(104.435 0 0)
(104.871 0 0)
(105.328 0 0)
(105.803 0 0)
(106.294 0 0)
(106.799 0 0)
(107.316 0 0)
(107.844 0 0)
(108.38 0 0)
(108.925 0 0)
(109.478 0 0)
(110.036 0 0)
(110.599 0 0)
(111.168 0 0)
(111.74 0 0)
(112.316 0 0)
(112.894 0 0)
(113.475 0 0)
(114.058 0 0)
(114.643 0 0)
(115.228 0 0)
(115.816 0 0)
(116.398 0 0)
(117.001 0 0)
(117.539 0 0)
(118.28 0 0)
(237.967 0 0)
(236.525 0 0)
(235.044 0 0)
(233.523 0 0)
(231.959 0 0)
(230.35 0 0)
(228.694 0 0)
(226.989 0 0)
(225.231 0 0)
(223.417 0 0)
(221.545 0 0)
(219.61 0 0)
(217.607 0 0)
(215.532 0 0)
(213.38 0 0)
(211.144 0 0)
(208.815 0 0)
(206.387 0 0)
(203.849 0 0)
(201.188 0 0)
(198.39 0 0)
(195.437 0 0)
(192.307 0 0)
(188.972 0 0)
(185.395 0 0)
(181.529 0 0)
(177.306 0 0)
(172.628 0 0)
(167.355 0 0)
(161.322 0 0)
(154.41 0 0)
(146.697 0 0)
(138.566 0 0)
(130.64 0 0)
(123.547 0 0)
(117.674 0 0)
(113.101 0 0)
(109.692 0 0)
(107.221 0 0)
(105.463 0 0)
(104.233 0 0)
(103.39 0 0)
(102.833 0 0)
(102.492 0 0)
(102.314 0 0)
(102.263 0 0)
(102.313 0 0)
(102.444 0 0)
(102.641 0 0)
(102.892 0 0)
(103.188 0 0)
(103.523 0 0)
(103.891 0 0)
(104.286 0 0)
(104.706 0 0)
(105.147 0 0)
(105.605 0 0)
(106.08 0 0)
(106.568 0 0)
(107.068 0 0)
(107.579 0 0)
(108.099 0 0)
(108.628 0 0)
(109.163 0 0)
(109.705 0 0)
(110.252 0 0)
(110.804 0 0)
(111.36 0 0)
(111.919 0 0)
(112.481 0 0)
(113.045 0 0)
(113.612 0 0)
(114.18 0 0)
(114.749 0 0)
(115.32 0 0)
(115.886 0 0)
(116.472 0 0)
(116.996 0 0)
(117.715 0 0)
(236.669 0 0)
(235.234 0 0)
(233.76 0 0)
(232.246 0 0)
(230.69 0 0)
(229.088 0 0)
(227.44 0 0)
(225.742 0 0)
(223.992 0 0)
(222.186 0 0)
(220.322 0 0)
(218.395 0 0)
(216.4 0 0)
(214.333 0 0)
(212.189 0 0)
(209.96 0 0)
(207.64 0 0)
(205.219 0 0)
(202.687 0 0)
(200.032 0 0)
(197.24 0 0)
(194.291 0 0)
(191.164 0 0)
(187.829 0 0)
(184.25 0 0)
(180.376 0 0)
(176.138 0 0)
(171.436 0 0)
(166.127 0 0)
(160.054 0 0)
(153.122 0 0)
(145.443 0 0)
(137.427 0 0)
(129.69 0 0)
(122.822 0 0)
(117.163 0 0)
(112.765 0 0)
(109.483 0 0)
(107.098 0 0)
(105.394 0 0)
(104.194 0 0)
(103.367 0 0)