/*--------------------------------*- C++ -*----------------------------------*\
| =========                 |                                                 |
| \\      /  F ield         | OpenFOAM: The Open Source CFD Toolbox           |
|  \\    /   O peration     | Version:  2312                                  |
|   \\  /    A nd           | Website:  www.openfoam.com                      |
|    \\/     M anipulation  |                                                 |
\*---------------------------------------------------------------------------*/
FoamFile
{
    version     2.0;
    format      ascii;
    arch        "LSB;label=32;scalar=64";
    class       surfaceScalarField;
    location    "0.581";
    object      phi;
}
// * * * * * * * * * * * * * * * * * * * * * * * * * * * * * * * * * * * * * //

dimensions      [0 3 -1 0 0 0 0];

oriented        oriented;

internalField   nonuniform List<scalar> 
62015
(
88.7785
0.173184
-88.795
88.7536
0.16991
88.7204
0.166536
88.6793
0.163066
88.6304
0.159502
88.5739
0.155847
88.51
0.152103
88.4388
0.148274
88.3606
0.144362
88.2754
0.14037
88.1833
0.136301
88.0844
0.132158
87.9788
0.127945
87.8666
0.123664
87.7478
0.119318
87.6224
0.11491
87.4904
0.110445
87.3518
0.105926
87.2067
0.101354
87.0548
0.0967345
86.8962
0.0920707
86.7308
0.0873655
86.5584
0.0826229
86.379
0.0778465
86.1923
0.0730397
85.9981
0.0682067
85.7963
0.0633506
85.5866
0.058476
85.3687
0.0535864
85.1423
0.0486857
84.907
0.0437777
84.6624
0.0388671
84.4081
0.0339582
84.1436
0.0290541
83.8684
0.0241607
83.5818
0.019281
83.2832
0.0144205
82.9718
0.00958385
82.6467
0.00477503
82.307
0
81.9518
-0.00473658
81.5796
-0.00942986
81.1893
-0.0140733
80.7793
-0.018662
80.3479
-0.0231898
79.893
-0.0276496
79.4124
-0.0320356
78.9033
-0.0363394
78.3626
-0.0405539
77.7863
-0.0446703
77.1695
-0.0486784
76.5083
-0.052567
75.7981
-0.0563252
75.021
-0.0599412
74.1387
-0.0633882
73.1632
-0.0666166
72.2742
-0.0696232
71.5424
-0.072603
69.7997
-0.0756572
64.283
-0.0773405
54.1208
-0.0739214
43.2679
-0.0639985
36.055
-0.0529161
32.7595
-0.0462524
31.611
-0.0440973
31.335
-0.044319
31.3844
-0.0455061
31.5602
-0.0470627
31.7916
-0.0487684
32.052
-0.0505424
32.3304
-0.0523532
32.6217
-0.0541866
32.9229
-0.0560363
33.233
-0.0578968
33.5488
-0.0597685
33.8754
-0.0616388
34.1942
-0.0635371
34.56
-0.0653633
-0.0674236
34.8031
86.2619
0.341764
-86.2942
86.2223
0.335242
86.1755
0.32853
86.1217
0.321633
86.0612
0.314555
85.994
0.307302
85.9204
0.299879
85.8404
0.292292
85.7541
0.284545
85.6618
0.276645
85.5635
0.268598
85.4591
0.260408
85.349
0.252082
85.2329
0.243626
85.1111
0.235045
84.9835
0.226348
84.8501
0.217538
84.711
0.208622
84.566
0.199608
84.4151
0.190502
84.2582
0.181309
84.0954
0.172038
83.9264
0.162695
83.7511
0.153286
83.5694
0.14382
83.3811
0.134302
83.186
0.124741
82.9839
0.115143
82.7745
0.105517
82.5576
0.0958692
82.3327
0.0862079
82.0997
0.0765411
81.858
0.0668764
81.6072
0.0572229
81.3468
0.0475878
81.0763
0.0379802
80.7951
0.0284085
80.5026
0.0188816
80.1978
0.00940911
79.8802
0
79.5486
-0.00933599
79.2021
-0.0185888
78.8395
-0.0277484
78.4595
-0.0368035
78.0605
-0.0457428
77.6409
-0.0545547
77.1987
-0.0632259
76.7317
-0.0717439
76.2371
-0.0800933
75.7119
-0.088259
75.1518
-0.0962228
74.5525
-0.103966
73.9106
-0.111465
73.2203
-0.118701
72.4583
-0.125644
71.5891
-0.132232
70.6595
-0.13836
69.8774
-0.14411
69.1445
-0.149978
66.8612
-0.155756
60.322
-0.157173
49.7991
-0.146411
39.857
-0.123963
33.896
-0.102839
31.3689
-0.0918069
30.5426
-0.0889212
30.3804
-0.0899324
30.465
-0.0924713
30.6474
-0.0955928
30.8742
-0.0989525
31.1252
-0.102424
31.3917
-0.105955
31.6696
-0.109525
31.957
-0.11312
32.2507
-0.116738
32.5552
-0.120354
32.8531
-0.124024
33.1949
-0.127559
-0.131532
33.4251
83.8064
0.505796
-83.8528
83.7537
0.496061
83.6947
0.486051
83.6297
0.475774
83.5587
0.465237
83.482
0.454447
83.3996
0.443412
83.3117
0.43214
83.2184
0.420639
83.1197
0.408916
83.0158
0.39698
82.9067
0.384839
82.7925
0.372501
82.6731
0.359976
82.5487
0.347271
82.4192
0.334396
82.2846
0.32136
82.145
0.308172
82.0003
0.294841
81.8504
0.281377
81.6952
0.267789
81.5348
0.254087
81.3689
0.240281
81.1975
0.226381
81.0205
0.212398
80.8376
0.19834
80.6487
0.18422
80.4537
0.170047
80.2521
0.155832
80.0439
0.141587
79.8286
0.127322
79.606
0.113049
79.3758
0.0987797
79.1375
0.0845254
78.8906
0.0702975
78.6348
0.0561091
78.3694
0.0419725
78.0939
0.0278996
77.8076
0.0139044
77.5098
0
77.1996
-0.0137999
76.8762
-0.0274812
76.5384
-0.0410293
76.1853
-0.0544283
75.8154
-0.0676627
75.4273
-0.0807161
75.0193
-0.0935701
74.5895
-0.106207
74.1356
-0.118606
73.655
-0.130745
73.1445
-0.142602
72.6001
-0.15415
72.0176
-0.165359
71.3943
-0.176197
70.7219
-0.186634
69.9717
-0.196621
69.1176
-0.206037
68.2486
-0.214753
67.5733
-0.22306
66.7411
-0.231773
63.7312
-0.239546
56.1858
-0.237728
45.6199
-0.215444
36.7949
-0.179303
32.0083
-0.150325
30.118
-0.137163
29.5436
-0.134635
29.4679
-0.136815
29.5781
-0.140794
29.7637
-0.14546
29.9849
-0.15041
30.2264
-0.155496
30.4812
-0.160658
30.7467
-0.165864
31.0192
-0.171108
31.3024
-0.176353
31.5804
-0.181674
31.8992
-0.186808
-0.192554
32.1165
81.4079
0.665322
-81.4666
81.3438
0.652415
81.2743
0.639155
81.1995
0.625552
81.1195
0.611615
81.0346
0.597355
80.9447
0.58278
80.8501
0.5679
80.7507
0.552726
80.6467
0.537267
80.5381
0.521535
80.425
0.505539
80.3075
0.489291
80.1855
0.472802
80.0591
0.456082
79.9282
0.439144
79.793
0.421999
79.6533
0.404659
79.5092
0.387136
79.3605
0.36944
79.2072
0.351587
79.0493
0.333587
78.8867
0.315454
78.7192
0.297199
78.5467
0.278838
78.3691
0.260381
78.1861
0.241844
77.9977
0.223239
77.8036
0.204581
77.6036
0.185883
77.3974
0.16716
77.1846
0.148427
76.9651
0.129697
76.7384
0.110987
76.5041
0.0923106
76.2619
0.0736843
76.0112
0.0551236
75.7514
0.0366451
75.4821
0.0182648
75.2025
0
74.9119
-0.0181319
74.6096
-0.0361131
74.2946
-0.0539249
73.9659
-0.0715476
73.6224
-0.0889626
73.2628
-0.106147
72.8857
-0.123081
72.4893
-0.139741
72.0719
-0.156101
71.6312
-0.172136
71.1646
-0.187817
70.6688
-0.203113
70.1399
-0.217989
69.5744
-0.232404
68.9695
-0.246318
68.3133
-0.259692
67.5734
-0.272444
66.7407
-0.284384
65.9483
-0.295415
65.3638
-0.306189
64.312
-0.317663
60.4439
-0.326095
52.0458
-0.317301
41.777
-0.280035
34.1567
-0.230712
30.3884
-0.196465
28.9945
-0.182885
28.6073
-0.181383
28.5939
-0.184925
28.7212
-0.190361
28.9071
-0.196524
29.1219
-0.202993
29.3536
-0.209608
29.5975
-0.216303
29.8495
-0.223056
30.1125
-0.229816
30.3714
-0.236674
30.6685
-0.2433
-0.250691
30.8727
79.0649
0.820389
-79.134
78.9911
0.804357
78.9125
0.787901
78.8294
0.771032
78.7419
0.753761
78.6501
0.7361
78.554
0.718059
78.4537
0.699651
78.3494
0.680889
78.241
0.661783
78.1288
0.642348
78.0126
0.622595
77.8925
0.602539
77.7686
0.582191
77.6408
0.561566
77.5092
0.540679
77.3738
0.519541
77.2345
0.498168
77.0914
0.476573
76.9443
0.454773
76.7932
0.432781
76.6381
0.410613
76.4788
0.388284
76.3152
0.365809
76.1473
0.343205
75.9749
0.320486
75.7979
0.29767
75.616
0.274773
75.4291
0.251811
75.237
0.228801
75.0394
0.205761
74.8361
0.182708
74.6267
0.15966
74.411
0.136634
74.1886
0.113649
73.9591
0.0907228
73.7221
0.0678758
73.4771
0.0451262
73.2236
0.0224941
72.961
0
72.6886
-0.0223356
72.4058
-0.0444917
72.1118
-0.0664461
71.8057
-0.0881756
71.4865
-0.109658
71.153
-0.130867
70.8041
-0.151779
70.4384
-0.172366
70.0541
-0.192599
69.6494
-0.212449
69.2222
-0.231883
68.7698
-0.250865
68.2891
-0.269358
67.7762
-0.287316
67.2282
-0.30469
66.6418
-0.321432
66.001
-0.337492
65.2724
-0.352738
64.4706
-0.366914
63.7658
-0.38005
63.2375
-0.393277
61.8531
-0.407259
57.1028
-0.414413
48.1192
-0.394797
38.423
-0.340479
31.9576
-0.279609
29.0072
-0.242329
27.9788
-0.229382
27.7239
-0.229225
27.753
-0.234184
27.8903
-0.241046
28.0741
-0.248638
28.2816
-0.256542
28.5041
-0.264593
28.736
-0.272737
28.9793
-0.280901
29.2198
-0.289185
29.4963
-0.297201
-0.306115
29.6876
76.7769
0.971051
-76.8549
76.6949
0.95195
76.6088
0.932357
76.5188
0.912285
76.425
0.891748
76.3274
0.870759
76.2262
0.849331
76.1215
0.827478
76.0132
0.805213
75.9014
0.782552
75.7863
0.759508
75.6678
0.736097
75.5459
0.712334
75.4208
0.688234
75.2923
0.663812
75.1605
0.639085
75.0255
0.614069
74.8871
0.588781
74.7453
0.563237
74.6001
0.537453
74.4515
0.511448
74.2994
0.485238
74.1436
0.458842
73.9842
0.432278
73.8209
0.405563
73.6537
0.378715
73.4825
0.351755
73.307
0.324701
73.1271
0.297571
72.9427
0.270386
72.7534
0.243165
72.5591
0.215929
72.3595
0.188698
72.1542
0.161492
71.9431
0.134333
71.7257
0.107242
71.5016
0.0802405
71.2705
0.0533514
71.0319
0.0265967
70.7851
0
70.5298
-0.0264152
70.2652
-0.0526249
69.9907
-0.0786034
69.7055
-0.104326
69.4087
-0.129765
69.0994
-0.154894
68.7764
-0.179683
68.4386
-0.204103
68.0846
-0.228121
67.7128
-0.251705
67.3213
-0.274819
66.908
-0.297423
66.4704
-0.319477
66.0052
-0.340934
65.5089
-0.361739
64.9791
-0.381837
64.4115
-0.401174
63.7858
-0.41968
63.0712
-0.437163
62.3102
-0.453317
61.6963
-0.468414
61.1787
-0.484105
59.3809
-0.500098
53.8215
-0.503641
44.5426
-0.469849
35.5799
-0.397795
30.1353
-0.327377
27.8133
-0.288644
27.0471
-0.276853
26.8839
-0.278136
26.941
-0.284487
27.0832
-0.292708
27.263
-0.301652
27.4631
-0.3109
27.6749
-0.320307
27.8991
-0.329761
28.1218
-0.339363
28.3786
-0.348668
-0.358987
28.5574
74.544
1.11737
-74.6293
74.4551
1.09526
74.3628
1.07259
74.2671
1.04939
74.1681
1.02566
74.0659
1.00142
73.9606
0.97668
73.8523
0.951465
73.7409
0.925787
73.6266
0.899661
73.5094
0.873103
73.3893
0.846132
73.2663
0.818764
73.1406
0.791015
73.012
0.762905
72.8805
0.73445
72.7462
0.705669
72.6091
0.676581
72.4691
0.647204
72.3262
0.617558
72.1803
0.587662
72.0313
0.557535
71.8792
0.527197
71.724
0.49667
71.5654
0.465973
71.4035
0.435127
71.238
0.404153
71.0688
0.373072
70.8958
0.341907
70.7187
0.310679
70.5375
0.27941
70.3519
0.248123
70.1616
0.216841
69.9663
0.185586
69.7659
0.154384
69.56
0.123257
69.3482
0.0922307
69.1301
0.0613284
68.9054
0.0305765
68.6736
0
68.4342
-0.0303744
68.1866
-0.0605194
67.9303
-0.090408
67.6645
-0.120011
67.3884
-0.1493
67.1014
-0.178244
66.8024
-0.206812
66.4903
-0.234972
66.164
-0.262687
65.8222
-0.289923
65.4632
-0.316642
65.0852
-0.342801
64.6863
-0.368357
64.2639
-0.393262
63.8147
-0.417462
63.3356
-0.440895
62.8248
-0.463496
62.276
-0.485207
61.6658
-0.505934
60.969
-0.52541
60.2571
-0.543318
59.7293
-0.560287
59.1771
-0.578427
56.9307
-0.595708
50.6992
-0.593227
41.3774
-0.542767
33.2003
-0.453289
28.6106
-0.375109
26.7598
-0.335832
26.1801
-0.325356
26.0799
-0.328041
26.1548
-0.335711
26.2983
-0.345212
26.4732
-0.355415
26.6643
-0.36593
26.8695
-0.376553
27.0748
-0.387361
27.3125
-0.397859
-0.409467
27.4793
72.3659
1.25943
-72.4574
72.2714
1.23437
72.1739
1.20869
72.0736
1.18242
71.9705
1.15557
71.8647
1.12816
71.7562
1.10019
71.6451
1.0717
71.5315
1.0427
71.4153
1.0132
71.2967
0.983224
71.1757
0.95279
71.0522
0.921917
70.9264
0.890625
70.7981
0.858931
70.6675
0.826858
70.5344
0.794423
70.3989
0.761649
70.2609
0.728555
70.1205
0.695163
69.9775
0.661495
69.8319
0.627572
69.6836
0.593416
69.5326
0.55905
69.3788
0.524495
69.222
0.489776
69.0622
0.454915
68.8992
0.419936
68.7329
0.384863
68.5631
0.34972
68.3896
0.314531
68.2123
0.279321
68.0309
0.244116
67.8453
0.208941
67.655
0.173822
67.4599
0.138785
67.2597
0.103857
67.054
0.0690649
66.8425
0.0344365
66.6246
0
66.4001
-0.034216
66.1684
-0.0681822
65.929
-0.101869
65.6812
-0.135245
65.4245
-0.168278
65.1581
-0.200936
64.8811
-0.233186
64.5927
-0.264992
64.2919
-0.296317
63.9774
-0.327124
63.648
-0.357371
63.3022
-0.387016
62.9382
-0.416013
62.554
-0.444311
62.1472
-0.471858
61.7144
-0.498591
61.2532
-0.524441
60.7617
-0.549338
60.232
-0.573219
59.6381
-0.595955
58.9634
-0.617202
58.3055
-0.636676
57.8535
-0.655458
57.2311
-0.675977
54.5477
-0.693682
47.811
-0.683031
38.6326
-0.61439
31.2135
-0.508293
27.3134
-0.423594
25.8113
-0.384109
25.3638
-0.374868
25.3068
-0.37884
25.3924
-0.387732
25.5349
-0.398416
25.703
-0.409803
25.8886
-0.421444
26.0766
-0.433339
26.2958
-0.444927
-0.457711
26.4509
70.2425
1.39729
-70.339
70.1434
1.36935
70.0418
1.34073
69.9378
1.31147
69.8315
1.28158
69.7228
1.25107
69.612
1.21996
69.4989
1.18828
69.3837
1.15604
69.2664
1.12326
69.147
1.08996
69.0256
1.05616
68.9021
1.02188
68.7766
0.987147
68.6492
0.951976
68.5197
0.91639
68.3881
0.880411
68.2546
0.844062
68.1189
0.807365
67.9812
0.770343
67.8413
0.73302
67.6992
0.695418
67.5548
0.657563
67.4081
0.619478
67.259
0.581188
67.1074
0.542718
66.9532
0.504093
66.7963
0.46534
66.6365
0.426483
66.4737
0.387548
66.3077
0.348564
66.1384
0.309556
65.9655
0.270552
65.789
0.231579
65.6084
0.192665
65.4236
0.15384
65.2344
0.115131
65.0403
0.0765683
64.8411
0.0381811
64.6364
0
64.4259
-0.0379443
64.209
-0.0756203
63.9853
-0.112996
63.7544
-0.150038
63.5155
-0.186713
63.2682
-0.222986
63.0116
-0.258822
62.745
-0.294183
62.4675
-0.329031
62.1781
-0.363326
61.8757
-0.397026
61.5591
-0.430085
61.2267
-0.462457
60.8769
-0.494092
60.5077
-0.524933
60.1168
-0.554923
59.7009
-0.583992
59.258
-0.612062
58.7862
-0.639062
58.2759
-0.66492
57.6996
-0.68947
57.0505
-0.712287
56.4483
-0.733174
56.0591
-0.75372
55.3474
-0.77648
52.2789
-0.793759
45.2058
-0.773348
36.2877
-0.685918
29.5491
-0.564054
26.1894
-0.473404
24.9428
-0.433577
24.5888
-0.425326
24.5608
-0.430422
24.6524
-0.440417
24.7913
-0.452202
24.9554
-0.464628
25.1257
-0.477461
25.3265
-0.490031
-0.503874
25.4702
68.1733
1.53105
-68.2739
68.0706
1.50029
67.9658
1.4688
67.859
1.43662
67.7502
1.40376
67.6395
1.37024
67.5269
1.33607
67.4125
1.30128
67.2964
1.26589
67.1785
1.22992
67.0588
1.19339
66.9375
1.15633
66.8145
1.11874
66.6898
1.08067
66.5635
1.04212
66.4354
1.00313
66.3057
0.963714
66.1744
0.923899
66.0412
0.883709
65.9064
0.843169
65.7697
0.802304
65.6312
0.761139
65.4909
0.719701
65.3485
0.678014
65.2041
0.636107
65.0576
0.594006
64.9089
0.551737
64.7579
0.509328
64.6044
0.466807
64.4484
0.424203
64.2896
0.381543
64.128
0.338857
63.9633
0.296173
63.7954
0.253521
63.6241
0.210933
63.4491
0.168437
63.2702
0.126063
63.0871
0.0838453
62.8995
0.0418132
62.7072
0
62.5097
-0.0415619
62.3067
-0.0828395
62.0977
-0.123798
61.8824
-0.164403
61.6601
-0.20462
61.4304
-0.244411
61.1926
-0.283738
60.9461
-0.322565
60.6901
-0.360849
60.4237
-0.39855
60.1459
-0.435625
59.8558
-0.472027
59.5521
-0.507708
59.2333
-0.542617
58.898
-0.576699
58.5441
-0.609895
58.1693
-0.642139
57.7706
-0.673358
57.3463
-0.703465
56.8946
-0.732387
56.4041
-0.760047
55.847
-0.78623
55.2263
-0.810444
54.6779
-0.832613
54.3391
-0.854857
53.5383
-0.879675
50.1665
-0.895862
42.9102
-0.864867
34.3082
-0.758774
28.1469
-0.621726
25.199
-0.524976
24.137
-0.484284
23.8483
-0.476658
23.8398
-0.482673
23.933
-0.493659
24.07
-0.50639
24.2208
-0.519927
24.4031
-0.533336
-0.548112
24.5354
66.158
1.66078
-66.2617
66.0525
1.62727
65.9453
1.59299
65.8363
1.55797
65.7258
1.52222
65.6137
1.48576
65.5
1.44861
65.3849
1.41081
65.2683
1.37236
65.1502
1.33329
65.0308
1.29362
64.91
1.25338
64.7878
1.21259
64.6643
1.17127
64.5394
1.12945
64.4132
1.08716
64.2856
1.04441
64.1566
1.00124
64.0262
0.957661
63.8943
0.913712
63.761
0.869416
63.6262
0.8248
63.4898
0.779891
63.3518
0.734718
63.2121
0.689308
63.0707
0.64369
62.9273
0.597892
62.7821
0.551945
62.6347
0.505877
62.4852
0.459719
62.3334
0.4135
62.1792
0.367252
62.0223
0.321006
61.8627
0.274791
61.7001
0.228642
61.5344
0.182589
61.3653
0.136664
61.1925
0.090903
61.0159
0.0453367
60.8351
0
60.6499
-0.0450727
60.4598
-0.0898464
60.2646
-0.134285
60.0638
-0.178353
59.8569
-0.222012
59.6436
-0.265225
59.4232
-0.307953
59.1952
-0.350155
58.9588
-0.391791
58.7135
-0.432817
58.4583
-0.473189
58.1924
-0.51286
57.9147
-0.551781
57.624
-0.589902
57.3191
-0.627167
56.9983
-0.663516
56.6598
-0.698887
56.3013
-0.73321
55.9202
-0.766403
55.5148
-0.798378
55.0832
-0.829056
54.613
-0.858353
54.0769
-0.88601
53.486
-0.911472
52.9871
-0.934807
52.6887
-0.958648
51.8177
-0.98533
48.2436
-1.00011
40.9338
-0.958584
32.6566
-0.834521
26.9588
-0.682419
24.3141
-0.578712
23.3822
-0.536276
23.1383
-0.528786
23.1409
-0.5355
23.236
-0.547285
23.3623
-0.561027
23.5243
-0.575045
-0.590592
23.6449
64.1958
1.78658
-64.302
64.0883
1.75039
63.9793
1.71339
63.8689
1.67559
63.7572
1.63703
63.6443
1.59772
63.5301
1.55768
63.4147
1.51694
63.2981
1.47552
63.1804
1.43344
63.0616
1.39073
62.9417
1.34741
62.8207
1.30351
62.6986
1.25904
62.5754
1.21405
62.4512
1.16855
62.3259
1.12258
62.1994
1.07615
62.0719
1.02929
61.9432
0.982041
61.8133
0.934422
61.6822
0.886464
61.5499
0.838195
61.4162
0.789645
61.2811
0.740843
61.1446
0.691821
61.0066
0.642607
60.8669
0.593234
60.7255
0.543732
60.5824
0.494133
60.4372
0.444469
60.2901
0.394771
60.1407
0.345074
59.9889
0.295409
59.8347
0.245809
59.6777
0.19631
59.5178
0.146945
59.3549
0.0977477
59.1886
0.0487543
59.0187
0
58.8449
-0.0484792
58.6669
-0.0966467
58.4845
-0.144465
58.2972
-0.191897
58.1046
-0.238904
57.9065
-0.285446
57.7021
-0.331483
57.4912
-0.376974
57.273
-0.421876
57.047
-0.466146
56.8124
-0.509738
56.5686
-0.552605
56.3145
-0.594698
56.0493
-0.635965
55.7718
-0.676351
55.4807
-0.715799
55.1745
-0.754245
54.8516
-0.791624
54.5096
-0.827859
54.1461
-0.862864
53.7598
-0.896547
53.3486
-0.928828
52.8994
-0.959615
52.3857
-0.988605
51.8247
-1.01519
51.3691
-1.03958
51.1048
-1.06487
50.1976
-1.09325
46.5321
-1.10675
39.2747
-1.05568
31.2988
-0.914815
25.9496
-0.747281
23.5155
-0.635056
22.6708
-0.589624
22.4549
-0.581672
22.4655
-0.588752
22.5532
-0.601355
22.6903
-0.615463
-0.631517
22.7978
62.2862
1.90853
-62.394
62.1772
1.86973
62.067
1.83008
61.9558
1.7896
61.8435
1.7483
61.7302
1.70622
61.6159
1.66337
61.5007
1.61977
61.3846
1.57547
61.2676
1.53047
61.1497
1.4848
61.031
1.43849
60.9115
1.39157
60.7911
1.34406
60.6699
1.29599
60.5479
1.24739
60.425
1.19829
60.3013
1.1487
60.1767
1.09867
60.0512
1.04822
59.9249
0.997386
59.7975
0.946192
59.6692
0.894669
59.5398
0.84285
59.4093
0.790766
59.2776
0.738447
59.1448
0.685927
59.0106
0.633237
58.875
0.58041
58.7379
0.52748
58.5992
0.474479
58.4588
0.421442
58.3165
0.368402
58.1723
0.315394
58.0259
0.262453
57.8773
0.209614
57.7262
0.156913
57.5724
0.104386
57.4158
0.0520694
57.2561
0
57.0931
-0.0517847
56.9264
-0.103247
56.7559
-0.154348
56.5812
-0.205048
56.402
-0.255309
56.2178
-0.305089
56.0284
-0.354346
55.8331
-0.40304
55.6317
-0.451126
55.4234
-0.498559
55.2077
-0.545294
54.984
-0.591283
54.7515
-0.636477
54.5094
-0.680824
54.2567
-0.72427
53.9923
-0.766757
53.7151
-0.808224
53.4237
-0.848607
53.1163
-0.887834
52.7909
-0.925827
52.4451
-0.962495
52.0779
-0.997739
51.6872
-1.03148
51.2597
-1.06363
50.7697
-1.09383
50.238
-1.12144
49.8183
-1.14676
49.5846
-1.17332
48.6854
-1.20326
45.0423
-1.2161
37.9245
-1.15742
30.2075
-1.00139
25.095
-0.817609
22.7911
-0.694583
21.9971
-0.644495
21.7982
-0.635237
21.8058
-0.642516
21.9044
-0.655237
-0.671204
21.9949
60.4283
2.02673
-60.5372
60.3184
1.9854
60.2076
1.94317
60.096
1.90007
59.9835
1.85611
59.8703
1.81133
59.7564
1.76575
59.6418
1.7194
59.5264
1.67229
59.4105
1.62446
59.2939
1.57592
59.1766
1.52672
59.0588
1.47687
58.9403
1.42641
58.8213
1.37536
58.7016
1.32375
58.5814
1.27161
58.4605
1.21898
58.339
1.16587
58.2168
1.11232
58.0939
1.05837
57.9703
1.00404
57.846
0.949372
57.7209
0.894388
57.5949
0.839125
57.468
0.783616
57.3401
0.727894
57.2112
0.671993
57.0812
0.615948
56.95
0.559792
56.8175
0.503561
56.6835
0.447289
56.5481
0.391012
56.411
0.334766
56.2722
0.278588
56.1314
0.222514
55.9886
0.16658
55.8435
0.110824
55.696
0.0552851
55.5459
0
55.3929
-0.0549921
55.2369
-0.109652
55.0775
-0.16394
54.9145
-0.217816
54.7476
-0.27124
54.5765
-0.324168
54.4008
-0.37656
54.2201
-0.428371
54.034
-0.479558
53.8421
-0.530076
53.6437
-0.579878
53.4384
-0.628917
53.2255
-0.677141
53.0043
-0.724501
52.7741
-0.770942
52.5339
-0.816408
52.2827
-0.860839
52.0193
-0.904172
51.7426
-0.946339
51.4508
-0.987266
51.142
-1.02687
50.8139
-1.06506
50.4658
-1.10174
50.0956
-1.13681
49.6904
-1.17019
49.2254
-1.20151
48.7214
-1.23006
48.3297
-1.25621
48.1247
-1.28379
47.2812
-1.31518
43.7732
-1.32843
36.8718
-1.26497
29.3643
-1.09605
24.381
-0.894955
22.1333
-0.758133
21.36
-0.701107
21.1611
-0.689676
21.1789
-0.696218
-0.71035
21.2409
58.6212
2.14127
-58.7308
58.5109
2.09747
58.4
2.05274
58.2884
2.00709
58.1763
1.96056
58.0636
1.91317
57.9503
1.86494
57.8366
1.8159
57.7224
1.76607
57.6077
1.71549
57.4926
1.66418
57.3771
1.61217
57.2611
1.55949
57.1448
1.50616
57.028
1.45223
56.9109
1.3977
56.7934
1.34263
56.6754
1.28704
56.557
1.23095
56.4381
1.17441
56.3188
1.11744
56.199
1.06008
56.0786
1.00236
55.9577
0.944309
55.8361
0.88597
55.7139
0.827372
55.5909
0.768551
55.4671
0.709543
55.3425
0.650381
55.2169
0.591103
55.0904
0.531743
54.9626
0.472339
54.8337
0.412928
54.7034
0.353546
54.5717
0.294231
54.4384
0.235021
54.3034
0.175954
54.1666
0.117069
54.0276
0.0584044
53.8865
0
53.743
-0.0581044
53.5968
-0.115869
53.4478
-0.173252
53.2958
-0.230213
53.1404
-0.28671
52.9813
-0.3427
52.8183
-0.39814
52.6511
-0.452987
52.4792
-0.507195
52.3022
-0.560719
52.1197
-0.613512
51.9313
-0.665526
51.7363
-0.716711
51.5342
-0.767015
51.3243
-0.816387
51.1059
-0.86477
50.8781
-0.912106
50.6399
-0.958333
50.3904
-1.00339
50.1283
-1.04719
49.852
-1.08968
49.5597
-1.13077
49.2493
-1.17035
48.9201
-1.20833
48.5704
-1.24462
48.1881
-1.27913
47.749
-1.31147
47.2712
-1.34091
46.8995
-1.36777
46.7208
-1.3961
45.9778
-1.42881
42.7128
-1.44385
36.1032
-1.37929
28.7602
-1.20063
23.8029
-0.981268
21.5419
-0.826854
20.7535
-0.760091
20.5571
-0.744621
-0.751043
20.5544
56.8642
2.25224
-56.9739
56.7539
2.20604
56.6432
2.15888
56.5321
2.11077
56.4206
2.06173
56.3087
2.0118
56.1964
1.961
56.0839
1.90936
55.971
1.85691
55.8579
1.80366
55.7445
1.74966
55.6309
1.69493
55.517
1.6395
55.403
1.5834
55.2887
1.52667
55.1741
1.46933
55.0594
1.41141
54.9444
1.35295
54.8292
1.29398
54.7137
1.23454
54.5979
1.17465
54.4818
1.11435
54.3654
1.05368
54.2485
0.992665
54.1313
0.931348
54.0136
0.869761
53.8954
0.807941
53.7766
0.745923
53.6572
0.683745
53.5371
0.621443
53.4162
0.559055
53.2944
0.496618
53.1717
0.43417
53.0479
0.37175
52.9229
0.309396
52.7967
0.247148
52.6691
0.185044
52.54
0.123125
52.4091
0.06143
52.2764
0
52.1417
-0.0611242
52.0048
-0.121901
51.8656
-0.18229
51.7237
-0.242247
51.5789
-0.301731
51.4311
-0.360698
51.2799
-0.419104
51.1251
-0.476904
50.9662
-0.534054
50.803
-0.590508
50.6352
-0.646217
50.4621
-0.701133
50.2835
-0.755208
50.0988
-0.808391
49.9074
-0.860628
49.7087
-0.911864
49.502
-0.962044
49.2865
-1.01111
49.0613
-1.05899
48.8255
-1.10563
48.5778
-1.15094
48.3169
-1.19486
48.041
-1.2373
47.7482
-1.27816
47.4377
-1.31733
47.1084
-1.35474
46.7493
-1.39027
46.3369
-1.42358
45.8841
-1.45386
45.525
-1.48134
45.3673
-1.51009
44.7598
-1.54392
41.8373
-1.5622
35.6038
-1.50087
28.3949
-1.31689
23.3672
-1.07889
21.0156
-0.902652
20.1866
-0.821869
-0.80058
20.0023
55.1562
2.35973
-55.2656
55.0464
2.31121
54.9363
2.26169
54.8259
2.21119
54.7153
2.15972
54.6045
2.10733
54.4935
2.05404
54.3824
1.99988
54.2711
1.94487
54.1598
1.88905
54.0483
1.83244
53.9367
1.77507
53.8251
1.71698
53.7134
1.6582
53.6017
1.59876
53.4898
1.53868
53.378
1.47801
53.266
1.41678
53.154
1.35502
53.0418
1.29277
52.9296
1.23005
52.8172
1.16692
52.7046
1.10339
52.5918
1.0395
52.4788
0.975305
52.3656
0.910825
52.252
0.846101
52.138
0.781171
52.0236
0.716072
51.9087
0.650843
51.7932
0.585522
51.6772
0.520149
51.5604
0.45476
51.4427
0.389397
51.3242
0.324099
51.2047
0.258907
51.0841
0.193859
50.9622
0.128998
50.839
0.064365
50.7142
0
50.5878
-0.0640544
50.4596
-0.127756
50.3294
-0.191062
50.197
-0.25393
50.0621
-0.316316
49.9247
-0.378177
49.7845
-0.439467
49.6411
-0.500142
49.4943
-0.560156
49.3438
-0.619462
49.1893
-0.678014
49.0304
-0.735762
48.8667
-0.792657
48.6978
-0.848649
48.5232
-0.903685
48.3424
-0.957712
48.1548
-1.01067
47.9597
-1.06251
47.7563
-1.11317
47.544
-1.16257
47.3216
-1.21066
47.0883
-1.25736
46.8426
-1.3026
46.5829
-1.34628
46.3075
-1.3883
46.0155
-1.42856
45.7062
-1.46698
45.3704
-1.50346
44.9856
-1.53766
44.5571
-1.56877
44.2044
-1.5968
44.0588
-1.62567
43.606
-1.66026
41.1119
-1.68296
35.3527
-1.62964
28.2775
-1.44621
23.0875
-1.19078
20.5553
-0.98812
-0.88454
19.8219
53.4963
2.46384
-53.6052
53.3872
2.41307
53.278
2.36126
53.1687
2.30843
53.0593
2.25462
52.9499
2.19985
52.8404
2.14414
52.7309
2.08753
52.6214
2.03005
52.5119
1.97173
52.4025
1.91259
52.2932
1.85268
52.1839
1.79201
52.0747
1.73063
51.9656
1.66856
51.8565
1.60585
51.7475
1.54252
51.6387
1.4786
51.5298
1.41414
51.421
1.34917
51.3123
1.28372
51.2035
1.21783
51.0948
1.15153
50.986
1.08488
50.8771
1.01789
50.7681
0.950605
50.659
0.883071
50.5497
0.815322
50.4401
0.747396
50.3303
0.679333
50.22
0.611173
50.1094
0.542954
49.9982
0.474718
49.8865
0.406504
49.7741
0.338354
49.6609
0.270308
49.5469
0.202408
49.4319
0.134695
49.3158
0.0672117
49.1985
0
49.0799
-0.0668974
48.9597
-0.133437
48.838
-0.199577
48.7144
-0.265271
48.5888
-0.330478
48.4611
-0.395151
48.3309
-0.459246
48.1981
-0.522718
48.0625
-0.585519
47.9237
-0.647604
47.7815
-0.708924
47.6356
-0.769432
47.4856
-0.829079
47.3311
-0.887813
47.1718
-0.945583
47.0072
-1.00234
46.8368
-1.05802
46.6601
-1.11257
46.4764
-1.16594
46.285
-1.21806
46.0853
-1.26886
45.8763
-1.31828
45.657
-1.36625
45.4263
-1.41268
45.1826
-1.4575
44.9243
-1.50059
44.6504
-1.54185
44.3608
-1.58118
44.048
-1.61853
43.6913
-1.65357
43.2877
-1.6855
42.937
-1.71407
42.7909
-1.74279
42.492
-1.77756
40.489
-1.80534
35.3198
-1.76468
28.4245
-1.58909
22.9298
-1.32205
-1.07096
20.7851
51.8836
2.56466
-51.9915
51.7755
2.51171
51.6675
2.45768
51.5594
2.4026
51.4515
2.34651
51.3436
2.28942
51.2357
2.23138
51.1281
2.17241
51.0205
2.11253
50.9131
2.05179
50.8059
1.99021
50.6989
1.92782
50.592
1.86466
50.4854
1.80076
50.3789
1.73616
50.2727
1.67089
50.1667
1.60498
50.0609
1.53847
49.9552
1.47139
49.8498
1.40379
49.7445
1.33569
49.6393
1.26714
49.5343
1.19817
49.4294
1.12882
49.3246
1.05913
49.2198
0.989143
49.115
0.918889
49.0102
0.84841
48.9053
0.777748
48.8002
0.706941
48.695
0.636031
48.5895
0.565058
48.4837
0.494063
48.3776
0.423088
48.271
0.352174
48.1638
0.281363
48.056
0.210697
47.9475
0.14022
47.8382
0.069973
47.7279
0
47.6165
-0.0696557
47.504
-0.138951
47.3901
-0.20784
47.2748
-0.276281
47.1578
-0.344227
47.039
-0.411634
46.9182
-0.478456
46.7953
-0.544648
46.6699
-0.610162
46.5419
-0.674952
46.411
-0.73897
46.277
-0.802168
46.1395
-0.864497
45.9982
-0.925906
45.8529
-0.986344
45.703
-1.04576
45.5482
-1.1041
45.3881
-1.16131
45.222
-1.21733
45.0496
-1.2721
44.87
-1.32556
44.6826
-1.37764
44.4866
-1.42829
44.2812
-1.47741
44.0651
-1.52494
43.8372
-1.57078
43.5956
-1.61485
43.3396
-1.65702
43.0691
-1.6972
42.7789
-1.73533
42.4504
-1.77117
42.073
-1.80392
41.7231
-1.83306
41.5622
-1.86144
41.3949
-1.89566
39.9068
-1.92857
35.4903
-1.9026
28.6159
-1.75407
-1.42566
24.5781
50.3169
2.66228
-50.4238
50.2101
2.60721
50.1035
2.55103
49.9969
2.49378
49.8906
2.43548
49.7844
2.37616
49.6784
2.31585
49.5727
2.25458
49.4672
2.19239
49.362
2.1293
49.2571
2.06535
49.1524
2.00058
49.0481
1.935
48.9441
1.86867
48.8404
1.80161
48.737
1.73386
48.6339
1.66546
48.5312
1.59644
48.4287
1.52683
48.3266
1.45668
48.2247
1.38603
48.1231
1.3149
48.0217
1.24334
47.9206
1.17139
47.8197
1.09909
47.719
1.02648
47.6184
0.95359
47.5179
0.88047
47.4175
0.807158
47.3171
0.733695
47.2166
0.660122
47.1161
0.586482
47.0155
0.512815
46.9146
0.439165
46.8135
0.365573
46.712
0.292082
46.6101
0.218736
46.5077
0.145578
46.4047
0.0726516
46.301
0
46.1965
-0.0723322
46.091
-0.144301
45.9846
-0.215861
45.8769
-0.286968
45.7679
-0.357576
45.6575
-0.427639
45.5454
-0.497113
45.4315
-0.56595
45.3156
-0.634104
45.1976
-0.701527
45.0771
-0.768172
44.954
-0.833991
44.828
-0.898933
44.6988
-0.962951
44.5661
-1.02599
44.4297
-1.08801
44.289
-1.14894
44.1439
-1.20874
43.9938
-1.26735
43.8383
-1.32472
43.6767
-1.38077
43.5087
-1.43546
43.3334
-1.48872
43.1502
-1.54047
42.9583
-1.59065
42.7566
-1.63917
42.544
-1.68596
42.3189
-1.73091
42.0803
-1.77391
41.8282
-1.81487
41.5597
-1.85373
41.2591
-1.89029
40.9101
-1.92386
40.5625
-1.95369
40.3784
-1.98149
40.2763
-2.0155
39.4205
-2.04689
35.2141
-2.06326
-1.84393
31.4814
48.7953
2.75679
-48.9008
48.69
2.69967
48.585
2.64141
48.4801
2.58205
48.3755
2.52161
48.2712
2.46012
48.1672
2.39762
48.0636
2.33414
47.9603
2.2697
47.8573
2.20435
47.7548
2.13811
47.6526
2.07102
47.5508
2.00311
47.4495
1.93443
47.3485
1.86499
47.248
1.79485
47.1479
1.72403
47.0482
1.65257
46.9489
1.58052
46.85
1.50791
46.7515
1.43477
46.6534
1.36116
46.5556
1.28709
46.4582
1.21263
46.3611
1.1378
46.2643
1.06265
46.1677
0.98721
46.0714
0.911533
45.9753
0.835656
45.8793
0.759621
45.7835
0.683471
45.6877
0.607246
45.592
0.530992
45.4961
0.45475
45.4002
0.378564
45.3042
0.302476
45.2078
0.226533
45.1112
0.150775
45.0141
0.0752497
44.9166
0
44.8185
-0.0749291
44.7197
-0.149493
44.6201
-0.223645
44.5196
-0.297341
44.4181
-0.370535
44.3154
-0.44318
44.2114
-0.515231
44.1059
-0.586641
43.9988
-0.657362
43.8899
-0.727348
43.779
-0.796551
43.6659
-0.864922
43.5504
-0.932412
43.4323
-0.998973
43.3112
-1.06455
43.187
-1.1291
43.0592
-1.19257
42.9277
-1.2549
42.7919
-1.31604
42.6517
-1.37594
42.5063
-1.43453
42.3556
-1.49177
42.1987
-1.54757
42.0353
-1.60189
41.8645
-1.65466
41.6857
-1.70579
41.498
-1.75522
41.3004
-1.80286
41.0913
-1.84862
40.8697
-1.89238
40.6356
-1.93405
40.3874
-1.97357
40.1142
-2.01078
39.7931
-2.04526
39.466
-2.07534
39.1923
-2.10513
39.3506
-2.12845
38.1849
-2.19294
-2.13242
36.7116
47.3178
2.84829
-47.4218
47.2142
2.78918
47.1108
2.72891
47.0078
2.6675
46.9051
2.60499
46.8028
2.54141
46.7009
2.47679
46.5994
2.41116
46.4984
2.34455
46.3978
2.27701
46.2977
2.20855
46.198
2.13922
46.0988
2.06906
46.0002
1.99809
45.902
1.92636
45.8043
1.85389
45.7071
1.78074
45.6105
1.70694
45.5143
1.63252
45.4186
1.55752
45.3234
1.48199
45.2287
1.40596
45.1345
1.32947
45.0406
1.25257
44.9472
1.1753
44.8542
1.09769
44.7616
1.01978
44.6693
0.941631
44.5773
0.863271
44.4857
0.784746
44.3942
0.706099
44.3029
0.627373
44.2118
0.548612
44.1208
0.469859
44.0299
0.391159
43.9389
0.312555
43.8478
0.234092
43.7566
0.155816
43.6652
0.0777699
43.5735
0
43.4814