/*--------------------------------*- C++ -*----------------------------------*\
| =========                 |                                                 |
| \\      /  F ield         | OpenFOAM: The Open Source CFD Toolbox           |
|  \\    /   O peration     | Version:  2312                                  |
|   \\  /    A nd           | Website:  www.openfoam.com                      |
|    \\/     M anipulation  |                                                 |
\*---------------------------------------------------------------------------*/
FoamFile
{
    version     2.0;
    format      ascii;
    arch        "LSB;label=32;scalar=64";
    class       volVectorField;
    location    "0.983";
    object      U;
}
// * * * * * * * * * * * * * * * * * * * * * * * * * * * * * * * * * * * * * //

dimensions      [0 1 -1 0 0 0 0];

internalField   nonuniform List<vector> 
31205
(
(299.271 0 0)
(299.475 0 0)
(299.641 0 0)
(299.771 0 0)
(299.863 0 0)
(299.917 0 0)
(299.934 0 0)
(299.914 0 0)
(299.856 0 0)
(299.76 0 0)
(299.626 0 0)
(299.454 0 0)
(299.243 0 0)
(298.993 0 0)
(298.704 0 0)
(298.375 0 0)
(298.005 0 0)
(297.594 0 0)
(297.141 0 0)
(296.646 0 0)
(296.108 0 0)
(295.525 0 0)
(294.897 0 0)
(294.223 0 0)
(293.502 0 0)
(292.732 0 0)
(291.912 0 0)
(291.04 0 0)
(290.115 0 0)
(289.135 0 0)
(288.097 0 0)
(287 0 0)
(285.841 0 0)
(284.618 0 0)
(283.326 0 0)
(281.963 0 0)
(280.526 0 0)
(279.008 0 0)
(277.407 0 0)
(275.715 0 0)
(273.927 0 0)
(272.035 0 0)
(270.031 0 0)
(267.905 0 0)
(265.644 0 0)
(263.234 0 0)
(260.656 0 0)
(257.892 0 0)
(254.922 0 0)
(251.689 0 0)
(248.073 0 0)
(244.06 0 0)
(240.099 0 0)
(236.432 0 0)
(229.828 0 0)
(211.786 0 0)
(178.995 0 0)
(144.478 0 0)
(121.948 0 0)
(111.408 0 0)
(107.354 0 0)
(106.066 0 0)
(105.897 0 0)
(106.204 0 0)
(106.736 0 0)
(107.389 0 0)
(108.116 0 0)
(108.893 0 0)
(109.707 0 0)
(110.549 0 0)
(111.413 0 0)
(112.296 0 0)
(113.193 0 0)
(114.102 0 0)
(115.025 0 0)
(115.943 0 0)
(116.914 0 0)
(117.749 0 0)
(119.027 0 0)
(299.459 0 0)
(299.625 0 0)
(299.756 0 0)
(299.851 0 0)
(299.911 0 0)
(299.936 0 0)
(299.925 0 0)
(299.879 0 0)
(299.797 0 0)
(299.678 0 0)
(299.524 0 0)
(299.332 0 0)
(299.104 0 0)
(298.839 0 0)
(298.536 0 0)
(298.194 0 0)
(297.814 0 0)
(297.395 0 0)
(296.936 0 0)
(296.435 0 0)
(295.894 0 0)
(295.31 0 0)
(294.683 0 0)
(294.011 0 0)
(293.294 0 0)
(292.531 0 0)
(291.719 0 0)
(290.858 0 0)
(289.947 0 0)
(288.982 0 0)
(287.962 0 0)
(286.886 0 0)
(285.751 0 0)
(284.553 0 0)
(283.292 0 0)
(281.962 0 0)
(280.561 0 0)
(279.084 0 0)
(277.528 0 0)
(275.887 0 0)
(274.154 0 0)
(272.324 0 0)
(270.389 0 0)
(268.339 0 0)
(266.164 0 0)
(263.851 0 0)
(261.383 0 0)
(258.743 0 0)
(255.912 0 0)
(252.862 0 0)
(249.501 0 0)
(245.72 0 0)
(241.703 0 0)
(238.04 0 0)
(233.872 0 0)
(223.144 0 0)
(197.608 0 0)
(161.695 0 0)
(131.955 0 0)
(115.708 0 0)
(108.867 0 0)
(106.423 0 0)
(105.774 0 0)
(105.86 0 0)
(106.272 0 0)
(106.846 0 0)
(107.513 0 0)
(108.24 0 0)
(109.009 0 0)
(109.81 0 0)
(110.635 0 0)
(111.481 0 0)
(112.343 0 0)
(113.217 0 0)
(114.107 0 0)
(114.992 0 0)
(115.93 0 0)
(116.738 0 0)
(117.97 0 0)
(299.617 0 0)
(299.747 0 0)
(299.843 0 0)
(299.906 0 0)
(299.935 0 0)
(299.931 0 0)
(299.892 0 0)
(299.82 0 0)
(299.714 0 0)
(299.574 0 0)
(299.399 0 0)
(299.189 0 0)
(298.944 0 0)
(298.663 0 0)
(298.346 0 0)
(297.993 0 0)
(297.602 0 0)
(297.174 0 0)
(296.708 0 0)
(296.202 0 0)
(295.657 0 0)
(295.071 0 0)
(294.444 0 0)
(293.774 0 0)
(293.061 0 0)
(292.303 0 0)
(291.499 0 0)
(290.648 0 0)
(289.748 0 0)
(288.797 0 0)
(287.794 0 0)
(286.736 0 0)
(285.622 0 0)
(284.449 0 0)
(283.215 0 0)
(281.915 0 0)
(280.548 0 0)
(279.109 0 0)
(277.594 0 0)
(275.999 0 0)
(274.317 0 0)
(272.544 0 0)
(270.671 0 0)
(268.691 0 0)
(266.594 0 0)
(264.369 0 0)
(262.001 0 0)
(259.473 0 0)
(256.767 0 0)
(253.865 0 0)
(250.714 0 0)
(247.196 0 0)
(243.29 0 0)
(239.443 0 0)
(235.973 0 0)
(229.889 0 0)
(212.733 0 0)
(180.477 0 0)
(145.607 0 0)
(122.431 0 0)
(111.479 0 0)
(107.235 0 0)
(105.853 0 0)
(105.623 0 0)
(105.878 0 0)
(106.359 0 0)
(106.96 0 0)
(107.634 0 0)
(108.357 0 0)
(109.117 0 0)
(109.904 0 0)
(110.712 0 0)
(111.539 0 0)
(112.379 0 0)
(113.236 0 0)
(114.09 0 0)
(114.994 0 0)
(115.777 0 0)
(116.962 0 0)
(299.743 0 0)
(299.838 0 0)
(299.901 0 0)
(299.933 0 0)
(299.933 0 0)
(299.901 0 0)
(299.837 0 0)
(299.741 0 0)
(299.613 0 0)
(299.451 0 0)
(299.257 0 0)
(299.029 0 0)
(298.768 0 0)
(298.472 0 0)
(298.142 0 0)
(297.777 0 0)
(297.377 0 0)
(296.94 0 0)
(296.467 0 0)
(295.956 0 0)
(295.408 0 0)
(294.82 0 0)
(294.192 0 0)
(293.524 0 0)
(292.814 0 0)
(292.061 0 0)
(291.264 0 0)
(290.422 0 0)
(289.532 0 0)
(288.594 0 0)
(287.607 0 0)
(286.567 0 0)
(285.472 0 0)
(284.322 0 0)
(283.113 0 0)
(281.841 0 0)
(280.506 0 0)
(279.101 0 0)
(277.625 0 0)
(276.073 0 0)
(274.438 0 0)
(272.717 0 0)
(270.903 0 0)
(268.987 0 0)
(266.961 0 0)
(264.816 0 0)
(262.539 0 0)
(260.113 0 0)
(257.522 0 0)
(254.75 0 0)
(251.767 0 0)
(248.487 0 0)
(244.801 0 0)
(240.89 0 0)
(237.361 0 0)
(233.454 0 0)
(223.233 0 0)
(198.225 0 0)
(162.365 0 0)
(132.282 0 0)
(115.735 0 0)
(108.743 0 0)
(106.227 0 0)
(105.53 0 0)
(105.572 0 0)
(105.937 0 0)
(106.464 0 0)
(107.081 0 0)
(107.757 0 0)
(108.474 0 0)
(109.222 0 0)
(109.994 0 0)
(110.786 0 0)
(111.592 0 0)
(112.416 0 0)
(113.239 0 0)
(114.111 0 0)
(114.868 0 0)
(116.008 0 0)
(299.836 0 0)
(299.899 0 0)
(299.932 0 0)
(299.935 0 0)
(299.908 0 0)
(299.85 0 0)
(299.762 0 0)
(299.644 0 0)
(299.494 0 0)
(299.313 0 0)
(299.101 0 0)
(298.856 0 0)
(298.58 0 0)
(298.271 0 0)
(297.929 0 0)
(297.553 0 0)
(297.143 0 0)
(296.699 0 0)
(296.219 0 0)
(295.704 0 0)
(295.152 0 0)
(294.563 0 0)
(293.935 0 0)
(293.269 0 0)
(292.562 0 0)
(291.814 0 0)
(291.024 0 0)
(290.19 0 0)
(289.311 0 0)
(288.386 0 0)
(287.413 0 0)
(286.39 0 0)
(285.315 0 0)
(284.186 0 0)
(283 0 0)
(281.756 0 0)
(280.45 0 0)
(279.079 0 0)
(277.64 0 0)
(276.127 0 0)
(274.538 0 0)
(272.866 0 0)
(271.106 0 0)
(269.251 0 0)
(267.293 0 0)
(265.222 0 0)
(263.029 0 0)
(260.699 0 0)
(258.215 0 0)
(255.561 0 0)
(252.72 0 0)
(249.64 0 0)
(246.204 0 0)
(242.396 0 0)
(238.664 0 0)
(235.369 0 0)
(229.601 0 0)
(212.875 0 0)
(180.846 0 0)
(145.838 0 0)
(122.436 0 0)
(111.356 0 0)
(107.053 0 0)
(105.634 0 0)
(105.367 0 0)
(105.582 0 0)
(106.019 0 0)
(106.574 0 0)
(107.199 0 0)
(107.873 0 0)
(108.581 0 0)
(109.316 0 0)
(110.073 0 0)
(110.846 0 0)
(111.638 0 0)
(112.429 0 0)
(113.269 0 0)
(114 0 0)
(115.098 0 0)
(299.898 0 0)
(299.931 0 0)
(299.936 0 0)
(299.912 0 0)
(299.86 0 0)
(299.779 0 0)
(299.669 0 0)
(299.529 0 0)
(299.36 0 0)
(299.161 0 0)
(298.932 0 0)
(298.673 0 0)
(298.383 0 0)
(298.061 0 0)
(297.708 0 0)
(297.323 0 0)
(296.905 0 0)
(296.453 0 0)
(295.969 0 0)
(295.449 0 0)
(294.895 0 0)
(294.304 0 0)
(293.677 0 0)
(293.013 0 0)
(292.31 0 0)
(291.567 0 0)
(290.784 0 0)
(289.958 0 0)
(289.09 0 0)
(288.177 0 0)
(287.218 0 0)
(286.212 0 0)
(285.155 0 0)
(284.047 0 0)
(282.886 0 0)
(281.668 0 0)
(280.39 0 0)
(279.051 0 0)
(277.647 0 0)
(276.174 0 0)
(274.627 0 0)
(273.002 0 0)
(271.294 0 0)
(269.496 0 0)
(267.602 0 0)
(265.602 0 0)
(263.487 0 0)
(261.246 0 0)
(258.863 0 0)
(256.321 0 0)
(253.606 0 0)
(250.691 0 0)
(247.489 0 0)
(243.894 0 0)
(240.087 0 0)
(236.69 0 0)
(233.029 0 0)
(223.268 0 0)
(198.729 0 0)
(162.91 0 0)
(132.528 0 0)
(115.726 0 0)
(108.611 0 0)
(106.037 0 0)
(105.3 0 0)
(105.303 0 0)
(105.627 0 0)
(106.109 0 0)
(106.68 0 0)
(107.308 0 0)
(107.976 0 0)
(108.674 0 0)
(109.395 0 0)
(110.135 0 0)
(110.894 0 0)
(111.655 0 0)
(112.462 0 0)
(113.167 0 0)
(114.226 0 0)
(299.931 0 0)
(299.937 0 0)
(299.916 0 0)
(299.868 0 0)
(299.792 0 0)
(299.689 0 0)
(299.559 0 0)
(299.4 0 0)
(299.213 0 0)
(298.998 0 0)
(298.754 0 0)
(298.48 0 0)
(298.177 0 0)
(297.845 0 0)
(297.482 0 0)
(297.088 0 0)
(296.662 0 0)
(296.205 0 0)
(295.716 0 0)
(295.193 0 0)
(294.637 0 0)
(294.046 0 0)
(293.42 0 0)
(292.758 0 0)
(292.059 0 0)
(291.322 0 0)
(290.546 0 0)
(289.729 0 0)
(288.872 0 0)
(287.971 0 0)
(287.026 0 0)
(286.036 0 0)
(284.998 0 0)
(283.911 0 0)
(282.772 0 0)
(281.579 0 0)
(280.33 0 0)
(279.022 0 0)
(277.651 0 0)
(276.215 0 0)
(274.71 0 0)
(273.131 0 0)
(271.472 0 0)
(269.729 0 0)
(267.895 0 0)
(265.963 0 0)
(263.923 0 0)
(261.765 0 0)
(259.477 0 0)
(257.041 0 0)
(254.443 0 0)
(251.667 0 0)
(248.664 0 0)
(245.319 0 0)
(241.611 0 0)
(237.984 0 0)
(234.86 0 0)
(229.527 0 0)
(213.547 0 0)
(181.986 0 0)
(146.705 0 0)
(122.78 0 0)
(111.374 0 0)
(106.927 0 0)
(105.438 0 0)
(105.125 0 0)
(105.296 0 0)
(105.69 0 0)
(106.2 0 0)
(106.779 0 0)
(107.404 0 0)
(108.064 0 0)
(108.75 0 0)
(109.456 0 0)
(110.183 0 0)
(110.912 0 0)
(111.689 0 0)
(112.368 0 0)
(113.386 0 0)
(299.937 0 0)
(299.918 0 0)
(299.873 0 0)
(299.803 0 0)
(299.706 0 0)
(299.583 0 0)
(299.433 0 0)
(299.257 0 0)
(299.054 0 0)
(298.824 0 0)
(298.566 0 0)
(298.28 0 0)
(297.966 0 0)
(297.623 0 0)
(297.251 0 0)
(296.85 0 0)
(296.418 0 0)
(295.956 0 0)
(295.462 0 0)
(294.937 0 0)
(294.38 0 0)
(293.789 0 0)
(293.165 0 0)
(292.506 0 0)
(291.811 0 0)
(291.08 0 0)
(290.311 0 0)
(289.504 0 0)
(288.657 0 0)
(287.768 0 0)
(286.838 0 0)
(285.864 0 0)
(284.844 0 0)
(283.776 0 0)
(282.66 0 0)
(281.492 0 0)
(280.27 0 0)
(278.992 0 0)
(277.655 0 0)
(276.255 0 0)
(274.789 0 0)
(273.253 0 0)
(271.643 0 0)
(269.953 0 0)
(268.177 0 0)
(266.308 0 0)
(264.339 0 0)
(262.26 0 0)
(260.06 0 0)
(257.725 0 0)
(255.238 0 0)
(252.587 0 0)
(249.746 0 0)
(246.635 0 0)
(243.143 0 0)
(239.434 0 0)
(236.144 0 0)
(232.788 0 0)
(223.846 0 0)
(200.34 0 0)
(164.695 0 0)
(133.592 0 0)
(116.095 0 0)
(108.628 0 0)
(105.903 0 0)
(105.092 0 0)
(105.043 0 0)
(105.322 0 0)
(105.76 0 0)
(106.285 0 0)
(106.866 0 0)
(107.486 0 0)
(108.137 0 0)
(108.809 0 0)
(109.503 0 0)
(110.202 0 0)
(110.947 0 0)
(111.6 0 0)
(112.579 0 0)
(299.919 0 0)
(299.877 0 0)
(299.81 0 0)
(299.719 0 0)
(299.602 0 0)
(299.461 0 0)
(299.295 0 0)
(299.102 0 0)
(298.884 0 0)
(298.64 0 0)
(298.37 0 0)
(298.073 0 0)
(297.748 0 0)
(297.397 0 0)
(297.017 0 0)
(296.609 0 0)
(296.172 0 0)
(295.705 0 0)
(295.209 0 0)
(294.682 0 0)
(294.124 0 0)
(293.534 0 0)
(292.911 0 0)
(292.256 0 0)
(291.566 0 0)
(290.841 0 0)
(290.08 0 0)
(289.282 0 0)
(288.445 0 0)
(287.57 0 0)
(286.653 0 0)
(285.695 0 0)
(284.693 0 0)
(283.645 0 0)
(282.551 0 0)
(281.407 0 0)
(280.212 0 0)
(278.963 0 0)
(277.658 0 0)
(276.293 0 0)
(274.866 0 0)
(273.372 0 0)
(271.807 0 0)
(270.168 0 0)
(268.447 0 0)
(266.639 0 0)
(264.738 0 0)
(262.734 0 0)
(260.617 0 0)
(258.376 0 0)
(255.995 0 0)
(253.46 0 0)
(250.756 0 0)
(247.839 0 0)
(244.6 0 0)
(241 0 0)
(237.455 0 0)
(234.485 0 0)
(229.785 0 0)
(215.156 0 0)
(184.616 0 0)
(148.878 0 0)
(123.843 0 0)
(111.695 0 0)
(106.915 0 0)
(105.285 0 0)
(104.898 0 0)
(105.018 0 0)
(105.365 0 0)
(105.829 0 0)
(106.362 0 0)
(106.942 0 0)
(107.555 0 0)
(108.192 0 0)
(108.854 0 0)
(109.522 0 0)
(110.236 0 0)
(110.863 0 0)
(111.804 0 0)
(299.879 0 0)
(299.815 0 0)
(299.728 0 0)
(299.618 0 0)
(299.484 0 0)
(299.326 0 0)
(299.143 0 0)
(298.937 0 0)
(298.705 0 0)
(298.449 0 0)
(298.167 0 0)
(297.86 0 0)
(297.526 0 0)
(297.166 0 0)
(296.78 0 0)
(296.366 0 0)
(295.924 0 0)
(295.454 0 0)
(294.955 0 0)
(294.427 0 0)
(293.869 0 0)
(293.281 0 0)
(292.661 0 0)
(292.009 0 0)
(291.324 0 0)
(290.605 0 0)
(289.852 0 0)
(289.064 0 0)
(288.238 0 0)
(287.375 0 0)
(286.473 0 0)
(285.53 0 0)
(284.545 0 0)
(283.517 0 0)
(282.444 0 0)
(281.324 0 0)
(280.155 0 0)
(278.935 0 0)
(277.661 0 0)
(276.33 0 0)
(274.94 0 0)
(273.486 0 0)
(271.966 0 0)
(270.375 0 0)
(268.707 0 0)
(266.958 0 0)
(265.12 0 0)
(263.187 0 0)
(261.149 0 0)
(258.996 0 0)
(256.715 0 0)
(254.29 0 0)
(251.709 0 0)
(248.95 0 0)
(245.941 0 0)
(242.568 0 0)
(238.954 0 0)
(235.731 0 0)
(232.711 0 0)
(224.981 0 0)
(203.261 0 0)
(168.109 0 0)
(135.808 0 0)
(117.017 0 0)
(108.863 0 0)
(105.85 0 0)
(104.914 0 0)
(104.797 0 0)
(105.024 0 0)
(105.415 0 0)
(105.894 0 0)
(106.43 0 0)
(107.004 0 0)
(107.607 0 0)
(108.235 0 0)
(108.872 0 0)
(109.555 0 0)
(110.157 0 0)
(111.059 0 0)
(299.819 0 0)
(299.735 0 0)
(299.63 0 0)
(299.502 0 0)
(299.351 0 0)
(299.177 0 0)
(298.981 0 0)
(298.761 0 0)
(298.517 0 0)
(298.25 0 0)
(297.958 0 0)
(297.641 0 0)
(297.3 0 0)
(296.933 0 0)
(296.54 0 0)
(296.121 0 0)
(295.676 0 0)
(295.203 0 0)
(294.702 0 0)
(294.174 0 0)
(293.616 0 0)
(293.03 0 0)
(292.413 0 0)
(291.765 0 0)
(291.085 0 0)
(290.374 0 0)
(289.629 0 0)
(288.849 0 0)
(288.035 0 0)
(287.184 0 0)
(286.296 0 0)
(285.369 0 0)
(284.401 0 0)
(283.393 0 0)
(282.341 0 0)
(281.244 0 0)
(280.1 0 0)
(278.907 0 0)
(277.663 0 0)
(276.365 0 0)
(275.011 0 0)
(273.597 0 0)
(272.119 0 0)
(270.574 0 0)
(268.957 0 0)
(267.263 0 0)
(265.487 0 0)
(263.621 0 0)
(261.658 0 0)
(259.588 0 0)
(257.4 0 0)
(255.079 0 0)
(252.613 0 0)
(249.987 0 0)
(247.166 0 0)
(244.046 0 0)
(240.566 0 0)
(237.083 0 0)
(234.221 0 0)
(230.279 0 0)
(217.607 0 0)
(188.843 0 0)
(152.628 0 0)
(125.837 0 0)
(112.42 0 0)
(107.057 0 0)
(105.19 0 0)
(104.695 0 0)
(104.751 0 0)
(105.047 0 0)
(105.465 0 0)
(105.952 0 0)
(106.487 0 0)
(107.053 0 0)
(107.648 0 0)
(108.254 0 0)
(108.905 0 0)
(109.481 0 0)
(110.345 0 0)
(299.739 0 0)
(299.638 0 0)
(299.515 0 0)
(299.371 0 0)
(299.206 0 0)
(299.018 0 0)
(298.808 0 0)
(298.576 0 0)
(298.322 0 0)
(298.044 0 0)
(297.743 0 0)
(297.418 0 0)
(297.069 0 0)
(296.696 0 0)
(296.298 0 0)
(295.875 0 0)
(295.427 0 0)
(294.952 0 0)
(294.45 0 0)
(293.922 0 0)
(293.365 0 0)
(292.781 0 0)
(292.167 0 0)
(291.524 0 0)
(290.85 0 0)
(290.145 0 0)
(289.409 0 0)
(288.639 0 0)
(287.835 0 0)
(286.997 0 0)
(286.122 0 0)
(285.211 0 0)
(284.261 0 0)
(283.271 0 0)
(282.239 0 0)
(281.165 0 0)
(280.046 0 0)
(278.88 0 0)
(277.666 0 0)
(276.4 0 0)
(275.08 0 0)
(273.703 0 0)
(272.266 0 0)
(270.766 0 0)
(269.198 0 0)
(267.557 0 0)
(265.839 0 0)
(264.037 0 0)
(262.144 0 0)
(260.152 0 0)
(258.051 0 0)
(255.829 0 0)
(253.471 0 0)
(250.966 0 0)
(248.296 0 0)
(245.398 0 0)
(242.159 0 0)
(238.643 0 0)
(235.446 0 0)
(232.725 0 0)
(226.477 0 0)
(207.345 0 0)
(173.289 0 0)
(139.438 0 0)
(118.66 0 0)
(109.389 0 0)
(105.908 0 0)
(104.78 0 0)
(104.569 0 0)
(104.737 0 0)
(105.078 0 0)
(105.511 0 0)
(106.002 0 0)
(106.531 0 0)
(107.091 0 0)
(107.665 0 0)
(108.285 0 0)
(108.835 0 0)
(109.661 0 0)
(299.643 0 0)
(299.525 0 0)
(299.387 0 0)
(299.228 0 0)
(299.049 0 0)
(298.849 0 0)
(298.627 0 0)
(298.384 0 0)
(298.119 0 0)
(297.832 0 0)
(297.523 0 0)
(297.191 0 0)
(296.836 0 0)
(296.458 0 0)
(296.056 0 0)
(295.629 0 0)
(295.178 0 0)
(294.701 0 0)
(294.2 0 0)
(293.671 0 0)
(293.117 0 0)
(292.535 0 0)
(291.925 0 0)
(291.286 0 0)
(290.619 0 0)
(289.921 0 0)
(289.192 0 0)
(288.432 0 0)
(287.64 0 0)
(286.813 0 0)
(285.953 0 0)
(285.056 0 0)
(284.123 0 0)
(283.152 0 0)
(282.141 0 0)
(281.089 0 0)
(279.994 0 0)
(278.854 0 0)
(277.668 0 0)
(276.432 0 0)
(275.146 0 0)
(273.806 0 0)
(272.408 0 0)
(270.951 0 0)
(269.429 0 0)
(267.839 0 0)
(266.177 0 0)
(264.435 0 0)
(262.609 0 0)
(260.691 0 0)
(258.672 0 0)
(256.542 0 0)
(254.287 0 0)
(251.894 0 0)
(249.352 0 0)
(246.632 0 0)
(243.643 0 0)
(240.297 0 0)
(236.865 0 0)
(234.043 0 0)
(230.854 0 0)
(220.608 0 0)
(194.563 0 0)
(158.193 0 0)
(129.033 0 0)
(113.69 0 0)
(107.41 0 0)
(105.175 0 0)
(104.525 0 0)
(104.5 0 0)
(104.74 0 0)
(105.11 0 0)
(105.552 0 0)
(106.041 0 0)
(106.566 0 0)
(107.107 0 0)
(107.696 0 0)
(108.219 0 0)
(109.007 0 0)
(299.532 0 0)
(299.399 0 0)
(299.246 0 0)
(299.074 0 0)
(298.882 0 0)
(298.67 0 0)
(298.438 0 0)
(298.185 0 0)
(297.911 0 0)
(297.616 0 0)
(297.3 0 0)
(296.961 0 0)
(296.601 0 0)
(296.218 0 0)
(295.812 0 0)
(295.382 0 0)
(294.929 0 0)
(294.452 0 0)
(293.95 0 0)
(293.423 0 0)
(292.87 0 0)
(292.291 0 0)
(291.685 0 0)
(291.052 0 0)
(290.39 0 0)
(289.7 0 0)
(288.98 0 0)
(288.23 0 0)
(287.448 0 0)
(286.634 0 0)
(285.787 0 0)
(284.906 0 0)
(283.989 0 0)
(283.036 0 0)
(282.044 0 0)
(281.014 0 0)
(279.942 0 0)
(278.828 0 0)
(277.669 0 0)
(276.464 0 0)
(275.21 0 0)
(273.904 0 0)
(272.545 0 0)
(271.129 0 0)
(269.652 0 0)
(268.111 0 0)
(266.501 0 0)
(264.817 0 0)
(263.055 0 0)
(261.206 0 0)
(259.264 0 0)
(257.219 0 0)
(255.061 0 0)
(252.775 0 0)
(250.349 0 0)
(247.772 0 0)
(244.993 0 0)
(241.901 0 0)
(238.497 0 0)
(235.291 0 0)
(232.764 0 0)
(228.062 0 0)
(212.253 0 0)
(180.272 0 0)
(144.818 0 0)
(121.285 0 0)
(110.325 0 0)
(106.12 0 0)
(104.705 0 0)
(104.368 0 0)
(104.464 0 0)
(104.752 0 0)
(105.139 0 0)
(105.584 0 0)
(106.072 0 0)
(106.58 0 0)
(107.136 0 0)
(107.633 0 0)
(108.384 0 0)
(299.406 0 0)
(299.259 0 0)
(299.094 0 0)
(298.91 0 0)
(298.706 0 0)
(298.484 0 0)
(298.242 0 0)
(297.98 0 0)
(297.698 0 0)
(297.396 0 0)
(297.073 0 0)
(296.729 0 0)
(296.363 0 0)
(295.976 0 0)
(295.567 0 0)
(295.136 0 0)
(294.681 0 0)
(294.204 0 0)
(293.702 0 0)
(293.177 0 0)
(292.626 0 0)
(292.05 0 0)
(291.449 0 0)
(290.821 0 0)
(290.166 0 0)
(289.483 0 0)
(288.771 0 0)
(288.031 0 0)
(287.26 0 0)
(286.458 0 0)
(285.625 0 0)
(284.758 0 0)
(283.858 0 0)
(282.922 0 0)
(281.95 0 0)
(280.941 0 0)
(279.892 0 0)
(278.803 0 0)
(277.671 0 0)
(276.494 0 0)
(275.271 0 0)
(274 0 0)
(272.677 0 0)
(271.3 0 0)
(269.866 0 0)
(268.371 0 0)
(266.812 0 0)
(265.184 0 0)
(263.481 0 0)
(261.698 0 0)
(259.829 0 0)
(257.865 0 0)
(255.796 0 0)
(253.61 0 0)
(251.295 0 0)
(248.841 0 0)
(246.226 0 0)
(243.376 0 0)
(240.183 0 0)
(236.808 0 0)
(233.948 0 0)
(231.361 0 0)
(223.755 0 0)
(201.486 0 0)
(165.799 0 0)
(133.827 0 0)
(115.742 0 0)
(108.072 0 0)
(105.276 0 0)
(104.403 0 0)
(104.272 0 0)
(104.448 0 0)
(104.767 0 0)
(105.163 0 0)
(105.61 0 0)
(106.084 0 0)
(106.607 0 0)
(107.077 0 0)
(107.79 0 0)
(299.268 0 0)
(299.109 0 0)
(298.931 0 0)
(298.736 0 0)
(298.522 0 0)
(298.29 0 0)
(298.039 0 0)
(297.769 0 0)
(297.48 0 0)
(297.172 0 0)
(296.843 0 0)
(296.494 0 0)
(296.125 0 0)
(295.734 0 0)
(295.323 0 0)
(294.89 0 0)
(294.435 0 0)
(293.957 0 0)
(293.456 0 0)
(292.932 0 0)
(292.385 0 0)
(291.813 0 0)
(291.216 0 0)
(290.593 0 0)
(289.945 0 0)
(289.269 0 0)
(288.566 0 0)
(287.836 0 0)
(287.076 0 0)
(286.286 0 0)
(285.466 0 0)
(284.614 0 0)
(283.73 0 0)
(282.812 0 0)
(281.859 0 0)
(280.87 0 0)
(279.843 0 0)
(278.778 0 0)
(277.672 0 0)
(276.523 0 0)
(275.331 0 0)
(274.092 0 0)
(272.804 0 0)
(271.465 0 0)
(270.072 0 0)
(268.622 0 0)
(267.111 0 0)
(265.535 0 0)
(263.89 0 0)
(262.169 0 0)
(260.368 0 0)
(258.479 0 0)
(256.494 0 0)
(254.403 0 0)
(252.192 0 0)
(249.851 0 0)
(247.369 0 0)
(244.712 0 0)
(241.778 0 0)
(238.51 0 0)
(235.283 0 0)
(232.796 0 0)
(229.456 0 0)
(217.473 0 0)
(188.92 0 0)
(152.36 0 0)
(125.303 0 0)
(111.875 0 0)
(106.566 0 0)
(104.721 0 0)
(104.206 0 0)
(104.213 0 0)
(104.442 0 0)
(104.78 0 0)
(105.183 0 0)
(105.619 0 0)
(106.108 0 0)
(106.55 0 0)
(107.225 0 0)
(299.119 0 0)
(298.948 0 0)
(298.759 0 0)
(298.554 0 0)
(298.331 0 0)
(298.09 0 0)
(297.832 0 0)
(297.555 0 0)
(297.259 0 0)
(296.945 0 0)
(296.611 0 0)
(296.258 0 0)
(295.885 0 0)
(295.492 0 0)
(295.079 0 0)
(294.644 0 0)
(294.189 0 0)
(293.712 0 0)
(293.213 0 0)
(292.691 0 0)
(292.146 0 0)
(291.578 0 0)
(290.986 0 0)
(290.369 0 0)
(289.727 0 0)
(289.059 0 0)
(288.365 0 0)
(287.644 0 0)
(286.895 0 0)
(286.118 0 0)
(285.311 0 0)
(284.473 0 0)
(283.605 0 0)
(282.704 0 0)
(281.769 0 0)
(280.8 0 0)
(279.795 0 0)
(278.753 0 0)
(277.673 0 0)
(276.551 0 0)
(275.388 0 0)
(274.181 0 0)
(272.927 0 0)
(271.625 0 0)
(270.271 0 0)
(268.864 0 0)
(267.399 0 0)
(265.873 0 0)
(264.281 0 0)
(262.62 0 0)
(260.884 0 0)
(259.066 0 0)
(257.159 0 0)
(255.155 0 0)
(253.043 0 0)
(250.809 0 0)
(248.444 0 0)
(245.935 0 0)
(243.227 0 0)
(240.205 0 0)
(236.916 0 0)
(233.961 0 0)
(231.707 0 0)
(226.594 0 0)
(209.06 0 0)
(175.547 0 0)
(140.763 0 0)
(118.966 0 0)
(109.211 0 0)
(105.557 0 0)
(104.351 0 0)
(104.077 0 0)
(104.176 0 0)
(104.439 0 0)
(104.791 0 0)
(105.188 0 0)
(105.641 0 0)
(106.054 0 0)
(106.691 0 0)
(298.959 0 0)
(298.777 0 0)
(298.58 0 0)
(298.365 0 0)
(298.134 0 0)
(297.885 0 0)
(297.619 0 0)
(297.336 0 0)
(297.035 0 0)
(296.715 0 0)
(296.377 0 0)
(296.021 0 0)
(295.645 0 0)
(295.25 0 0)
(294.835 0 0)
(294.4 0 0)
(293.945 0 0)
(293.469 0 0)
(292.971 0 0)
(292.452 0 0)
(291.911 0 0)
(291.347 0 0)
(290.759 0 0)
(290.148 0 0)
(289.513 0 0)
(288.854 0 0)
(288.168 0 0)
(287.457 0 0)
(286.719 0 0)
(285.953 0 0)
(285.159 0 0)
(284.336 0 0)
(283.483 0 0)
(282.598 0 0)
(281.682 0 0)
(280.733 0 0)
(279.749 0 0)
(278.73 0 0)
(277.673 0 0)
(276.578 0 0)
(275.443 0 0)
(274.266 0 0)
(273.045 0 0)
(271.778 0 0)
(270.462 0 0)
(269.096 0 0)
(267.675 0 0)
(266.196 0 0)
(264.657 0 0)
(263.052 0 0)
(261.377 0 0)
(259.626 0 0)
(257.793 0 0)
(255.87 0 0)
(253.848 0 0)
(251.716 0 0)
(249.462 0 0)
(247.077 0 0)
(244.54 0 0)
(241.77 0 0)
(238.667 0 0)
(235.443 0 0)
(232.849 0 0)
(230.455 0 0)
(222.35 0 0)
(198.759 0 0)
(162.437 0 0)
(131.324 0 0)
(114.384 0 0)
(107.384 0 0)
(104.875 0 0)
(104.101 0 0)
(103.99 0 0)
(104.151 0 0)
(104.439 0 0)
(104.79 0 0)
(105.205 0 0)
(105.588 0 0)
(106.186 0 0)
(298.79 0 0)
(298.599 0 0)
(298.392 0 0)
(298.169 0 0)
(297.931 0 0)
(297.675 0 0)
(297.403 0 0)
(297.114 0 0)
(296.808 0 0)
(296.484 0 0)
(296.142 0 0)
(295.783 0 0)
(295.405 0 0)
(295.008 0 0)
(294.593 0 0)
(294.158 0 0)
(293.703 0 0)
(293.228 0 0)
(292.732 0 0)
(292.216 0 0)
(291.678 0 0)
(291.118 0 0)
(290.536 0 0)
(289.932 0 0)
(289.303 0 0)
(288.651 0 0)
(287.975 0 0)
(287.273 0 0)
(286.546 0 0)
(285.792 0 0)
(285.011 0 0)
(284.201 0 0)
(283.363 0 0)
(282.496 0 0)
(281.597 0 0)
(280.667 0 0)
(279.703 0 0)
(278.706 0 0)
(277.674 0 0)
(276.604 0 0)
(275.496 0 0)
(274.349 0 0)
(273.159 0 0)
(271.926 0 0)
(270.647 0 0)
(269.319 0 0)
(267.94 0 0)
(266.508 0 0)
(265.017 0 0)
(263.466 0 0)
(261.849 0 0)
(260.161 0 0)
(258.397 0 0)
(256.55 0 0)
(254.613 0 0)
(252.575 0 0)
(250.426 0 0)
(248.153 0 0)
(245.75 0 0)
(243.18 0 0)
(240.341 0 0)
(237.185 0 0)
(234.13 0 0)
(231.901 0 0)
(228.739 0 0)
(216.445 0 0)
(187.178 0 0)
(150.466 0 0)
(123.977 0 0)
(111.125 0 0)
(106.128 0 0)
(104.409 0 0)
(103.93 0 0)
(103.93 0 0)
(104.134 0 0)
(104.431 0 0)
(104.803 0 0)
(105.154 0 0)
(105.711 0 0)
(298.613 0 0)
(298.414 0 0)
(298.199 0 0)
(297.968 0 0)
(297.723 0 0)
(297.461 0 0)
(297.183 0 0)
(296.889 0 0)
(296.579 0 0)
(296.251 0 0)
(295.907 0 0)
(295.545 0 0)
(295.165 0 0)
(294.767 0 0)
(294.351 0 0)
(293.916 0 0)
(293.463 0 0)
(292.989 0 0)
(292.496 0 0)
(291.983 0 0)
(291.449 0 0)
(290.894 0 0)
(290.317 0 0)
(289.718 0 0)
(289.097 0 0)
(288.453 0 0)
(287.785 0 0)
(287.093 0 0)
(286.376 0 0)
(285.634 0 0)
(284.866 0 0)
(284.07 0 0)
(283.247 0 0)
(282.395 0 0)
(281.514 0 0)
(280.602 0 0)
(279.659 0 0)
(278.683 0 0)
(277.674 0 0)
(276.629 0 0)
(275.548 0 0)
(274.428 0 0)
(273.269 0 0)
(272.069 0 0)
(270.824 0 0)
(269.534 0 0)
(268.196 0 0)
(266.807 0 0)
(265.363 0 0)
(263.862 0 0)
(262.3 0 0)
(260.672 0 0)
(258.974 0 0)
(257.198 0 0)
(255.34 0 0)
(253.389 0 0)
(251.338 0 0)
(249.172 0 0)
(246.885 0 0)
(244.465 0 0)
(241.856 0 0)
(238.945 0 0)
(235.784 0 0)
(233.001 0 0)
(231.011 0 0)
(226.233 0 0)
(208.847 0 0)
(175.126 0 0)
(140.158 0 0)
(118.435 0 0)
(108.823 0 0)
(105.259 0 0)
(104.086 0 0)
(103.81 0 0)
(103.887 0 0)
(104.113 0 0)
(104.436 0 0)
(104.751 0 0)
(105.267 0 0)
(298.429 0 0)
(298.222 0 0)
(298 0 0)
(297.763 0 0)
(297.511 0 0)
(297.244 0 0)
(296.961 0 0)
(296.663 0 0)
(296.349 0 0)
(296.018 0 0)
(295.671 0 0)
(295.307 0 0)
(294.926 0 0)
(294.528 0 0)
(294.111 0 0)
(293.677 0 0)
(293.225 0 0)
(292.753 0 0)
(292.263 0 0)
(291.753 0 0)
(291.223 0 0)
(290.672 0 0)
(290.101 0 0)
(289.509 0 0)
(288.895 0 0)
(288.259 0 0)
(287.599 0 0)
(286.917 0 0)
(286.211 0 0)
(285.48 0 0)
(284.724 0 0)
(283.942 0 0)
(283.134 0 0)
(282.297 0 0)
(281.433 0 0)
(280.54 0 0)
(279.616 0 0)
(278.661 0 0)
(277.674 0 0)
(276.653 0 0)
(275.597 0 0)
(274.505 0 0)
(273.375 0 0)
(272.206 0 0)
(270.995 0 0)
(269.741 0 0)
(268.442 0 0)
(267.094 0 0)
(265.695 0 0)
(264.243 0 0)
(262.733 0 0)
(261.161 0 0)
(259.524 0 0)
(257.816 0 0)
(256.031 0 0)
(254.162 0 0)
(252.201 0 0)
(250.136 0 0)
(247.958 0 0)
(245.659 0 0)
(243.221 0 0)
(240.566 0 0)
(237.591 0 0)
(234.496 0 0)
(232.058 0 0)
(230.018 0 0)
(222.656 0 0)
(199.801 0 0)
(163.408 0 0)
(131.688 0 0)
(114.339 0 0)
(107.199 0 0)
(104.652 0 0)
(103.858 0 0)
(103.723 0 0)
(103.847 0 0)
(104.109 0 0)
(104.383 0 0)
(104.854 0 0)
(298.239 0 0)
(298.024 0 0)
(297.796 0 0)
(297.553 0 0)
(297.296 0 0)
(297.024 0 0)
(296.737 0 0)
(296.435 0 0)
(296.117 0 0)
(295.784 0 0)
(295.435 0 0)
(295.07 0 0)
(294.688 0 0)
(294.289 0 0)
(293.873 0 0)
(293.44 0 0)
(292.989 0 0)
(292.52 0 0)
(292.032 0 0)
(291.526 0 0)
(291 0 0)
(290.454 0 0)
(289.889 0 0)
(289.303 0 0)
(288.696 0 0)
(288.068 0 0)
(287.417 0 0)
(286.745 0 0)
(286.049 0 0)
(285.329 0 0)
(284.586 0 0)
(283.817 0 0)
(283.023 0 0)
(282.202 0 0)
(281.354 0 0)
(280.478 0 0)
(279.574 0 0)
(278.639 0 0)
(277.673 0 0)
(276.676 0 0)
(275.645 0 0)
(274.579 0 0)
(273.478 0 0)
(272.339 0 0)
(271.16 0 0)
(269.941 0 0)
(268.678 0 0)
(267.37 0 0)
(266.014 0 0)
(264.607 0 0)
(263.147 0 0)
(261.629 0 0)
(260.05 0 0)
(258.405 0 0)
(256.689 0 0)
(254.896 0 0)
(253.018 0 0)
(251.048 0 0)
(248.973 0 0)
(246.785 0 0)
(244.476 0 0)
(242.018 0 0)
(239.312 0 0)
(236.293 0 0)
(233.345 0 0)
(231.271 0 0)
(228.721 0 0)
(217.842 0 0)
(189.781 0 0)
(152.657 0 0)
(124.967 0 0)
(111.346 0 0)
(106.047 0 0)
(104.221 0 0)
(103.694 0 0)
(103.653 0 0)
(103.828 0 0)
(104.052 0 0)
(104.474 0 0)
(298.043 0 0)
(297.822 0 0)
(297.587 0 0)
(297.339 0 0)
(297.077 0 0)
(296.801 0 0)
(296.511 0 0)
(296.206 0 0)
(295.886 0 0)
(295.55 0 0)
(295.2 0 0)
(294.833 0 0)
(294.451 0 0)
(294.052 0 0)
(293.637 0 0)
(293.205 0 0)
(292.756 0 0)
(292.289 0 0)
(291.805 0 0)
(291.302 0 0)
(290.781 0 0)
(290.24 0 0)
(289.68 0 0)
(289.101 0 0)
(288.501 0 0)
(287.881 0 0)
(287.239 0 0)
(286.576 0 0)
(285.89 0 0)
(285.182 0 0)
(284.451 0 0)
(283.695 0 0)
(282.915 0 0)
(282.109 0 0)
(281.278 0 0)
(280.419 0 0)
(279.533 0 0)
(278.618 0 0)
(277.673 0 0)
(276.698 0 0)
(275.691 0 0)
(274.651 0 0)
(273.577 0 0)
(272.467 0 0)
(271.319 0 0)
(270.133 0 0)
(268.906 0 0)
(267.636 0 0)
(266.321 0 0)
(264.958 0 0)
(263.544 0 0)
(262.077 0 0)
(260.553 0 0)
(258.968 0 0)
(257.316 0 0)
(255.594 0 0)
(253.794 0 0)
(251.91 0 0)
(249.932 0 0)
(247.849 0 0)
(245.654 0 0)
(243.338 0 0)
(240.857 0 0)
(238.097 0 0)
(235.069 0 0)
(232.35 0 0)
(230.577 0 0)
(226.917 0 0)
(211.786 0 0)
(179.376 0 0)
(143.256 0 0)
(119.766 0 0)
(109.168 0 0)
(105.223 0 0)
(103.912 0 0)
(103.568 0 0)
(103.609 0 0)
(103.765 0 0)
(104.13 0 0)
(297.842 0 0)
(297.615 0 0)
(297.376 0 0)
(297.123 0 0)
(296.857 0 0)
(296.577 0 0)
(296.284 0 0)
(295.976 0 0)
(295.654 0 0)
(295.317 0 0)
(294.965 0 0)
(294.598 0 0)
(294.215 0 0)
(293.817 0 0)
(293.403 0 0)
(292.973 0 0)
(292.526 0 0)
(292.062 0 0)
(291.58 0 0)
(291.082 0 0)
(290.565 0 0)
(290.03 0 0)
(289.476 0 0)
(288.903 0 0)
(288.31 0 0)
(287.698 0 0)
(287.065 0 0)
(286.411 0 0)
(285.736 0 0)
(285.038 0 0)
(284.319 0 0)
(283.576 0 0)
(282.809 0 0)
(282.019 0 0)
(281.203 0 0)
(280.361 0 0)
(279.493 0 0)
(278.597 0 0)
(277.673 0 0)
(276.719 0 0)
(275.735 0 0)
(274.72 0 0)
(273.672 0 0)
(272.59 0 0)
(271.472 0 0)
(270.318 0 0)
(269.125 0 0)
(267.891 0 0)
(266.615 0 0)
(265.294 0 0)
(263.925 0 0)
(262.507 0 0)
(261.034 0 0)
(259.505 0 0)
(257.915 0 0)
(256.259 0 0)
(254.532 0 0)
(252.728 0 0)
(250.838 0 0)
(248.855 0 0)
(246.766 0 0)
(244.567 0 0)
(242.245 0 0)
(239.736 0 0)
(236.926 0 0)
(233.937 0 0)
(231.515 0 0)
(229.882 0 0)
(224.438 0 0)
(204.66 0 0)
(169.165 0 0)
(135.345 0 0)
(115.805 0 0)
(107.581 0 0)
(104.629 0 0)
(103.68 0 0)
(103.483 0 0)
(103.532 0 0)
(103.826 0 0)
(297.637 0 0)
(297.405 0 0)
(297.161 0 0)
(296.905 0 0)
(296.635 0 0)
(296.352 0 0)
(296.056 0 0)
(295.746 0 0)
(295.422 0 0)
(295.084 0 0)
(294.731 0 0)
(294.364 0 0)
(293.982 0 0)
(293.584 0 0)
(293.172 0 0)
(292.743 0 0)
(292.298 0 0)
(291.837 0 0)
(291.359 0 0)
(290.865 0 0)
(290.352 0 0)
(289.823 0 0)
(289.275 0 0)
(288.708 0 0)
(288.123 0 0)
(287.518 0 0)
(286.894 0 0)
(286.249 0 0)
(285.584 0 0)
(284.898 0 0)
(284.19 0 0)
(283.46 0 0)
(282.707 0 0)
(281.93 0 0)
(281.13 0 0)
(280.304 0 0)
(279.453 0 0)
(278.576 0 0)
(277.672 0 0)
(276.74 0 0)
(275.778 0 0)
(274.787 0 0)
(273.764 0 0)
(272.709 0 0)
(271.62 0 0)
(270.496 0 0)
(269.336 0 0)
(268.137 0 0)
(266.898 0 0)
(265.617 0 0)
(264.291 0 0)
(262.918 0 0)
(261.495 0 0)
(260.019 0 0)
(258.486 0 0)
(256.893 0 0)
(255.234 0 0)
(253.504 0 0)
(251.696 0 0)
(249.804 0 0)
(247.817 0 0)
(245.725 0 0)
(243.525 0 0)
(241.197 0 0)
(238.657 0 0)
(235.808 0 0)
(232.914 0 0)
(230.827 0 0)
(229.079 0 0)
(221.185 0 0)
(196.772 0 0)
(159.618 0 0)
(128.878 0 0)
(112.816 0 0)
(106.421 0 0)
(104.189 0 0)
(103.517 0 0)
(103.378 0 0)
(103.571 0 0)
(297.428 0 0)
(297.192 0 0)
(296.945 0 0)
(296.684 0 0)
(296.412 0 0)
(296.126 0 0)
(295.828 0 0)
(295.516 0 0)
(295.19 0 0)
(294.852 0 0)
(294.499 0 0)
(294.132 0 0)
(293.75 0 0)
(293.354 0 0)
(292.942 0 0)
(292.516 0 0)
(292.074 0 0)
(291.616 0 0)
(291.142 0 0)
(290.651 0 0)
(290.144 0 0)
(289.619 0 0)
(289.077 0 0)
(288.517 0 0)
(287.939 0 0)
(287.342 0 0)
(286.727 0 0)
(286.091 0 0)
(285.436 0 0)
(284.761 0 0)
(284.064 0 0)
(283.346 0 0)
(282.607 0 0)
(281.844 0 0)
(281.059 0 0)
(280.249 0 0)
(279.415 0 0)
(278.556 0 0)
(277.671 0 0)
(276.759 0 0)
(275.819 0 0)
(274.851 0 0)
(273.853 0 0)
(272.824 0 0)
(271.763 0 0)
(270.668 0 0)
(269.539 0 0)
(268.374 0 0)
(267.17 0 0)
(265.927 0 0)
(264.642 0 0)
(263.312 0 0)
(261.936 0 0)
(260.51 0 0)
(259.032 0 0)
(257.497 0 0)
(255.902 0 0)
(254.241 0 0)
(252.51 0 0)
(250.701 0 0)
(248.808 0 0)
(246.819 0 0)
(244.727 0 0)
(242.529 0 0)
(240.194 0 0)
(237.622 0 0)
(234.753 0 0)
(232.01 0 0)
(230.259 0 0)
(228.063 0 0)
(217.157 0 0)
(188.508 0 0)
(151.045 0 0)
(123.704 0 0)
(110.569 0 0)
(105.56 0 0)
(103.872 0 0)
(103.358 0 0)
(103.385 0 0)
(297.217 0 0)
(296.977 0 0)
(296.726 0 0)
(296.463 0 0)
(296.187 0 0)
(295.9 0 0)
(295.599 0 0)
(295.286 0 0)
(294.96 0 0)
(294.621 0 0)
(294.268 0 0)
(293.901 0 0)
(293.52 0 0)
(293.125 0 0)
(292.716 0 0)
(292.292 0 0)
(291.852 0 0)
(291.398 0 0)
(290.927 0 0)
(290.441 0 0)
(289.939 0 0)
(289.42 0 0)
(288.884 0 0)
(288.33 0 0)
(287.759 0 0)
(287.171 0 0)
(286.563 0 0)
(285.937 0 0)
(285.292 0 0)
(284.627 0 0)
(283.942 0 0)
(283.236 0 0)
(282.509 0 0)
(281.76 0 0)
(280.989 0 0)
(280.196 0 0)
(279.378 0 0)
(278.537 0 0)
(277.67 0 0)
(276.778 0 0)
(275.859 0 0)
(274.913 0 0)