/*--------------------------------*- C++ -*----------------------------------*\
| =========                 |                                                 |
| \\      /  F ield         | OpenFOAM: The Open Source CFD Toolbox           |
|  \\    /   O peration     | Version:  2312                                  |
|   \\  /    A nd           | Website:  www.openfoam.com                      |
|    \\/     M anipulation  |                                                 |
\*---------------------------------------------------------------------------*/
FoamFile
{
    version     2.0;
    format      ascii;
    arch        "LSB;label=32;scalar=64";
    class       volVectorField;
    location    "0.741";
    object      U;
}
// * * * * * * * * * * * * * * * * * * * * * * * * * * * * * * * * * * * * * //

dimensions      [0 1 -1 0 0 0 0];

internalField   nonuniform List<vector> 
31205
(
(215.097 0 0)
(217.658 0 0)
(220.15 0 0)
(222.578 0 0)
(224.944 0 0)
(227.25 0 0)
(229.499 0 0)
(231.694 0 0)
(233.836 0 0)
(235.927 0 0)
(237.97 0 0)
(239.965 0 0)
(241.914 0 0)
(243.819 0 0)
(245.681 0 0)
(247.502 0 0)
(249.281 0 0)
(251.021 0 0)
(252.722 0 0)
(254.386 0 0)
(256.013 0 0)
(257.604 0 0)
(259.159 0 0)
(260.68 0 0)
(262.168 0 0)
(263.622 0 0)
(265.043 0 0)
(266.432 0 0)
(267.79 0 0)
(269.117 0 0)
(270.413 0 0)
(271.678 0 0)
(272.914 0 0)
(274.121 0 0)
(275.298 0 0)
(276.446 0 0)
(277.566 0 0)
(278.657 0 0)
(279.72 0 0)
(280.755 0 0)
(281.763 0 0)
(282.743 0 0)
(283.695 0 0)
(284.62 0 0)
(285.518 0 0)
(286.389 0 0)
(287.232 0 0)
(288.049 0 0)
(288.838 0 0)
(289.6 0 0)
(290.335 0 0)
(291.043 0 0)
(291.724 0 0)
(292.377 0 0)
(293.003 0 0)
(293.602 0 0)
(294.172 0 0)
(294.714 0 0)
(295.229 0 0)
(295.714 0 0)
(296.171 0 0)
(296.599 0 0)
(296.997 0 0)
(297.366 0 0)
(297.704 0 0)
(298.012 0 0)
(298.288 0 0)
(298.533 0 0)
(298.745 0 0)
(298.924 0 0)
(299.069 0 0)
(299.18 0 0)
(299.255 0 0)
(299.294 0 0)
(299.294 0 0)
(299.262 0 0)
(299.172 0 0)
(299.09 0 0)
(298.839 0 0)
(217.814 0 0)
(220.228 0 0)
(222.582 0 0)
(224.877 0 0)
(227.117 0 0)
(229.303 0 0)
(231.437 0 0)
(233.522 0 0)
(235.559 0 0)
(237.549 0 0)
(239.495 0 0)
(241.397 0 0)
(243.258 0 0)
(245.077 0 0)
(246.857 0 0)
(248.599 0 0)
(250.302 0 0)
(251.969 0 0)
(253.6 0 0)
(255.197 0 0)
(256.759 0 0)
(258.287 0 0)
(259.783 0 0)
(261.246 0 0)
(262.678 0 0)
(264.078 0 0)
(265.448 0 0)
(266.788 0 0)
(268.099 0 0)
(269.38 0 0)
(270.632 0 0)
(271.856 0 0)
(273.052 0 0)
(274.221 0 0)
(275.361 0 0)
(276.475 0 0)
(277.561 0 0)
(278.621 0 0)
(279.655 0 0)
(280.662 0 0)
(281.643 0 0)
(282.598 0 0)
(283.527 0 0)
(284.43 0 0)
(285.307 0 0)
(286.159 0 0)
(286.986 0 0)
(287.787 0 0)
(288.562 0 0)
(289.312 0 0)
(290.036 0 0)
(290.735 0 0)
(291.408 0 0)
(292.056 0 0)
(292.677 0 0)
(293.273 0 0)
(293.843 0 0)
(294.386 0 0)
(294.903 0 0)
(295.393 0 0)
(295.856 0 0)
(296.293 0 0)
(296.701 0 0)
(297.082 0 0)
(297.435 0 0)
(297.759 0 0)
(298.055 0 0)
(298.321 0 0)
(298.557 0 0)
(298.762 0 0)
(298.936 0 0)
(299.079 0 0)
(299.189 0 0)
(299.267 0 0)
(299.308 0 0)
(299.32 0 0)
(299.282 0 0)
(299.244 0 0)
(299.073 0 0)
(220.495 0 0)
(222.772 0 0)
(224.993 0 0)
(227.162 0 0)
(229.282 0 0)
(231.352 0 0)
(233.376 0 0)
(235.355 0 0)
(237.291 0 0)
(239.184 0 0)
(241.036 0 0)
(242.849 0 0)
(244.623 0 0)
(246.36 0 0)
(248.06 0 0)
(249.724 0 0)
(251.354 0 0)
(252.95 0 0)
(254.512 0 0)
(256.042 0 0)
(257.541 0 0)
(259.008 0 0)
(260.444 0 0)
(261.851 0 0)
(263.228 0 0)
(264.576 0 0)
(265.895 0 0)
(267.186 0 0)
(268.45 0 0)
(269.686 0 0)
(270.895 0 0)
(272.077 0 0)
(273.234 0 0)
(274.364 0 0)
(275.468 0 0)
(276.547 0 0)
(277.6 0 0)
(278.628 0 0)
(279.631 0 0)
(280.61 0 0)
(281.564 0 0)
(282.493 0 0)
(283.398 0 0)
(284.279 0 0)
(285.135 0 0)
(285.967 0 0)
(286.776 0 0)
(287.56 0 0)
(288.32 0 0)
(289.056 0 0)
(289.769 0 0)
(290.457 0 0)
(291.121 0 0)
(291.761 0 0)
(292.376 0 0)
(292.967 0 0)
(293.534 0 0)
(294.076 0 0)
(294.594 0 0)
(295.086 0 0)
(295.553 0 0)
(295.995 0 0)
(296.411 0 0)
(296.801 0 0)
(297.166 0 0)
(297.503 0 0)
(297.814 0 0)
(298.097 0 0)
(298.353 0 0)
(298.58 0 0)
(298.779 0 0)
(298.949 0 0)
(299.088 0 0)
(299.198 0 0)
(299.275 0 0)
(299.324 0 0)
(299.33 0 0)
(299.33 0 0)
(299.229 0 0)
(223.073 0 0)
(225.22 0 0)
(227.319 0 0)
(229.37 0 0)
(231.376 0 0)
(233.339 0 0)
(235.259 0 0)
(237.139 0 0)
(238.978 0 0)
(240.779 0 0)
(242.543 0 0)
(244.271 0 0)
(245.963 0 0)
(247.62 0 0)
(249.244 0 0)
(250.835 0 0)
(252.394 0 0)
(253.922 0 0)
(255.418 0 0)
(256.885 0 0)
(258.322 0 0)
(259.73 0 0)
(261.11 0 0)
(262.461 0 0)
(263.785 0 0)
(265.082 0 0)
(266.352 0 0)
(267.596 0 0)
(268.814 0 0)
(270.006 0 0)
(271.173 0 0)
(272.315 0 0)
(273.433 0 0)
(274.525 0 0)
(275.594 0 0)
(276.638 0 0)
(277.659 0 0)
(278.656 0 0)
(279.629 0 0)
(280.579 0 0)
(281.506 0 0)
(282.41 0 0)
(283.291 0 0)
(284.149 0 0)
(284.984 0 0)
(285.797 0 0)
(286.587 0 0)
(287.354 0 0)
(288.099 0 0)
(288.821 0 0)
(289.52 0 0)
(290.197 0 0)
(290.851 0 0)
(291.482 0 0)
(292.09 0 0)
(292.676 0 0)
(293.238 0 0)
(293.778 0 0)
(294.294 0 0)
(294.787 0 0)
(295.256 0 0)
(295.702 0 0)
(296.123 0 0)
(296.521 0 0)
(296.894 0 0)
(297.242 0 0)
(297.565 0 0)
(297.863 0 0)
(298.135 0 0)
(298.381 0 0)
(298.601 0 0)
(298.793 0 0)
(298.958 0 0)
(299.096 0 0)
(299.204 0 0)
(299.285 0 0)
(299.329 0 0)
(299.362 0 0)
(299.319 0 0)
(225.522 0 0)
(227.551 0 0)
(229.535 0 0)
(231.477 0 0)
(233.378 0 0)
(235.24 0 0)
(237.063 0 0)
(238.849 0 0)
(240.598 0 0)
(242.313 0 0)
(243.993 0 0)
(245.64 0 0)
(247.255 0 0)
(248.837 0 0)
(250.389 0 0)
(251.91 0 0)
(253.402 0 0)
(254.865 0 0)
(256.299 0 0)
(257.705 0 0)
(259.083 0 0)
(260.435 0 0)
(261.76 0 0)
(263.059 0 0)
(264.332 0 0)
(265.58 0 0)
(266.803 0 0)
(268.001 0 0)
(269.175 0 0)
(270.325 0 0)
(271.452 0 0)
(272.555 0 0)
(273.634 0 0)
(274.691 0 0)
(275.724 0 0)
(276.736 0 0)
(277.724 0 0)
(278.691 0 0)
(279.635 0 0)
(280.558 0 0)
(281.458 0 0)
(282.337 0 0)
(283.194 0 0)
(284.03 0 0)
(284.844 0 0)
(285.637 0 0)
(286.409 0 0)
(287.159 0 0)
(287.888 0 0)
(288.595 0 0)
(289.281 0 0)
(289.946 0 0)
(290.59 0 0)
(291.212 0 0)
(291.812 0 0)
(292.392 0 0)
(292.949 0 0)
(293.485 0 0)
(293.999 0 0)
(294.491 0 0)
(294.961 0 0)
(295.409 0 0)
(295.835 0 0)
(296.238 0 0)
(296.618 0 0)
(296.975 0 0)
(297.308 0 0)
(297.618 0 0)
(297.904 0 0)
(298.166 0 0)
(298.404 0 0)
(298.616 0 0)
(298.803 0 0)
(298.965 0 0)
(299.099 0 0)
(299.209 0 0)
(299.287 0 0)
(299.348 0 0)
(299.357 0 0)
(227.842 0 0)
(229.76 0 0)
(231.639 0 0)
(233.479 0 0)
(235.282 0 0)
(237.049 0 0)
(238.781 0 0)
(240.48 0 0)
(242.145 0 0)
(243.778 0 0)
(245.38 0 0)
(246.951 0 0)
(248.492 0 0)
(250.004 0 0)
(251.488 0 0)
(252.943 0 0)
(254.371 0 0)
(255.772 0 0)
(257.146 0 0)
(258.494 0 0)
(259.817 0 0)
(261.115 0 0)
(262.388 0 0)
(263.637 0 0)
(264.862 0 0)
(266.063 0 0)
(267.24 0 0)
(268.395 0 0)
(269.527 0 0)
(270.636 0 0)
(271.723 0 0)
(272.789 0 0)
(273.832 0 0)
(274.853 0 0)
(275.854 0 0)
(276.833 0 0)
(277.791 0 0)
(278.728 0 0)
(279.644 0 0)
(280.539 0 0)
(281.414 0 0)
(282.269 0 0)
(283.103 0 0)
(283.917 0 0)
(284.71 0 0)
(285.483 0 0)
(286.237 0 0)
(286.97 0 0)
(287.683 0 0)
(288.376 0 0)
(289.049 0 0)
(289.702 0 0)
(290.334 0 0)
(290.947 0 0)
(291.54 0 0)
(292.112 0 0)
(292.664 0 0)
(293.195 0 0)
(293.706 0 0)
(294.197 0 0)
(294.667 0 0)
(295.116 0 0)
(295.544 0 0)
(295.951 0 0)
(296.336 0 0)
(296.7 0 0)
(297.043 0 0)
(297.363 0 0)
(297.661 0 0)
(297.937 0 0)
(298.19 0 0)
(298.419 0 0)
(298.626 0 0)
(298.808 0 0)
(298.966 0 0)
(299.101 0 0)
(299.207 0 0)
(299.294 0 0)
(299.348 0 0)
(230.038 0 0)
(231.854 0 0)
(233.634 0 0)
(235.379 0 0)
(237.091 0 0)
(238.77 0 0)
(240.417 0 0)
(242.034 0 0)
(243.62 0 0)
(245.176 0 0)
(246.704 0 0)
(248.204 0 0)
(249.676 0 0)
(251.121 0 0)
(252.539 0 0)
(253.932 0 0)
(255.299 0 0)
(256.642 0 0)
(257.959 0 0)
(259.253 0 0)
(260.523 0 0)
(261.769 0 0)
(262.993 0 0)
(264.193 0 0)
(265.372 0 0)
(266.528 0 0)
(267.662 0 0)
(268.775 0 0)
(269.866 0 0)
(270.937 0 0)
(271.986 0 0)
(273.015 0 0)
(274.023 0 0)
(275.011 0 0)
(275.979 0 0)
(276.927 0 0)
(277.855 0 0)
(278.764 0 0)
(279.653 0 0)
(280.522 0 0)
(281.372 0 0)
(282.202 0 0)
(283.014 0 0)
(283.806 0 0)
(284.58 0 0)
(285.334 0 0)
(286.069 0 0)
(286.786 0 0)
(287.483 0 0)
(288.161 0 0)
(288.821 0 0)
(289.462 0 0)
(290.084 0 0)
(290.687 0 0)
(291.27 0 0)
(291.835 0 0)
(292.381 0 0)
(292.908 0 0)
(293.415 0 0)
(293.903 0 0)
(294.372 0 0)
(294.821 0 0)
(295.251 0 0)
(295.66 0 0)
(296.05 0 0)
(296.42 0 0)
(296.769 0 0)
(297.098 0 0)
(297.406 0 0)
(297.694 0 0)
(297.96 0 0)
(298.205 0 0)
(298.428 0 0)
(298.629 0 0)
(298.807 0 0)
(298.964 0 0)
(299.096 0 0)
(299.205 0 0)
(299.299 0 0)
(232.119 0 0)
(233.84 0 0)
(235.528 0 0)
(237.184 0 0)
(238.811 0 0)
(240.407 0 0)
(241.975 0 0)
(243.514 0 0)
(245.025 0 0)
(246.51 0 0)
(247.968 0 0)
(249.4 0 0)
(250.807 0 0)
(252.188 0 0)
(253.546 0 0)
(254.879 0 0)
(256.189 0 0)
(257.476 0 0)
(258.74 0 0)
(259.981 0 0)
(261.2 0 0)
(262.398 0 0)
(263.574 0 0)
(264.729 0 0)
(265.863 0 0)
(266.976 0 0)
(268.069 0 0)
(269.141 0 0)
(270.194 0 0)
(271.227 0 0)
(272.24 0 0)
(273.234 0 0)
(274.209 0 0)
(275.164 0 0)
(276.101 0 0)
(277.019 0 0)
(277.918 0 0)
(278.799 0 0)
(279.661 0 0)
(280.505 0 0)
(281.331 0 0)
(282.138 0 0)
(282.927 0 0)
(283.699 0 0)
(284.452 0 0)
(285.188 0 0)
(285.905 0 0)
(286.605 0 0)
(287.287 0 0)
(287.951 0 0)
(288.598 0 0)
(289.226 0 0)
(289.837 0 0)
(290.43 0 0)
(291.005 0 0)
(291.562 0 0)
(292.101 0 0)
(292.622 0 0)
(293.126 0 0)
(293.611 0 0)
(294.077 0 0)
(294.526 0 0)
(294.956 0 0)
(295.367 0 0)
(295.76 0 0)
(296.134 0 0)
(296.489 0 0)
(296.825 0 0)
(297.142 0 0)
(297.439 0 0)
(297.717 0 0)
(297.975 0 0)
(298.212 0 0)
(298.429 0 0)
(298.626 0 0)
(298.801 0 0)
(298.956 0 0)
(299.085 0 0)
(299.214 0 0)
(234.092 0 0)
(235.724 0 0)
(237.326 0 0)
(238.9 0 0)
(240.447 0 0)
(241.966 0 0)
(243.458 0 0)
(244.925 0 0)
(246.366 0 0)
(247.783 0 0)
(249.175 0 0)
(250.543 0 0)
(251.888 0 0)
(253.21 0 0)
(254.509 0 0)
(255.786 0 0)
(257.042 0 0)
(258.275 0 0)
(259.488 0 0)
(260.68 0 0)
(261.851 0 0)
(263.002 0 0)
(264.132 0 0)
(265.243 0 0)
(266.335 0 0)
(267.407 0 0)
(268.46 0 0)
(269.494 0 0)
(270.51 0 0)
(271.507 0 0)
(272.485 0 0)
(273.445 0 0)
(274.388 0 0)
(275.312 0 0)
(276.218 0 0)
(277.107 0 0)
(277.979 0 0)
(278.832 0 0)
(279.669 0 0)
(280.488 0 0)
(281.29 0 0)
(282.075 0 0)
(282.843 0 0)
(283.594 0 0)
(284.328 0 0)
(285.045 0 0)
(285.745 0 0)
(286.429 0 0)
(287.096 0 0)
(287.745 0 0)
(288.379 0 0)
(288.995 0 0)
(289.594 0 0)
(290.177 0 0)
(290.743 0 0)
(291.292 0 0)
(291.824 0 0)
(292.34 0 0)
(292.838 0 0)
(293.319 0 0)
(293.783 0 0)
(294.23 0 0)
(294.66 0 0)
(295.072 0 0)
(295.467 0 0)
(295.844 0 0)
(296.204 0 0)
(296.546 0 0)
(296.869 0 0)
(297.175 0 0)
(297.462 0 0)
(297.731 0 0)
(297.981 0 0)
(298.212 0 0)
(298.424 0 0)
(298.616 0 0)
(298.79 0 0)
(298.937 0 0)
(299.096 0 0)
(235.965 0 0)
(237.514 0 0)
(239.036 0 0)
(240.533 0 0)
(242.004 0 0)
(243.45 0 0)
(244.872 0 0)
(246.271 0 0)
(247.646 0 0)
(248.998 0 0)
(250.328 0 0)
(251.636 0 0)
(252.923 0 0)
(254.188 0 0)
(255.432 0 0)
(256.656 0 0)
(257.859 0 0)
(259.042 0 0)
(260.206 0 0)
(261.351 0 0)
(262.476 0 0)
(263.582 0 0)
(264.67 0 0)
(265.739 0 0)
(266.79 0 0)
(267.822 0 0)
(268.837 0 0)
(269.835 0 0)
(270.814 0 0)
(271.777 0 0)
(272.722 0 0)
(273.65 0 0)
(274.561 0 0)
(275.455 0 0)
(276.332 0 0)
(277.193 0 0)
(278.037 0 0)
(278.865 0 0)
(279.677 0 0)
(280.472 0 0)
(281.251 0 0)
(282.014 0 0)
(282.761 0 0)
(283.492 0 0)
(284.207 0 0)
(284.906 0 0)
(285.589 0 0)
(286.257 0 0)
(286.908 0 0)
(287.544 0 0)
(288.164 0 0)
(288.768 0 0)
(289.356 0 0)
(289.928 0 0)
(290.485 0 0)
(291.026 0 0)
(291.551 0 0)
(292.06 0 0)
(292.553 0 0)
(293.029 0 0)
(293.49 0 0)
(293.935 0 0)
(294.364 0 0)
(294.776 0 0)
(295.172 0 0)
(295.551 0 0)
(295.914 0 0)
(296.26 0 0)
(296.59 0 0)
(296.902 0 0)
(297.197 0 0)
(297.475 0 0)
(297.736 0 0)
(297.979 0 0)
(298.205 0 0)
(298.412 0 0)
(298.603 0 0)
(298.765 0 0)
(298.951 0 0)
(237.744 0 0)
(239.216 0 0)
(240.663 0 0)
(242.087 0 0)
(243.488 0 0)
(244.866 0 0)
(246.222 0 0)
(247.556 0 0)
(248.868 0 0)
(250.16 0 0)
(251.431 0 0)
(252.682 0 0)
(253.913 0 0)
(255.124 0 0)
(256.316 0 0)
(257.489 0 0)
(258.643 0 0)
(259.779 0 0)
(260.896 0 0)
(261.995 0 0)
(263.076 0 0)
(264.14 0 0)
(265.186 0 0)
(266.216 0 0)
(267.228 0 0)
(268.223 0 0)
(269.201 0 0)
(270.163 0 0)
(271.108 0 0)
(272.037 0 0)
(272.95 0 0)
(273.847 0 0)
(274.728 0 0)
(275.593 0 0)
(276.442 0 0)
(277.276 0 0)
(278.094 0 0)
(278.897 0 0)
(279.684 0 0)
(280.456 0 0)
(281.213 0 0)
(281.955 0 0)
(282.681 0 0)
(283.393 0 0)
(284.089 0 0)
(284.77 0 0)
(285.437 0 0)
(286.088 0 0)
(286.725 0 0)
(287.346 0 0)
(287.953 0 0)
(288.545 0 0)
(289.122 0 0)
(289.684 0 0)
(290.231 0 0)
(290.763 0 0)
(291.28 0 0)
(291.783 0 0)
(292.27 0 0)
(292.742 0 0)
(293.199 0 0)
(293.641 0 0)
(294.068 0 0)
(294.479 0 0)
(294.875 0 0)
(295.256 0 0)
(295.621 0 0)
(295.97 0 0)
(296.304 0 0)
(296.622 0 0)
(296.924 0 0)
(297.21 0 0)
(297.48 0 0)
(297.733 0 0)
(297.97 0 0)
(298.19 0 0)
(298.396 0 0)
(298.571 0 0)
(298.78 0 0)
(239.436 0 0)
(240.835 0 0)
(242.212 0 0)
(243.568 0 0)
(244.902 0 0)
(246.216 0 0)
(247.509 0 0)
(248.783 0 0)
(250.036 0 0)
(251.271 0 0)
(252.486 0 0)
(253.683 0 0)
(254.861 0 0)
(256.022 0 0)
(257.164 0 0)
(258.288 0 0)
(259.396 0 0)
(260.485 0 0)
(261.558 0 0)
(262.614 0 0)
(263.654 0 0)
(264.677 0 0)
(265.684 0 0)
(266.675 0 0)
(267.649 0 0)
(268.608 0 0)
(269.551 0 0)
(270.479 0 0)
(271.392 0 0)
(272.289 0 0)
(273.171 0 0)
(274.037 0 0)
(274.889 0 0)
(275.726 0 0)
(276.549 0 0)
(277.356 0 0)
(278.149 0 0)
(278.927 0 0)
(279.691 0 0)
(280.441 0 0)
(281.176 0 0)
(281.897 0 0)
(282.603 0 0)
(283.296 0 0)
(283.974 0 0)
(284.638 0 0)
(285.288 0 0)
(285.924 0 0)
(286.545 0 0)
(287.153 0 0)
(287.747 0 0)
(288.326 0 0)
(288.892 0 0)
(289.444 0 0)
(289.981 0 0)
(290.504 0 0)
(291.014 0 0)
(291.509 0 0)
(291.99 0 0)
(292.457 0 0)
(292.91 0 0)
(293.348 0 0)
(293.773 0 0)
(294.182 0 0)
(294.578 0 0)
(294.959 0 0)
(295.325 0 0)
(295.677 0 0)
(296.014 0 0)
(296.336 0 0)
(296.644 0 0)
(296.936 0 0)
(297.214 0 0)
(297.476 0 0)
(297.723 0 0)
(297.953 0 0)
(298.172 0 0)
(298.359 0 0)
(298.588 0 0)
(241.046 0 0)
(242.378 0 0)
(243.688 0 0)
(244.98 0 0)
(246.252 0 0)
(247.505 0 0)
(248.739 0 0)
(249.955 0 0)
(251.153 0 0)
(252.333 0 0)
(253.496 0 0)
(254.641 0 0)
(255.77 0 0)
(256.882 0 0)
(257.977 0 0)
(259.055 0 0)
(260.118 0 0)
(261.164 0 0)
(262.195 0 0)
(263.21 0 0)
(264.209 0 0)
(265.193 0 0)
(266.163 0 0)
(267.116 0 0)
(268.056 0 0)
(268.98 0 0)
(269.889 0 0)
(270.785 0 0)
(271.665 0 0)
(272.532 0 0)
(273.384 0 0)
(274.222 0 0)
(275.046 0 0)
(275.855 0 0)
(276.652 0 0)
(277.434 0 0)
(278.202 0 0)
(278.957 0 0)
(279.698 0 0)
(280.426 0 0)
(281.14 0 0)
(281.84 0 0)
(282.528 0 0)
(283.201 0 0)
(283.862 0 0)
(284.509 0 0)
(285.143 0 0)
(285.763 0 0)
(286.37 0 0)
(286.964 0 0)
(287.545 0 0)
(288.112 0 0)
(288.667 0 0)
(289.208 0 0)
(289.735 0 0)
(290.25 0 0)
(290.751 0 0)
(291.239 0 0)
(291.714 0 0)
(292.175 0 0)
(292.623 0 0)
(293.058 0 0)
(293.479 0 0)
(293.886 0 0)
(294.28 0 0)
(294.661 0 0)
(295.028 0 0)
(295.381 0 0)
(295.721 0 0)
(296.046 0 0)
(296.358 0 0)
(296.655 0 0)
(296.939 0 0)
(297.208 0 0)
(297.464 0 0)
(297.703 0 0)
(297.934 0 0)
(298.13 0 0)
(298.377 0 0)
(242.58 0 0)
(243.847 0 0)
(245.096 0 0)
(246.327 0 0)
(247.54 0 0)
(248.735 0 0)
(249.914 0 0)
(251.076 0 0)
(252.221 0 0)
(253.35 0 0)
(254.463 0 0)
(255.56 0 0)
(256.641 0 0)
(257.706 0 0)
(258.756 0 0)
(259.791 0 0)
(260.811 0 0)
(261.816 0 0)
(262.806 0 0)
(263.782 0 0)
(264.743 0 0)
(265.69 0 0)
(266.623 0 0)
(267.542 0 0)
(268.447 0 0)
(269.338 0 0)
(270.216 0 0)
(271.079 0 0)
(271.929 0 0)
(272.766 0 0)
(273.59 0 0)
(274.4 0 0)
(275.197 0 0)
(275.981 0 0)
(276.751 0 0)
(277.509 0 0)
(278.254 0 0)
(278.986 0 0)
(279.705 0 0)
(280.411 0 0)
(281.105 0 0)
(281.786 0 0)
(282.454 0 0)
(283.11 0 0)
(283.753 0 0)
(284.383 0 0)
(285.001 0 0)
(285.606 0 0)
(286.199 0 0)
(286.779 0 0)
(287.347 0 0)
(287.903 0 0)
(288.446 0 0)
(288.976 0 0)
(289.494 0 0)
(289.999 0 0)
(290.492 0 0)
(290.973 0 0)
(291.441 0 0)
(291.896 0 0)
(292.339 0 0)
(292.769 0 0)
(293.187 0 0)
(293.591 0 0)
(293.984 0 0)
(294.363 0 0)
(294.73 0 0)
(295.084 0 0)
(295.424 0 0)
(295.752 0 0)
(296.067 0 0)
(296.369 0 0)
(296.658 0 0)
(296.933 0 0)
(297.195 0 0)
(297.442 0 0)
(297.682 0 0)
(297.887 0 0)
(298.149 0 0)
(244.041 0 0)
(245.248 0 0)
(246.438 0 0)
(247.612 0 0)
(248.77 0 0)
(249.911 0 0)
(251.037 0 0)
(252.148 0 0)
(253.243 0 0)
(254.323 0 0)
(255.389 0 0)
(256.439 0 0)
(257.475 0 0)
(258.497 0 0)
(259.504 0 0)
(260.498 0 0)
(261.477 0 0)
(262.442 0 0)
(263.394 0 0)
(264.333 0 0)
(265.257 0 0)
(266.169 0 0)
(267.067 0 0)
(267.952 0 0)
(268.824 0 0)
(269.684 0 0)
(270.53 0 0)
(271.364 0 0)
(272.184 0 0)
(272.993 0 0)
(273.789 0 0)
(274.572 0 0)
(275.343 0 0)
(276.101 0 0)
(276.848 0 0)
(277.582 0 0)
(278.304 0 0)
(279.014 0 0)
(279.711 0 0)
(280.397 0 0)
(281.071 0 0)
(281.733 0 0)
(282.382 0 0)
(283.02 0 0)
(283.646 0 0)
(284.26 0 0)
(284.863 0 0)
(285.453 0 0)
(286.032 0 0)
(286.599 0 0)
(287.154 0 0)
(287.697 0 0)
(288.229 0 0)
(288.749 0 0)
(289.257 0 0)
(289.753 0 0)
(290.238 0 0)
(290.71 0 0)
(291.171 0 0)
(291.62 0 0)
(292.058 0 0)
(292.483 0 0)
(292.897 0 0)
(293.298 0 0)
(293.688 0 0)
(294.066 0 0)
(294.431 0 0)
(294.785 0 0)
(295.126 0 0)
(295.456 0 0)
(295.773 0 0)
(296.078 0 0)
(296.37 0 0)
(296.65 0 0)
(296.919 0 0)
(297.172 0 0)
(297.42 0 0)
(297.632 0 0)
(297.907 0 0)
(245.434 0 0)
(246.585 0 0)
(247.72 0 0)
(248.84 0 0)
(249.945 0 0)
(251.036 0 0)
(252.112 0 0)
(253.174 0 0)
(254.222 0 0)
(255.256 0 0)
(256.276 0 0)
(257.283 0 0)
(258.276 0 0)
(259.256 0 0)
(260.222 0 0)
(261.176 0 0)
(262.117 0 0)
(263.044 0 0)
(263.96 0 0)
(264.862 0 0)
(265.752 0 0)
(266.629 0 0)
(267.495 0 0)
(268.347 0 0)
(269.188 0 0)
(270.017 0 0)
(270.833 0 0)
(271.638 0 0)
(272.431 0 0)
(273.212 0 0)
(273.981 0 0)
(274.738 0 0)
(275.484 0 0)
(276.219 0 0)
(276.941 0 0)
(277.653 0 0)
(278.352 0 0)
(279.041 0 0)
(279.718 0 0)
(280.383 0 0)
(281.038 0 0)
(281.681 0 0)
(282.313 0 0)
(282.933 0 0)
(283.543 0 0)
(284.141 0 0)
(284.728 0 0)
(285.304 0 0)
(285.869 0 0)
(286.422 0 0)
(286.965 0 0)
(287.496 0 0)
(288.017 0 0)
(288.526 0 0)
(289.024 0 0)
(289.511 0 0)
(289.987 0 0)
(290.452 0 0)
(290.906 0 0)
(291.348 0 0)
(291.78 0 0)
(292.2 0 0)
(292.609 0 0)
(293.007 0 0)
(293.394 0 0)
(293.769 0 0)
(294.133 0 0)
(294.486 0 0)
(294.827 0 0)
(295.157 0 0)
(295.476 0 0)
(295.783 0 0)
(296.078 0 0)
(296.362 0 0)
(296.635 0 0)
(296.894 0 0)
(297.148 0 0)
(297.367 0 0)
(297.653 0 0)
(246.763 0 0)
(247.861 0 0)
(248.943 0 0)
(250.013 0 0)
(251.068 0 0)
(252.111 0 0)
(253.14 0 0)
(254.156 0 0)
(255.159 0 0)
(256.149 0 0)
(257.126 0 0)
(258.091 0 0)
(259.044 0 0)
(259.984 0 0)
(260.912 0 0)
(261.828 0 0)
(262.731 0 0)
(263.623 0 0)
(264.503 0 0)
(265.371 0 0)
(266.228 0 0)
(267.073 0 0)
(267.906 0 0)
(268.728 0 0)
(269.539 0 0)
(270.338 0 0)
(271.126 0 0)
(271.903 0 0)
(272.669 0 0)
(273.423 0 0)
(274.167 0 0)
(274.899 0 0)
(275.621 0 0)
(276.332 0 0)
(277.032 0 0)
(277.721 0 0)
(278.399 0 0)
(279.067 0 0)
(279.724 0 0)
(280.37 0 0)
(281.006 0 0)
(281.63 0 0)
(282.245 0 0)
(282.849 0 0)
(283.442 0 0)
(284.024 0 0)
(284.597 0 0)
(285.158 0 0)
(285.709 0 0)
(286.25 0 0)
(286.78 0 0)
(287.3 0 0)
(287.809 0 0)
(288.308 0 0)
(288.796 0 0)
(289.274 0 0)
(289.741 0 0)
(290.198 0 0)
(290.644 0 0)
(291.08 0 0)
(291.505 0 0)
(291.92 0 0)
(292.325 0 0)
(292.718 0 0)
(293.101 0 0)
(293.474 0 0)
(293.836 0 0)
(294.187 0 0)
(294.528 0 0)
(294.858 0 0)
(295.177 0 0)
(295.485 0 0)
(295.783 0 0)
(296.07 0 0)
(296.346 0 0)
(296.609 0 0)
(296.869 0 0)
(297.092 0 0)
(297.388 0 0)
(248.032 0 0)
(249.079 0 0)
(250.113 0 0)
(251.134 0 0)
(252.143 0 0)
(253.139 0 0)
(254.124 0 0)
(255.096 0 0)
(256.057 0 0)
(257.005 0 0)
(257.942 0 0)
(258.867 0 0)
(259.781 0 0)
(260.683 0 0)
(261.574 0 0)
(262.454 0 0)
(263.322 0 0)
(264.18 0 0)
(265.026 0 0)
(265.862 0 0)
(266.686 0 0)
(267.5 0 0)
(268.303 0 0)
(269.095 0 0)
(269.877 0 0)
(270.648 0 0)
(271.409 0 0)
(272.159 0 0)
(272.898 0 0)
(273.628 0 0)
(274.347 0 0)
(275.055 0 0)
(275.753 0 0)
(276.442 0 0)
(277.119 0 0)
(277.787 0 0)
(278.445 0 0)
(279.092 0 0)
(279.73 0 0)
(280.357 0 0)
(280.974 0 0)
(281.582 0 0)
(282.179 0 0)
(282.766 0 0)
(283.344 0 0)
(283.911 0 0)
(284.469 0 0)
(285.016 0 0)
(285.554 0 0)
(286.082 0 0)
(286.599 0 0)
(287.107 0 0)
(287.606 0 0)
(288.094 0 0)
(288.572 0 0)
(289.041 0 0)
(289.499 0 0)
(289.948 0 0)
(290.387 0 0)
(290.816 0 0)
(291.235 0 0)
(291.644 0 0)
(292.043 0 0)
(292.432 0 0)
(292.811 0 0)
(293.181 0 0)
(293.54 0 0)
(293.889 0 0)
(294.229 0 0)
(294.558 0 0)
(294.877 0 0)
(295.186 0 0)
(295.485 0 0)
(295.774 0 0)
(296.053 0 0)
(296.319 0 0)
(296.583 0 0)
(296.811 0 0)
(297.113 0 0)
(249.244 0 0)
(250.243 0 0)
(251.231 0 0)
(252.207 0 0)
(253.171 0 0)
(254.124 0 0)
(255.066 0 0)
(255.997 0 0)
(256.917 0 0)
(257.826 0 0)
(258.724 0 0)
(259.612 0 0)
(260.488 0 0)
(261.355 0 0)
(262.21 0 0)
(263.056 0 0)
(263.89 0 0)
(264.715 0 0)
(265.529 0 0)
(266.333 0 0)
(267.127 0 0)
(267.911 0 0)
(268.685 0 0)
(269.449 0 0)
(270.203 0 0)
(270.947 0 0)
(271.681 0 0)
(272.406 0 0)
(273.12 0 0)
(273.825 0 0)
(274.52 0 0)
(275.206 0 0)
(275.882 0 0)
(276.548 0 0)
(277.204 0 0)
(277.851 0 0)
(278.489 0 0)
(279.117 0 0)
(279.735 0 0)
(280.344 0 0)
(280.944 0 0)
(281.534 0 0)
(282.115 0 0)
(282.686 0 0)
(283.248 0 0)
(283.801 0 0)
(284.344 0 0)
(284.878 0 0)
(285.402 0 0)
(285.917 0 0)
(286.423 0 0)
(286.919 0 0)
(287.407 0 0)
(287.884 0 0)
(288.353 0 0)
(288.812 0 0)
(289.262 0 0)
(289.702 0 0)
(290.133 0 0)
(290.555 0 0)
(290.968 0 0)
(291.371 0 0)
(291.765 0 0)
(292.149 0 0)
(292.524 0 0)
(292.89 0 0)
(293.246 0 0)
(293.593 0 0)
(293.93 0 0)
(294.258 0 0)
(294.577 0 0)
(294.886 0 0)
(295.185 0 0)
(295.475 0 0)
(295.756 0 0)
(296.024 0 0)
(296.292 0 0)
(296.523 0 0)
(296.831 0 0)
(250.402 0 0)
(251.357 0 0)
(252.3 0 0)
(253.233 0 0)
(254.155 0 0)
(255.067 0 0)
(255.969 0 0)
(256.86 0 0)
(257.742 0 0)
(258.613 0 0)
(259.475 0 0)
(260.326 0 0)
(261.168 0 0)
(262 0 0)
(262.822 0 0)
(263.634 0 0)
(264.437 0 0)
(265.23 0 0)
(266.014 0 0)
(266.788 0 0)
(267.552 0 0)
(268.308 0 0)
(269.054 0 0)
(269.79 0 0)
(270.518 0 0)
(271.236 0 0)
(271.945 0 0)
(272.644 0 0)
(273.335 0 0)
(274.016 0 0)
(274.688 0 0)
(275.351 0 0)
(276.005 0 0)
(276.65 0 0)
(277.287 0 0)
(277.914 0 0)
(278.532 0 0)
(279.141 0 0)
(279.741 0 0)
(280.332 0 0)
(280.915 0 0)
(281.488 0 0)
(282.053 0 0)
(282.608 0 0)
(283.155 0 0)
(283.693 0 0)
(284.222 0 0)
(284.743 0 0)
(285.254 0 0)
(285.757 0 0)
(286.251 0 0)
(286.736 0 0)
(287.212 0 0)
(287.679 0 0)
(288.138 0 0)
(288.588 0 0)
(289.029 0 0)
(289.461 0 0)
(289.884 0 0)
(290.299 0 0)
(290.705 0 0)
(291.102 0 0)
(291.49 0 0)
(291.869 0 0)
(292.24 0 0)
(292.601 0 0)
(292.954 0 0)
(293.298 0 0)
(293.633 0 0)
(293.959 0 0)
(294.276 0 0)
(294.585 0 0)
(294.884 0 0)
(295.174 0 0)
(295.456 0 0)
(295.727 0 0)
(295.997 0 0)
(296.23 0 0)
(296.543 0 0)
(251.51 0 0)
(252.421 0 0)
(253.323 0 0)
(254.215 0 0)
(255.098 0 0)
(255.97 0 0)
(256.834 0 0)
(257.688 0 0)
(258.533 0 0)
(259.369 0 0)
(260.195 0 0)
(261.012 0 0)
(261.82 0 0)
(262.619 0 0)
(263.409 0 0)
(264.19 0 0)
(264.962 0 0)
(265.726 0 0)
(266.48 0 0)
(267.225 0 0)
(267.962 0 0)
(268.69 0 0)
(269.409 0 0)
(270.119 0 0)
(270.821 0 0)
(271.514 0 0)
(272.199 0 0)
(272.874 0 0)
(273.542 0 0)
(274.2 0 0)
(274.851 0 0)
(275.492 0 0)
(276.125 0 0)
(276.75 0 0)
(277.366 0 0)
(277.974 0 0)
(278.573 0 0)
(279.164 0 0)
(279.746 0 0)
(280.32 0 0)
(280.886 0 0)
(281.443 0 0)
(281.992 0 0)
(282.532 0 0)
(283.065 0 0)
(283.588 0 0)
(284.104 0 0)
(284.611 0 0)
(285.11 0 0)
(285.6 0 0)
(286.082 0 0)
(286.556 0 0)
(287.021 0 0)
(287.479 0 0)
(287.928 0 0)
(288.368 0 0)
(288.8 0 0)
(289.224 0 0)
(289.64 0 0)
(290.047 0 0)
(290.446 0 0)
(290.837 0 0)
(291.219 0 0)
(291.593 0 0)
(291.959 0 0)
(292.316 0 0)
(292.665 0 0)
(293.005 0 0)
(293.338 0 0)
(293.662 0 0)
(293.977 0 0)
(294.284 0 0)
(294.583 0 0)
(294.873 0 0)
(295.155 0 0)
(295.426 0 0)
(295.698 0 0)
(295.933 0 0)
(296.25 0 0)
(252.569 0 0)
(253.44 0 0)
(254.302 0 0)
(255.156 0 0)
(256 0 0)
(256.836 0 0)
(257.663 0 0)
(258.482 0 0)
(259.292 0 0)
(260.094 0 0)
(260.887 0 0)
(261.671 0 0)
(262.447 0 0)
(263.215 0 0)
(263.974 0 0)
(264.725 0 0)
(265.468 0 0)
(266.202 0 0)
(266.929 0 0)
(267.647 0 0)
(268.356 0 0)
(269.058 0 0)
(269.751 0 0)
(270.437 0 0)
(271.114 0 0)
(271.783 0 0)
(272.444 0 0)
(273.097 0 0)
(273.742 0 0)
(274.379 0 0)
(275.008 0 0)
(275.628 0 0)
(276.241 0 0)
(276.846 0 0)
(277.443 0 0)
(278.032 0 0)
(278.613 0 0)
(279.186 0 0)
(279.751 0 0)
(280.309 0 0)
(280.858 0 0)
(281.4 0 0)
(281.933 0 0)
(282.459 0 0)
(282.976 0 0)
(283.486 0 0)
(283.988 0 0)
(284.483 0 0)
(284.969 0 0)
(285.447 0 0)
(285.918 0 0)
(286.381 0 0)
(286.835 0 0)
(287.282 0 0)
(287.722 0 0)
(288.153 0 0)
(288.576 0 0)
(288.992 0 0)
(289.4 0 0)
(289.799 0 0)
(290.191 0 0)
(290.576 0 0)
(290.952 0 0)
(291.32 0 0)
(291.681 0 0)
(292.034 0 0)
(292.378 0 0)
(292.715 0 0)
(293.044 0 0)
(293.366 0 0)
(293.679 0 0)
(293.984 0 0)
(294.282 0 0)
(294.571 0 0)
(294.853 0 0)
(295.125 0 0)
(295.397 0 0)
(295.633 0 0)
(295.953 0 0)
(253.582 0 0)
(254.415 0 0)
(255.24 0 0)
(256.057 0 0)
(256.866 0 0)
(257.666 0 0)
(258.459 0 0)
(259.244 0 0)
(260.021 0 0)
(260.79 0 0)
(261.551 0 0)
(262.304 0 0)
(263.05 0 0)
(263.788 0 0)
(264.518 0 0)
(265.24 0 0)
(265.955 0 0)
(266.662 0 0)
(267.361 0 0)
(268.053 0 0)
(268.737 0 0)
(269.413 0 0)
(270.082 0 0)
(270.743 0 0)
(271.396 0 0)
(272.042 0 0)
(272.681 0 0)
(273.312 0 0)
(273.935 0 0)
(274.551 0 0)
(275.159 0 0)
(275.76 0 0)
(276.354 0 0)
(276.94 0 0)
(277.518 0 0)
(278.089 0 0)
(278.652 0 0)
(279.208 0 0)
(279.757 0 0)
(280.298 0 0)
(280.831 0 0)
(281.357 0 0)
(281.876 0 0)
(282.387 0 0)
(282.891 0 0)
(283.387 0 0)
(283.876 0 0)
(284.358 0 0)
(284.832 0 0)
(285.298 0 0)
(285.757 0 0)
(286.209 0 0)
(286.654 0 0)
(287.09 0 0)
(287.52 0 0)
(287.942 0 0)
(288.357 0 0)
(288.764 0 0)
(289.164 0 0)
(289.556 0 0)
(289.941 0 0)
(290.319 0 0)
(290.689 0 0)
(291.052 0 0)
(291.407 0 0)
(291.755 0 0)
(292.095 0 0)
(292.428 0 0)
(292.754 0 0)
(293.072 0 0)
(293.382 0 0)
(293.686 0 0)
(293.981 0 0)
(294.269 0 0)
(294.551 0 0)
(294.822 0 0)
(295.095 0 0)
(295.331 0 0)
(295.652 0 0)
(254.552 0 0)
(255.349 0 0)
(256.139 0 0)
(256.92 0 0)
(257.695 0 0)
(258.462 0 0)
(259.222 0 0)
(259.975 0 0)
(260.72 0 0)
(261.458 0 0)
(262.189 0 0)
(262.913 0 0)
(263.629 0 0)
(264.338 0 0)
(265.04 0 0)
(265.735 0 0)
(266.423 0 0)
(267.104 0 0)
(267.777 0 0)
(268.444 0 0)
(269.103 0 0)
(269.755 0 0)
(270.4 0 0)
(271.038 0 0)
(271.669 0 0)
(272.293 0 0)
(272.91 0 0)
(273.52 0 0)
(274.122 0 0)
(274.718 0 0)
(275.306 0 0)
(275.888 0 0)
(276.462 0 0)
(277.03 0 0)
(277.59 0 0)
(278.144 0 0)
(278.69 0 0)
(279.229 0 0)
(279.761 0 0)
(280.287 0 0)
(280.805 0 0)
(281.316 0 0)
(281.82 0 0)
(282.317 0 0)
(282.807 0 0)
(283.291 0 0)
(283.767 0 0)
(284.236 0 0)
(284.698 0 0)
(285.153 0 0)
(285.601 0 0)
(286.042 0 0)
(286.476 0 0)
(286.903 0 0)
(287.323 0 0)
(287.736 0 0)
(288.142 0 0)
(288.541 0 0)
(288.932 0 0)
(289.317 0 0)
(289.695 0 0)
(290.066 0 0)
(290.43 0 0)
(290.787 0 0)
(291.137 0 0)
(291.479 0 0)
(291.815 0 0)
(292.144 0 0)
(292.466 0 0)
(292.78 0 0)
(293.088 0 0)
(293.389 0 0)
(293.682 0 0)
(293.969 0 0)
(294.249 0 0)
(294.519 0 0)
(294.792 0 0)
(295.028 0 0)
(295.35 0 0)
(255.481 0 0)
(256.244 0 0)
(257 0 0)
(257.748 0 0)
(258.49 0 0)
(259.226 0 0)
(259.954 0 0)
(260.676 0 0)
(261.392 0 0)
(262.1 0 0)
(262.802 0 0)
(263.497 0 0)
(264.186 0 0)
(264.868 0 0)
(265.543 0 0)
(266.212 0 0)
(266.874 0 0)
(267.53 0 0)
(268.178 0 0)
(268.821 0 0)
(269.456 0 0)
(270.085 0 0)
(270.708 0 0)
(271.323 0 0)
(271.932 0 0)
(272.535 0 0)
(273.131 0 0)
(273.72 0 0)
(274.303 0 0)
(274.879 0 0)
(275.448 0 0)
(276.011 0 0)
(276.568 0 0)
(277.117 0 0)
(277.66 0 0)
(278.197 0 0)
(278.726 0 0)
(279.25 0 0)
(279.766 0 0)
(280.276 0 0)
(280.779 0 0)
(281.276 0 0)
(281.766 0 0)
(282.25 0 0)
(282.726 0 0)
(283.197 0 0)
(283.66 0 0)
(284.117 0 0)
(284.567 0 0)
(285.011 0 0)
(285.448 0 0)
(285.878 0 0)
(286.302 0 0)
(286.719 0 0)
(287.13 0 0)
(287.534 0 0)
(287.931 0 0)
(288.322 0 0)
(288.706 0 0)
(289.083 0 0)
(289.454 0 0)
(289.818 0 0)
(290.175 0 0)
(290.526 0 0)
(290.87 0 0)
(291.208 0 0)
(291.539 0 0)
(291.863 0 0)
(292.181 0 0)
(292.492 0 0)
(292.796 0 0)
(293.094 0 0)
(293.385 0 0)
(293.669 0 0)
(293.948 0 0)
(294.217 0 0)
(294.488 0 0)
(294.724 0 0)
(295.046 0 0)
(256.372 0 0)
(257.102 0 0)
(257.825 0 0)
(258.542 0 0)
(259.254 0 0)
(259.959 0 0)
(260.657 0 0)
(261.35 0 0)
(262.037 0 0)
(262.717 0 0)
(263.391 0 0)
(264.06 0 0)
(264.722 0 0)
(265.378 0 0)
(266.027 0 0)
(266.671 0 0)
(267.308 0 0)
(267.94 0 0)
(268.565 0 0)
(269.184 0 0)
(269.797 0 0)
(270.403 0 0)
(271.004 0 0)
(271.598 0 0)
(272.187 0 0)
(272.769 0 0)
(273.344 0 0)
(273.914 0 0)
(274.478 0 0)
(275.035 0 0)
(275.586 0 0)
(276.131 0 0)
(276.669 0 0)
(277.202 0 0)
(277.728 0 0)
(278.248 0 0)
(278.762 0 0)
(279.269 0 0)
(279.771 0 0)
(280.266 0 0)
(280.755 0 0)
(281.237 0 0)
(281.714 0 0)
(282.184 0 0)
(282.648 0 0)
(283.105 0 0)
(283.556 0 0)
(284.001 0 0)
(284.44 0 0)
(284.873 0 0)
(285.299 0 0)
(285.719 0 0)
(286.133 0 0)
(286.54 0 0)
(286.941 0 0)
(287.336 0 0)
(287.725 0 0)
(288.107 0 0)
(288.483 0 0)
(288.853 0 0)
(289.217 0 0)
(289.574 0 0)
(289.925 0 0)
(290.27 0 0)
(290.608 0 0)
(290.94 0 0)
(291.266 0 0)
(291.586 0 0)
(291.899 0 0)
(292.206 0 0)
(292.507 0 0)
(292.802 0 0)
(293.09 0 0)
(293.372 0 0)
(293.648 0 0)
(293.915 0 0)
(294.186 0 0)
(294.421 0 0)
(294.741 0 0)
(257.225 0 0)
(257.924 0 0)
(258.617 0 0)
(259.304 0 0)
(259.986 0 0)
(260.662 0 0)
(261.332 0 0)
(261.997 0 0)
(262.656 0 0)
(263.31 0 0)
(263.958 0 0)
(264.6 0 0)
(265.237 0 0)
(265.868 0 0)
(266.493 0 0)
(267.113 0 0)
(267.727 0 0)
(268.335 0 0)
(268.937 0 0)
(269.534 0 0)
(270.125 0 0)
(270.711 0 0)
(271.29 0 0)
(271.864 0 0)
(272.432 0 0)
(272.994 0 0)
(273.551 0 0)
(274.101 0 0)
(274.646 0 0)
(275.186 0 0)
(275.719 0 0)
(276.246 0 0)
(276.768 0 0)
(277.284 0 0)
(277.794 0 0)
(278.298 0 0)
(278.796 0 0)
(279.289 0 0)
(279.775 0 0)
(280.256 0 0)
(280.731 0 0)
(281.2 0 0)