/*--------------------------------*- C++ -*----------------------------------*\
| =========                 |                                                 |
| \\      /  F ield         | OpenFOAM: The Open Source CFD Toolbox           |
|  \\    /   O peration     | Version:  2312                                  |
|   \\  /    A nd           | Website:  www.openfoam.com                      |
|    \\/     M anipulation  |                                                 |
\*---------------------------------------------------------------------------*/
FoamFile
{
    version     2.0;
    format      ascii;
    arch        "LSB;label=32;scalar=64";
    class       surfaceScalarField;
    location    "1";
    object      phi;
}
// * * * * * * * * * * * * * * * * * * * * * * * * * * * * * * * * * * * * * //

dimensions      [0 3 -1 0 0 0 0];

oriented        oriented;

internalField   nonuniform List<scalar> 
62015
(
78.6725
0.1535
-78.3135
79.0178
0.15129
79.3498
0.148954
79.6693
0.146495
79.9767
0.143916
80.2728
0.141219
80.5579
0.138408
80.8326
0.135484
81.0973
0.132451
81.3525
0.129311
81.5986
0.126066
81.836
0.122721
82.065
0.119277
82.2859
0.115737
82.4992
0.112105
82.7051
0.108382
82.9039
0.104573
83.0958
0.100679
83.2812
0.0967036
83.4602
0.0926503
83.633
0.088522
83.8
0.0843211
83.9611
0.0800511
84.1167
0.0757153
84.2669
0.0713162
84.4118
0.0668577
84.5515
0.0623422
84.6862
0.0577738
84.816
0.0531552
84.9409
0.0484897
85.061
0.0437804
85.1765
0.0390311
85.2872
0.0342454
85.3933
0.0294256
85.4948
0.0245764
85.5917
0.0197
85.6839
0.0148009
85.7715
0.00988235
85.8543
0.0049472
85.9324
0
86.0056
-0.00495612
86.0739
-0.00991803
86.1372
-0.0148811
86.1952
-0.0198423
86.2479
-0.0247982
86.295
-0.0297441
86.3365
-0.0346775
86.372
-0.0395933
86.4013
-0.0444887
86.4243
-0.0493597
86.4404
-0.054202
86.4495
-0.0590118
86.4512
-0.0637851
86.445
-0.0685184
86.4306
-0.0732068
86.4074
-0.0778468
86.3749
-0.0824337
86.3326
-0.0869636
86.2798
-0.0914321
86.2158
-0.0958342
86.1398
-0.100166
86.0509
-0.104423
85.9482
-0.108599
85.8306
-0.11269
85.6969
-0.116691
85.5457
-0.120595
85.3755
-0.124398
85.1848
-0.128093
84.971
-0.131674
84.7305
-0.135132
84.4622
-0.138459
84.1711
-0.141648
83.8553
-0.1447
83.449
-0.147619
82.9465
-0.150238
82.2925
-0.152798
82.9971
-0.154318
82.1052
-0.15975
-0.158332
80.5475
76.8161
0.304432
-76.4991
77.1214
0.299925
77.4153
0.29518
77.6983
0.2902
77.9709
0.284991
78.2336
0.279558
78.4868
0.273906
78.7309
0.268039
78.9664
0.261964
79.1937
0.255684
79.413
0.249205
79.6247
0.242533
79.8291
0.235672
80.0266
0.228627
80.2174
0.221405
80.4018
0.214011
80.58
0.206449
80.7523
0.198726
80.9189
0.190848
81.08
0.182819
81.2357
0.174646
81.3864
0.166334
81.5321
0.15789
81.6729
0.149318
81.8091
0.140626
81.9408
0.13182
82.068
0.122904
82.1909
0.113886
82.3095
0.104772
82.4241
0.0955677
82.5345
0.0862797
82.6409
0.0769147
82.7432
0.0674787
82.8417
0.057979
82.9361
0.0484211
83.0267
0.0388122
83.1132
0.0291589
83.1958
0.0194678
83.2744
0.00974595
83.3489
0
83.4192
-0.0097632
83.4853
-0.0195367
83.5471
-0.0293138
83.6045
-0.0390872
83.6573
-0.0488498
83.7054
-0.0585947
83.7486
-0.0683141
83.7868
-0.078002
83.8196
-0.08765
83.8469
-0.0972514
83.8685
-0.106798
83.884
-0.116284
83.8932
-0.1257
83.8956
-0.135039
83.891
-0.144293
83.8788
-0.153455
83.8588
-0.162518
83.8303
-0.171471
83.7928
-0.180308
83.7458
-0.18902
83.6886
-0.197599
83.6205
-0.206036
83.5406
-0.214322
83.4482
-0.222448
83.3421
-0.230404
83.2214
-0.23818
83.0847
-0.245767
82.9308
-0.253153
82.7582
-0.260326
82.5648
-0.267275
82.3478
-0.273986
82.1033
-0.280445
81.841
-0.286619
81.5401
-0.292575
81.2501
-0.298079
80.6559
-0.303753
80.3372
-0.307393
80.1836
-0.313327
-0.317074
80.0631
74.9928
0.452753
-74.714
75.2616
0.44588
75.5205
0.438665
75.77
0.431115
76.0105
0.423237
76.2425
0.415039
76.4662
0.406526
76.6822
0.397706
76.8906
0.388586
77.0919
0.379174
77.2864
0.369476
77.4743
0.359499
77.6559
0.349251
77.8316
0.338741
78.0014
0.327974
78.1657
0.31696
78.3247
0.305705
78.4787
0.294219
78.6277
0.282508
78.7719
0.270581
78.9116
0.258446
79.047
0.246111
79.178
0.233586
79.305
0.220877
79.428
0.207995
79.5471
0.194948
79.6624
0.181743
79.774
0.168392
79.8821
0.154901
79.9866
0.141281
80.0876
0.127541
80.1853
0.113689
80.2795
0.0997349
80.3704
0.0856887
80.458
0.0715589
80.5422
0.0573558
80.6231
0.0430888
80.7006
0.0287669
80.7747
0.0144008
80.8454
0
80.9125
-0.0144257
80.9761
-0.0288665
81.0361
-0.0433124
81.0923
-0.0577528
81.1446
-0.0721778
81.1929
-0.0865778
81.2371
-0.100941
81.2769
-0.115259
81.3123
-0.12952
81.3429
-0.143714
81.3687
-0.157831
81.3893
-0.171859
81.4044
-0.185788
81.4139
-0.199606
81.4173
-0.213304
81.4143
-0.22687
81.4045
-0.240294
81.3875
-0.253562
81.3629
-0.266665
81.3302
-0.279589
81.2887
-0.292325
81.238
-0.304858
81.1773
-0.317178
81.1059
-0.329271
81.0231
-0.341124
80.9278
-0.352724
80.8192
-0.364057
80.6961
-0.375108
80.5573
-0.385862
80.4013
-0.396303
80.2272
-0.406413
80.0301
-0.416181
79.8145
-0.425554
79.5596
-0.434606
79.3224
-0.443055
79.0047
-0.45154
78.595
-0.45886
78.1736
-0.466072
-0.471835
78.0053
73.1902
0.59836
-72.9458
73.426
0.589067
73.6534
0.57934
73.8726
0.569186
74.0841
0.558614
74.2882
0.547634
74.4852
0.536252
74.6756
0.524479
74.8594
0.512322
75.0371
0.499792
75.2089
0.486897
75.3751
0.473645
75.5359
0.460048
75.6915
0.446114
75.8422
0.431852
75.9881
0.417274
76.1295
0.402388
76.2665
0.387205
76.3993
0.371735
76.5281
0.355987
76.653
0.339974
76.7742
0.323706
76.8918
0.307192
77.0059
0.290444
77.1166
0.273474
77.224
0.256291
77.3282
0.238908
77.4294
0.221336
77.5275
0.203586
77.6227
0.18567
77.715
0.167599
77.8044
0.149386
77.8909
0.131043
77.9747
0.112581
78.0557
0.0940115
78.1338
0.0753484
78.2092
0.056603
78.2818
0.0377884
78.3515
0.0189165
78.4184
0
78.4824
-0.0189484
78.5433
-0.0379159
78.6012
-0.0568898
78.6559
-0.0758565
78.7074
-0.0948047
78.7555
-0.113719
78.8002
-0.132589
78.8411
-0.151399
78.8783
-0.170137
78.9116
-0.188789
78.9407
-0.207343
78.9654
-0.225783
78.9854
-0.244097
79.0007
-0.262271
79.0108
-0.280292
79.0155
-0.298144
79.0144
-0.315814
79.0072
-0.333288
78.9935
-0.350551
78.9728
-0.367589
78.9448
-0.384387
78.9089
-0.40093
78.8645
-0.417202
78.8111
-0.433188
78.7479
-0.448871
78.6744
-0.464236
78.5895
-0.479266
78.4925
-0.493943
78.3823
-0.508249
78.2577
-0.522165
78.1181
-0.535668
77.9602
-0.548749
77.7869
-0.561353
77.5858
-0.573534
77.3673
-0.585098
77.1341
-0.596272
76.8753
-0.606772
76.4814
-0.617065
-0.624843
76.2929
71.4053
0.741151
-71.1916
71.6116
0.729403
71.8105
0.717134
72.0026
0.704356
72.1879
0.691078
72.3669
0.67731
72.5399
0.663062
72.707
0.648345
72.8687
0.633169
73.025
0.617543
73.1763
0.601481
73.3228
0.584991
73.4646
0.568085
73.6021
0.550776
73.7353
0.533073
73.8645
0.51499
73.9898
0.496537
74.1114
0.477728
74.2294
0.458573
74.3441
0.439086
74.4554
0.419278
74.5637
0.399164
74.6689
0.378755
74.7711
0.358065
74.8706
0.337107
74.9673
0.315895
75.0613
0.294441
75.1528
0.272759
75.2418
0.250865
75.3283
0.22877
75.4124
0.20649
75.4942
0.184038
75.5736
0.161429
75.6507
0.138678
75.7255
0.115799
75.798
0.0928059
75.8682
0.069715
75.9361
0.0465402
76.0017
0.0232967
76.0649
0
76.1256
-0.0233349
76.184
-0.0466931
76.2397
-0.0700587
76.2929
-0.0934159
76.3434
-0.11675
76.3911
-0.140045
76.4359
-0.163285
76.4776
-0.186454
76.5162
-0.209536
76.5515
-0.232516
76.5832
-0.255377
76.6113
-0.278103
76.6356
-0.300678
76.6557
-0.323085
76.6715
-0.345308
76.6827
-0.36733
76.689
-0.389135
76.6902
-0.410705
76.6858
-0.432024
76.6756
-0.453075
76.6592
-0.47384
76.636
-0.494301
76.6057
-0.514441
76.5677
-0.534242
76.5215
-0.553684
76.4665
-0.572749
76.402
-0.591419
76.3273
-0.609672
76.2416
-0.627488
76.1438
-0.644848
76.0333
-0.661725
75.9082
-0.678104
75.7687
-0.693944
75.612
-0.709252
75.4358
-0.72395
75.2338
-0.738081
75.0404
-0.751378
74.7461
-0.764724
-0.775244
74.6095
69.6389
0.881045
-69.4528
69.8187
0.866819
69.9923
0.851994
70.1598
0.836584
70.3217
0.820598
70.4782
0.804048
70.6294
0.786945
70.7757
0.769302
70.9173
0.751129
71.0543
0.732439
71.1871
0.713245
71.3157
0.693558
71.4404
0.673391
71.5614
0.652759
71.6788
0.631672
71.7927
0.610147
71.9035
0.588194
72.0111
0.56583
72.1157
0.543067
72.2174
0.51992
72.3165
0.496404
72.4129
0.472533
72.5068
0.448322
72.5982
0.423786
72.6873
0.398941
72.7742
0.373801
72.8589
0.348383
72.9415
0.322702
73.0221
0.296774
73.1006
0.270616
73.1772
0.244243
73.2519
0.217672
73.3247
0.190921
73.3956
0.164004
73.4647
0.13694
73.5319
0.109744
73.5973
0.0824355
73.6608
0.0550304
73.7224
0.0275459
73.7821
0
73.8399
-0.02759
73.8956
-0.0552064
73.9493
-0.0828312
74.0009
-0.110447
74.0503
-0.138035
74.0974
-0.165579
74.1421
-0.193058
74.1843
-0.220456
74.2239
-0.247754
74.2608
-0.274933
74.2947
-0.301976
74.3257
-0.328863
74.3533
-0.355576
74.3776
-0.382097
74.3983
-0.408405
74.4151
-0.434483
74.4278
-0.460311
74.4361
-0.485869
74.4399
-0.51114
74.4386
-0.536103
74.4321
-0.560739
74.42
-0.585027
74.4018
-0.608948
74.3772
-0.632481
74.3457
-0.655606
74.3067
-0.678302
74.2597
-0.700546
74.2042
-0.722319
74.1394
-0.743596
74.0646
-0.764356
73.979
-0.784574
73.8817
-0.804227
73.7717
-0.823284
73.6476
-0.841729
73.5109
-0.859505
73.3488
-0.876683
73.1898
-0.892887
72.9555
-0.909086
-0.922417
72.8605
67.8931
1.01799
-67.7317
68.0493
1.00127
68.2
0.983886
68.3457
0.965844
68.4864
0.947159
68.6226
0.92784
68.7543
0.907902
68.8818
0.887357
69.0053
0.866219
69.1249
0.8445
69.2409
0.822214
69.3534
0.799376
69.4626
0.775999
69.5687
0.752099
69.6717
0.727689
69.7719
0.702785
69.8694
0.677403
69.9643
0.651557
70.0567
0.625263
70.1467
0.598538
70.2345
0.571398
70.3201
0.543859
70.4037
0.515938
70.4853
0.487652
70.565
0.459017
70.6429
0.430053
70.7191
0.400775
70.7936
0.371202
70.8664
0.341352
70.9376
0.311242
71.0073
0.280891
71.0755
0.250319
71.1421
0.219542
71.2074
0.18858
71.2711
0.157453
71.3334
0.126178
71.3943
0.0947768
71.4536
0.0632666
71.5115
0.031668
71.5679
0
71.6228
-0.0317173
71.6761
-0.0634637
71.7277
-0.0952198
71.7777
-0.126965
71.8259
-0.15868
71.8723
-0.190343
71.9167
-0.221935
71.9592
-0.253436
71.9995
-0.284824
72.0376
-0.316079
72.0733
-0.347181
72.1066
-0.378108
72.1372
-0.40884
72.1649
-0.439356
72.1897
-0.469635
72.2113
-0.499655
72.2294
-0.529397
72.244
-0.558837
72.2547
-0.587955
72.2612
-0.61673
72.2633
-0.64514
72.2607
-0.673162
72.2531
-0.700775
72.24
-0.727957
72.2211
-0.754685
72.1959
-0.780937
72.1641
-0.806689
72.1251
-0.831917
72.0783
-0.856599
72.0231
-0.880708
71.959
-0.904221
71.8851
-0.927113
71.8009
-0.949352
71.7044
-0.970924
71.5979
-0.991759
71.4718
-1.01195
71.3475
-1.03111
71.158
-1.0502
-1.06633
71.0905
66.1703
1.15193
-66.0309
66.3052
1.13273
66.4355
1.11279
66.5615
1.09213
66.6833
1.07076
66.8012
1.04869
66.9153
1.02594
67.0259
1.00253
67.133
0.978459
67.237
0.953751
67.3378
0.92842
67.4358
0.90248
67.531
0.875947
67.6235
0.848837
67.7136
0.821166
67.8013
0.792951
67.8868
0.764209
67.9701
0.734956
68.0514
0.705209
68.1308
0.674988
68.2083
0.644309
68.2842
0.61319
68.3584
0.58165
68.431
0.549708
68.5021
0.517383
68.5718
0.484693
68.6401
0.451658
68.7071
0.418298
68.7728
0.384633
68.8373
0.350682
68.9007
0.316466
68.9628
0.282004
69.0239
0.247318
69.0838
0.212429
69.1426
0.177357
69.2003
0.142124
69.257
0.10675
69.3125
0.0712565
69.3669
0.0356661
69.4202
0
69.4723
-0.0357202
69.5232
-0.0714726
69.5728
-0.107235
69.6211
-0.142986
69.6681
-0.178703
69.7137
-0.214363
69.7577
-0.249944
69.8002
-0.285424
69.841
-0.32078
69.88
-0.35599
69.9172
-0.391031
69.9523
-0.42588
69.9853
-0.460515
70.016
-0.494911
70.0442
-0.529048
70.0699
-0.562901
70.0927
-0.596446
70.1126
-0.629663
70.1292
-0.662526
70.1425
-0.695013
70.152
-0.7271
70.1576
-0.758763
70.159
-0.789979
70.1559
-0.820724
70.1479
-0.850973
70.1347
-0.880703
70.1159
-0.909889
70.0911
-0.938506
70.0598
-0.966528
70.0216
-0.993931
69.9758
-1.02069
69.9219
-1.04677
69.8595
-1.07215
69.787
-1.09681
69.706
-1.12069
69.6088
-1.14386
69.5143
-1.16596
69.3641
-1.18794
-1.2069
69.3202
64.4724
1.28287
-64.3527
64.5883
1.26118
64.7002
1.2387
64.8085
1.21543
64.9133
1.1914
65.0148
1.16661
65.1131
1.14109
65.2084
1.11484
65.3009
1.08788
65.3906
1.06023
65.4778
1.0319
65.5626
1.00291
65.6451
0.973275
65.7255
0.943017
65.8038
0.912149
65.8802
0.880691
65.9548
0.848659
66.0276
0.816074
66.0988
0.782954
66.1685
0.749317
66.2368
0.715184
66.3037
0.680573
66.3693
0.645505
66.4337
0.610001
66.497
0.57408
66.5592
0.537764
66.6204
0.501073
66.6805
0.464029
66.7398
0.426654
66.7981
0.388968
66.8556
0.350995
66.9122
0.312757
66.9681
0.274274
67.0231
0.235571
67.0773
0.19667
67.1308
0.157593
67.1835
0.118365
67.2354
0.0790077
67.2865
0.0395448
67.3368
0
67.3863
-0.0396031
67.4349
-0.079241
67.4826
-0.118889
67.5293
-0.158524
67.575
-0.198122
67.6197
-0.237659
67.6632
-0.277109
67.7056
-0.31645
67.7466
-0.355656
67.7863
-0.394703
67.8245
-0.433566
67.8611
-0.472222
67.8961
-0.510645
67.9292
-0.54881
67.9604
-0.586693
67.9894
-0.62427
68.0163
-0.661514
68.0406
-0.698402
68.0624
-0.734908
68.0814
-0.771008
68.0973
-0.806676
68.11
-0.841886
68.1192
-0.876615
68.1246
-0.910836
68.1261
-0.944524
68.1232
-0.977653
68.1156
-1.0102
68.103
-1.04213
68.0851
-1.07343
68.0613
-1.10406
68.0313
-1.134
67.9946
-1.16322
67.9507
-1.1917
67.8985
-1.21941
67.8394
-1.24628
67.7667
-1.27241
67.6968
-1.29742
67.5796
-1.32225
-1.34405
67.5552
62.8012
1.41078
-62.6991
62.9
1.38662
62.9955
1.36162
63.0879
1.33577
63.1774
1.30911
63.2641
1.28163
63.3482
1.25336
63.4297
1.22431
63.5089
1.19451
63.5859
1.16396
63.6608
1.13269
63.7337
1.1007
63.8048
1.06803
63.8741
1.03468
63.9418
1.00068
64.0079
0.966051
64.0726
0.930804
64.1359
0.894962
64.198
0.858545
64.2589
0.821574
64.3187
0.784071
64.3775
0.746055
64.4354
0.707549
64.4923
0.668573
64.5484
0.629152
64.6037
0.589306
64.6583
0.549058
64.7123
0.508431
64.7655
0.467449
64.8182
0.426134
64.8703
0.384511
64.9219
0.342602
64.9729
0.300433
65.0234
0.258026
65.0734
0.215408
65.1229
0.172602
65.172
0.129633
65.2205
0.0865267
65.2685
0.0433069
65.316
0
65.363
-0.0433691
65.4093
-0.0867754
65.4551
-0.130193
65.5003
-0.173595
65.5447
-0.216957
65.5884
-0.260253
65.6313
-0.303456
65.6733
-0.346541
65.7145
-0.389481
65.7546
-0.432251
65.7935
-0.474824
65.8314
-0.517174
65.8679
-0.559274
65.903
-0.601099
65.9366
-0.642621
65.9685
-0.683814
65.9986
-0.724652
66.0268
-0.76511
66.053
-0.805158
66.0768
-0.844772
66.0982
-0.883925
66.117
-0.922591
66.1329
-0.960741
66.1457
-0.998351
66.1552
-1.03539
66.1612
-1.07184
66.1633
-1.10766
66.1612
-1.14284
66.1547
-1.17734
66.1434
-1.21114
66.1269
-1.2442
66.1049
-1.2765
66.0769
-1.30802
66.042
-1.33872
66.0015
-1.36855
65.9496
-1.39758
65.9006
-1.42547
65.8109
-1.45312
-1.47774
65.8028
61.158
1.53566
-61.0718
61.2415
1.50906
61.3223
1.48156
61.4005
1.45316
61.4762
1.42389
61.5496
1.39376
61.6209
1.36279
61.6901
1.33099
61.7574
1.29839
61.8228
1.26499
61.8866
1.23083
61.9488
1.19591
62.0095
1.16025
62.0688
1.12388
62.1269
1.08682
62.1837
1.04908
62.2395
1.01069
62.2942
0.971667
62.348
0.932032
62.4009
0.891809
62.453
0.851018
62.5044
0.809683
62.5552
0.767826
62.6053
0.725472
62.6548
0.682641
62.7039
0.639361
62.7525
0.595652
62.8007
0.551542
62.8485
0.507052
62.896
0.462211
62.9432
0.41704
62.99
0.371567
63.0366
0.325818
63.083
0.279816
63.129
0.23359
63.1749
0.187164
63.2205
0.140565
63.2659
0.093821
63.311
0.0469568
63.3558
0
63.4004
-0.0470224
63.4446
-0.0940835
63.4886
-0.141155
63.5321
-0.188212
63.5753
-0.235224
63.6179
-0.282166
63.6601
-0.329009
63.7018
-0.375726
63.7427
-0.422289
63.7831
-0.46867
63.8226
-0.514842
63.8613
-0.560777
63.899
-0.606446
63.9357
-0.651822
63.9713
-0.696878
64.0056
-0.741584
64.0385
-0.785913
64.0699
-0.829839
64.0997
-0.873331
64.1277
-0.916363
64.1538
-0.958906
64.1777
-1.00093
64.1993
-1.04242
64.2185
-1.08333
64.2349
-1.12364
64.2485
-1.16332
64.2589
-1.20235
64.2659
-1.24069
64.2692
-1.27832
64.2686
-1.31521
64.2637
-1.35133
64.2541
-1.38665
64.2398
-1.42114
64.2197
-1.45479
64.195
-1.48752
64.1608
-1.51941
64.1294
-1.55013
64.0632
-1.58055
-1.60796
64.0685
59.544
1.65753
-59.472
59.6138
1.62851
59.6814
1.59854
59.7468
1.56763
59.8102
1.53579
59.8717
1.50305
59.9314
1.46942
59.9895
1.43491
60.046
1.39956
60.1011
1.36337
60.1549
1.32637
60.2074
1.28857
60.2587
1.24999
60.309
1.21067
60.3584
1.1706
60.4068
1.12983
60.4545
1.08837
60.5014
1.04624
60.5477
1.00346
60.5933
0.960068
60.6385
0.916073
60.6832
0.871503
60.7274
0.826383
60.7713
0.780737
60.815
0.73459
60.8583
0.687967
60.9014
0.640893
60.9444
0.593395
60.9872
0.545498
61.0299
0.497228
61.0725
0.448613
61.1151
0.399678
61.1576
0.350451
61.2
0.300959
61.2425
0.25123
61.2849
0.201291
61.3273
0.151171
61.3697
0.100897
61.4121
0.050497
61.4544
0
61.4967
-0.0505657
61.539
-0.101171
61.5811
-0.151788
61.6231
-0.202388
61.6649
-0.252942
61.7065
-0.303419
61.7479
-0.353792
61.789
-0.404032
61.8298
-0.454109
61.8701
-0.503993
61.9099
-0.553657
61.9492
-0.603069
61.9879
-0.652202
62.0259
-0.701025
62.063
-0.749511
62.0993
-0.797628
62.1345
-0.845349
62.1686
-0.892643
62.2015
-0.939482
62.233
-0.985836
62.2629
-1.03168
62.2913
-1.07697
62.3178
-1.1217
62.3423
-1.16583
62.3647
-1.20932
62.3847
-1.25216
62.4022
-1.2943
62.4169
-1.33574
62.4287
-1.37642
62.4372
-1.41633
62.4422
-1.45544
62.4434
-1.49371
62.4407
-1.53112
62.4332
-1.56764
62.422
-1.60322
62.4028
-1.63792
62.3864
-1.67142
62.34
-1.70455
-1.73471
62.3565
57.9602
1.77641
-57.9008
58.0177
1.745
58.0734
1.71259
58.1273
1.6792
58.1796
1.64483
58.2304
1.60952
58.2798
1.57327
58.3279
1.53611
58.3747
1.49806
58.4205
1.45913
58.4652
1.41935
58.509
1.37873
58.5519
1.3373
58.5941
1.29508
58.6356
1.25209
58.6764
1.20835
58.7167
1.16389
58.7566
1.11873
58.796
1.07289
58.8351
1.0264
58.8739
0.979282
58.9125
0.931562
58.9509
0.883264
58.9892
0.834414
59.0274
0.785039
59.0655
0.735165
59.1036
0.684819
59.1418
0.634027
59.18
0.582817
59.2184
0.531217
59.2568
0.479254
59.2954
0.426957
59.3341
0.374355
59.373
0.321474
59.4121
0.268346
59.4513
0.214998
59.4907
0.16146
59.5304
0.107761
59.5702
0.053931
59.6101
0
59.6503
-0.0540024
59.6905
-0.108046
59.7309
-0.162102
59.7714
-0.216138
59.8119
-0.270124
59.8524
-0.324031
59.893
-0.377828
59.9334
-0.431484
59.9738
-0.484969
60.014
-0.538252
60.054
-0.591302
60.0937
-0.64409
60.133
-0.696583
60.1719
-0.748752
60.2103
-0.800567
60.2481
-0.851996
60.2852
-0.903009
60.3215
-0.953575
60.357
-1.00367
60.3914
-1.05325
60.4246
-1.10229
60.4567
-1.15077
60.4873
-1.19865
60.5164
-1.2459
60.5438
-1.2925
60.5694
-1.33841
60.5929
-1.3836
60.6142
-1.42804
60.6332
-1.4717
60.6495
-1.51456
60.663
-1.55658
60.6734
-1.59774
60.6805
-1.638
60.6838
-1.67734
60.6841
-1.7157
60.6777
-1.75315
60.674
-1.78937
60.6445
-1.82516
-1.85803
60.6703
56.4071
1.89231
-56.3591
56.4537
1.85855
56.4987
1.82374
56.5424
1.7879
56.5848
1.75106
56.6259
1.71322
56.666
1.6744
56.7051
1.63464
56.7433
1.59394
56.7806
1.55233
56.8172
1.50982
56.8531
1.46645
56.8884
1.42222
56.9233
1.37717
56.9576
1.33132
56.9916
1.28469
57.0253
1.2373
57.0588
1.18918
57.0921
1.14036
57.1252
1.09085
57.1583
1.04069
57.1913
0.989902
57.2243
0.938511
57.2575
0.886544
57.2907
0.834029
57.3241
0.780993
57.3577
0.727465
57.3915
0.673471
57.4255
0.619042
57.4598
0.564206
57.4944
0.508993
57.5293
0.453431
57.5645
0.39755
57.6001
0.34138
57.6361
0.284952
57.6724
0.228295
57.709
0.171441
57.7461
0.11442
57.7834
0.0572623
57.8212
0
57.8592
-0.0573361
57.8976
-0.114715
57.9363
-0.172104
57.9753
-0.229473
58.0145
-0.28679
58.0539
-0.344023
58.0936
-0.401139
58.1333
-0.458109
58.1732
-0.514899
58.2131
-0.571478
58.2531
-0.627814
58.293
-0.683875
58.3327
-0.739629
58.3723
-0.795045
58.4117
-0.85009
58.4507
-0.904734
58.4893
-0.958943
58.5274
-1.01269
58.5649
-1.06593
58.6017
-1.11865
58.6378
-1.17081
58.6729
-1.22238
58.707
-1.27333
58.7399
-1.32362
58.7716
-1.37323
58.8018
-1.42213
58.8305
-1.47028
58.8574
-1.51766
58.8825
-1.56423
58.9054
-1.60996
58.9261
-1.65482
58.9443
-1.69879
58.96
-1.74183
58.9724
-1.78392
58.9825
-1.82501
58.987
-1.86514
58.9941
-1.90402
58.9788
-1.94242
-1.97794
59.0125
54.8854
2.00527
-54.8476
54.9222
1.96919
54.9577
1.93202
54.9922
1.89379
55.0256
1.8545
55.0582
1.81418
55.0899
1.77285
55.1209
1.73053
55.1513
1.68724
55.1811
1.643
55.2103
1.59784
55.2392
1.55176
55.2677
1.50481
55.2959
1.457
55.3238
1.40835
55.3516
1.35889
55.3793
1.30865
55.407
1.25765
55.4347
1.20591
55.4624
1.15347
55.4903
1.10035
55.5183
1.04657
55.5465
0.992168
55.5749
0.937168
55.6037
0.881598
55.6327
0.825487
55.6621
0.768865
55.6919
0.711761
55.7221
0.654204
55.7527
0.596224
55.7838
0.537853
55.8154
0.47912
55.8474
0.420057
55.8799
0.360694
55.913
0.301063
55.9465
0.241196
55.9806
0.181124
56.0152
0.120879
56.0503
0.0604937
56.0859
0
56.122
-0.0605695
56.1586
-0.121182
56.1956
-0.181806
56.2331
-0.242407
56.2711
-0.302953
56.3094
-0.363411
56.3481
-0.423748
56.3871
-0.483931
56.4264
-0.543927
56.4659
-0.603703
56.5057
-0.663225
56.5456
-0.722462
56.5856
-0.78138
56.6257
-0.839945
56.6657
-0.898126
56.7056
-0.955888
56.7454
-1.0132
56.7849
-1.07003
56.8241
-1.12634
56.8629
-1.18211
56.9012
-1.23729
56.9389
-1.29187
56.9759
-1.34579
57.012
-1.39904
57.0473
-1.45159
57.0814
-1.50339
57.1144
-1.55442
57.1461
-1.60465
57.1763
-1.65405
57.2049
-1.70258
57.2317
-1.75022
57.2566
-1.79693
57.2793
-1.84268
57.2996
-1.88746
57.3179
-1.93119
57.3317
-1.97395
57.348
-2.01543
57.3449
-2.05638
-2.0945
57.385
53.3954
2.11532
-53.3667
53.4234
2.07696
53.4504
2.03748
53.4767
1.99689
53.5022
1.95521
53.527
1.91246
53.5513
1.86867
53.575
1.82385
53.5984
1.77802
53.6213
1.73121
53.644
1.68344
53.6665
1.63473
53.6888
1.58511
53.7111
1.5346
53.7333
1.48323
53.7555
1.43102
53.7778
1.37799
53.8003
1.32418
53.8229
1.26961
53.8457
1.2143
53.8689
1.15829
53.8923
1.10161
53.9161
1.04428
53.9403
0.986326
53.965
0.927785
53.9901
0.868685
54.0157
0.809056
54.0418
0.748928
54.0685
0.688332
54.0957
0.627299
54.1236
0.565861
54.152
0.50405
54.1811
0.441897
54.2108
0.379434
54.2411
0.316695
54.2721
0.253712
54.3038
0.190517
54.3361
0.127145
54.3691
0.0636282
54.4027
0
54.4369
-0.0637058
54.4718
-0.127455
54.5073
-0.191215
54.5433
-0.254951
54.58
-0.318628
54.6172
-0.382215
54.6549
-0.445674
54.6931
-0.508974
54.7318
-0.572079
54.7708
-0.634955
54.8103
-0.697569
54.8501
-0.759886
54.8901
-0.821872
54.9304
-0.883493
54.9709
-0.944716
55.0115
-1.00551
55.0521
-1.06583
55.0928
-1.12565
55.1333
-1.18494
55.1737
-1.24366
55.2138
-1.30179
55.2536
-1.35928
55.2929
-1.4161
55.3317
-1.47223
55.3699
-1.52762
55.4074
-1.58225
55.444
-1.63608
55.4797
-1.68909
55.5142
-1.74124
55.5476
-1.7925
55.5796
-1.84283
55.61
-1.89222
55.6389
-1.94061
55.6657
-1.988
55.6911
-2.03433
55.7126
-2.07964
55.7367
-2.12366
55.744
-2.16709
-2.20774
55.7894
51.9375
2.2225
-51.9168
51.9576
2.18191
51.977
2.14015
51.9959
2.09726
52.0142
2.05323
52.0322
2.00811
52.0497
1.9619
52.067
1.91463
52.084
1.86632
52.1009
1.817
52.1177
1.76669
52.1345
1.71541
52.1513
1.66318
52.1682
1.61004
52.1852
1.55601
52.2024
1.50111
52.2198
1.44537
52.2375
1.38882
52.2556
1.33148
52.274
1.27339
52.2929
1.21458
52.3122
1.15506
52.332
1.09488
52.3524
1.03406
52.3733
0.972628
52.3948
0.910622
52.417
0.848071
52.4397
0.785005
52.4632
0.721456
52.4874
0.657457
52.5122
0.593041
52.5378
0.528241
52.5642
0.463088
52.5913
0.397617
52.6191
0.331861
52.6478
0.265854
52.6772
0.19963
52.7073
0.133224
52.7383
0.0666688
52.77
0
52.8025
-0.0667479
52.8357
-0.13354
52.8696
-0.200341
52.9043
-0.267117
52.9397
-0.333832
52.9758
-0.400451
53.0125
-0.466939
53.0499
-0.533261
53.0878
-0.599381
53.1263
-0.665265
53.1654
-0.730876
53.2049
-0.796181
53.2449
-0.861143
53.2853
-0.925729
53.326
-0.989902
53.367
-1.05363
53.4083
-1.11687
53.4497
-1.1796
53.4912
-1.24178
53.5328
-1.30338
53.5744
-1.36435
53.6158
-1.42467
53.6571
-1.48431
53.6981
-1.54323
53.7388
-1.60139
53.7789
-1.65877
53.8186
-1.71533
53.8575
-1.77103
53.8957
-1.82586
53.9331
-1.87977
53.9694
-1.93273
54.0045
-1.98471
54.0385
-2.03568
54.0709
-2.08562
54.1022
-2.13446
54.1304
-2.18226
54.1609
-2.22876
54.177
-2.2746
-2.31773
54.2268
50.5116
2.32686
-50.4981
50.5247
2.28408
50.5374
2.24009
50.5496
2.19493
50.5616
2.14862
50.5734
2.10116
50.585
2.05259
50.5964
2.00293
50.6078
1.9522
50.6193
1.90043
50.6308
1.84763
50.6424
1.79384
50.6543
1.73907
50.6663
1.68336
50.6786
1.62673
50.6913
1.56922
50.7044
1.51083
50.7179
1.45162
50.7318
1.39159
50.7462
1.33079
50.7612
1.26924
50.7768
1.20697
50.793
1.14401
50.8099
1.0804
50.8274
1.01616
50.8457
0.951334
50.8646
0.885942
50.8844
0.820021
50.9049
0.753605
50.9262
0.686726
50.9484
0.619418
50.9714
0.551714
50.9952
0.48365
51.0199
0.415258
51.0454
0.346574
51.0718
0.277634
51.0991
0.20847
51.1273
0.13912
51.1564
0.0696182
51.1863
0
51.2171
-0.0696985
51.2487
-0.139441
51.2812
-0.209193
51.3146
-0.278917
51.3487
-0.348577
51.3837
-0.418138
51.4194
-0.487562
51.4558
-0.556815
51.493
-0.625859
51.5309
-0.694659
51.5695
-0.763178
51.6086
-0.83138
51.6484
-0.89923
51.6887
-0.966691
51.7295
-1.03373
51.7707
-1.1003
51.8124
-1.16638
51.8544
-1.23193
51.8967
-1.29691
51.9392
-1.36129
51.9819
-1.42504
52.0246
-1.48811
52.0674
-1.55048
52.1102
-1.61211
52.1528
-1.67296
52.1952
-1.73301
52.2373
-1.79221
52.279
-1.85054
52.3202
-1.90797
52.3608
-1.96446
52.4008
-2.01997
52.4399
-2.07448
52.4781
-2.12795
52.5152
-2.18037
52.5515
-2.23167
52.5852
-2.28189
52.6212
-2.3308
52.6447
-2.379
-2.42454
52.698
49.1178
2.42844
-49.1107
49.1247
2.38351
49.1313
2.33735
49.1378
2.28997
49.1441
2.24141
49.1503
2.19168
49.1565
2.1408
49.1628
2.0888
49.1692
2.0357
49.1758
1.98153
49.1825
1.92631
49.1896
1.87007
49.197
1.81283
49.2047
1.75462
49.2128
1.69546
49.2214
1.63539
49.2306
1.57443
49.2402
1.51262
49.2504
1.44997
49.2613
1.38653
49.2728
1.32232
49.285
1.25738
49.298
1.19172
49.3116
1.1254
49.3261
1.05843
49.3414
0.990854
49.3575
0.922702
49.3744
0.854008
49.3923
0.784806
49.411
0.71513
49.4307
0.645013
49.4512
0.574492
49.4727
0.503601
49.4952
0.432375
49.5186
0.36085
49.543
0.289062
49.5683
0.217046
49.5946
0.14484
49.6219
0.072479
49.6501
0
49.6793
-0.0725603
49.7095
-0.145166
49.7406
-0.217778
49.7726
-0.290361
49.8055
-0.362878
49.8393
-0.435291
49.8741
-0.507564
49.9096
-0.579658
49.946
-0.651538
49.9832
-0.723166
50.0212
-0.794505
50.0599
-0.865517
50.0993
-0.936166
50.1394
-1.00642
50.1801
-1.07623
50.2214
-1.14557
50.2633
-1.2144
50.3056
-1.28268
50.3484
-1.35039
50.3916
-1.41747
50.4351
-1.4839
50.4789
-1.54964
50.5228
-1.61466
50.5669
-1.67892
50.6111
-1.74239
50.6553
-1.80503
50.6994
-1.8668
50.7433
-1.92769
50.787
-1.98764
50.8303
-2.04663
50.8733
-2.10462
50.9156
-2.16159
50.9574
-2.2175
50.9983
-2.27232
51.0388
-2.32601
51.0772
-2.37859
51.1177
-2.42984
51.1475
-2.48033
-2.52822
51.2036
47.7561
2.52729
-47.7548
47.7575
2.48026
47.7587
2.43196
47.76
2.38242
47.7612
2.33166
47.7625
2.27971
47.764
2.22658
47.7656
2.17229
47.7676
2.11689
47.7698
2.06038
47.7723
2.00279
47.7752
1.94416
47.7786
1.8845
47.7825
1.82385
47.7869
1.76223
47.7918
1.69968
47.7974
1.63621
47.8036
1.57187
47.8105
1.50668
47.8181
1.44067
47.8265
1.37387
47.8357
1.30632
47.8456
1.23804
47.8565
1.16908
47.8681
1.09946
47.8807
1.02922
47.8942
0.958383
47.9086
0.886995
47.924
0.815087
47.9404
0.742693
47.9578
0.66985
47.9761
0.596594
47.9955
0.522958
48.0159
0.448982
48.0373
0.374699
48.0598
0.300149
48.0833
0.225366
48.1079
0.150389
48.1335
0.0752542
48.1601
0
48.1878
-0.0753364
48.2165
-0.150717
48.2462
-0.226105
48.277
-0.301461
48.3087
-0.376748
48.3414
-0.451927
48.3751
-0.526962
48.4097
-0.601812
48.4453
-0.676442
48.4818
-0.750812
48.5191
-0.824885
48.5573
-0.898622
48.5963
-0.971987
48.636
-1.04494
48.6766
-1.11745
48.7178
-1.18947
48.7596
-1.26097
48.8021
-1.3319
48.8452
-1.40225
48.8888
-1.47195
48.9329
-1.54099
48.9774
-1.60933
49.0222
-1.67692
49.0674
-1.74373
49.1128
-1.80973
49.1584
-1.87489
49.204
-1.93916
49.2497
-2.00252
49.2954
-2.06493
49.3409
-2.12635
49.3863
-2.18676
49.4313
-2.24611
49.476
-2.30439
49.5201
-2.36155
49.564
-2.41756
49.6062
-2.47243
49.6506
-2.52596
49.6856
-2.57867
-2.62884
49.744
46.4264
2.62346
-46.4301
46.4228
2.57437
46.4193
2.52399
46.4159
2.47233
46.4126
2.41943
46.4096
2.3653
46.4068
2.30997
46.4044
2.25346
46.4023
2.1958
46.4006
2.13701
46.3994
2.07712
46.3986
2.01616
46.3985
1.95415
46.3989
1.89112
46.3999
1.8271
46.4016
1.76213
46.404
1.69622
46.4071
1.62942
46.411
1.56174
46.4157
1.49324
46.4213
1.42392
46.4277
1.35384
46.435
1.28301
46.4432
1.21149
46.4524
1.13929
46.4625
1.06645
46.4736
0.993013
46.4857
0.919009
46.4989
0.844473
46.5131
0.769442
46.5284
0.693952
46.5447
0.618039
46.5621
0.541741
46.5806
0.465094
46.6002
0.388136
46.6209
0.310904
46.6427
0.233437
46.6656
0.155771
46.6896
0.0779463
46.7148
0
46.741
-0.078029
46.7683
-0.156102
46.7968
-0.234181
46.8263
-0.312226
46.8569
-0.390199
46.8885
-0.468061
46.9212
-0.545774
46.9549
-0.623297
46.9896
-0.700593
47.0253
-0.777623
47.0619
-0.854347
47.0995
-0.930727
47.138
-1.00673
47.1773
-1.0823
47.2175
-1.15742
47.2585
-1.23204
47.3003
-1.30613
47.3428
-1.37964
47.3859
-1.45254
47.4298
-1.52479
47.4742
-1.59636
47.5191
-1.66721
47.5646
-1.7373
47.6105
-1.80659
47.6568
-1.87505
47.7034
-1.94265
47.7503
-2.00935
47.7974
-2.07511
47.8446
-2.1399
47.8919
-2.20368
47.9392
-2.26643
47.9864
-2.32811
48.0335
-2.38868
48.0802
-2.44812
48.1269
-2.50637
48.1723
-2.56348
48.2197
-2.61921
48.2591
-2.67409
-2.72648
48.3192
45.1283
2.717
-45.1365
45.1204
2.6659
45.1127
2.61348
45.1052
2.55976
45.0979
2.50477
45.091
2.44852
45.0845
2.39104
45.0784
2.33235
45.0727
2.27249
45.0676
2.21148
45.063
2.14935
45.059
2.08611
45.0557
2.02181
45.053
1.95647
45.051
1.89012
45.0498
1.82278
45.0493
1.7545
45.0497
1.6853
45.0509
1.61522
45.053
1.54428
45.056
1.47252
45.06
1.39997
45.0649
1.32667
45.0707
1.25265
45.0776
1.17795
45.0855
1.10259
45.0945
1.02663
45.1045
0.950079
45.1157
0.872992
45.1279
0.795399
45.1412
0.717338
45.1557
0.638848
45.1713
0.559964
45.188
0.480726
45.2059
0.401172
45.225
0.321338
45.2452
0.241266
45.2666
0.160992
45.2891
0.0805575
45.3128
0
45.3377
-0.0806407
45.3637
-0.161325
45.3909
-0.242014
45.4192
-0.322667
45.4487
-0.403245
45.4792
-0.483709
45.5109
-0.564019
45.5437
-0.644134
45.5775
-0.724015