/*--------------------------------*- C++ -*----------------------------------*\
| =========                 |                                                 |
| \\      /  F ield         | OpenFOAM: The Open Source CFD Toolbox           |
|  \\    /   O peration     | Version:  2312                                  |
|   \\  /    A nd           | Website:  www.openfoam.com                      |
|    \\/     M anipulation  |                                                 |
\*---------------------------------------------------------------------------*/
FoamFile
{
    version     2.0;
    format      ascii;
    arch        "LSB;label=32;scalar=64";
    class       volVectorField;
    location    "1";
    object      U;
}
// * * * * * * * * * * * * * * * * * * * * * * * * * * * * * * * * * * * * * //

dimensions      [0 1 -1 0 0 0 0];

internalField   nonuniform List<vector> 
31205
(
(261.868 0 0)
(263.551 0 0)
(265.184 0 0)
(266.77 0 0)
(268.308 0 0)
(269.801 0 0)
(271.25 0 0)
(272.656 0 0)
(274.02 0 0)
(275.343 0 0)
(276.625 0 0)
(277.868 0 0)
(279.072 0 0)
(280.239 0 0)
(281.368 0 0)
(282.46 0 0)
(283.516 0 0)
(284.537 0 0)
(285.522 0 0)
(286.472 0 0)
(287.388 0 0)
(288.27 0 0)
(289.118 0 0)
(289.932 0 0)
(290.713 0 0)
(291.461 0 0)
(292.177 0 0)
(292.859 0 0)
(293.509 0 0)
(294.126 0 0)
(294.71 0 0)
(295.263 0 0)
(295.782 0 0)
(296.269 0 0)
(296.723 0 0)
(297.144 0 0)
(297.533 0 0)
(297.888 0 0)
(298.21 0 0)
(298.498 0 0)
(298.753 0 0)
(298.973 0 0)
(299.158 0 0)
(299.309 0 0)
(299.424 0 0)
(299.502 0 0)
(299.545 0 0)
(299.549 0 0)
(299.516 0 0)
(299.445 0 0)
(299.333 0 0)
(299.181 0 0)
(298.988 0 0)
(298.751 0 0)
(298.472 0 0)
(298.146 0 0)
(297.775 0 0)
(297.355 0 0)
(296.885 0 0)
(296.363 0 0)
(295.787 0 0)
(295.154 0 0)
(294.462 0 0)
(293.708 0 0)
(292.888 0 0)
(291.999 0 0)
(291.035 0 0)
(289.994 0 0)
(288.869 0 0)
(287.65 0 0)
(286.324 0 0)
(284.899 0 0)
(283.403 0 0)
(281.796 0 0)
(279.676 0 0)
(277.412 0 0)
(274.268 0 0)
(281.097 0 0)
(267.244 0 0)
(263.653 0 0)
(265.235 0 0)
(266.772 0 0)
(268.265 0 0)
(269.715 0 0)
(271.124 0 0)
(272.492 0 0)
(273.82 0 0)
(275.11 0 0)
(276.362 0 0)
(277.576 0 0)
(278.754 0 0)
(279.897 0 0)
(281.003 0 0)
(282.076 0 0)
(283.113 0 0)
(284.118 0 0)
(285.088 0 0)
(286.026 0 0)
(286.932 0 0)
(287.805 0 0)
(288.646 0 0)
(289.455 0 0)
(290.233 0 0)
(290.98 0 0)
(291.695 0 0)
(292.38 0 0)
(293.034 0 0)
(293.657 0 0)
(294.25 0 0)
(294.811 0 0)
(295.342 0 0)
(295.843 0 0)
(296.313 0 0)
(296.752 0 0)
(297.16 0 0)
(297.537 0 0)
(297.883 0 0)
(298.197 0 0)
(298.48 0 0)
(298.731 0 0)
(298.95 0 0)
(299.136 0 0)
(299.289 0 0)
(299.409 0 0)
(299.495 0 0)
(299.547 0 0)
(299.563 0 0)
(299.545 0 0)
(299.49 0 0)
(299.398 0 0)
(299.268 0 0)
(299.1 0 0)
(298.892 0 0)
(298.644 0 0)
(298.354 0 0)
(298.02 0 0)
(297.643 0 0)
(297.219 0 0)
(296.748 0 0)
(296.227 0 0)
(295.655 0 0)
(295.029 0 0)
(294.347 0 0)
(293.605 0 0)
(292.802 0 0)
(291.933 0 0)
(290.994 0 0)
(289.981 0 0)
(288.89 0 0)
(287.712 0 0)
(286.436 0 0)
(285.049 0 0)
(283.632 0 0)
(281.963 0 0)
(280.609 0 0)
(276.823 0 0)
(277.367 0 0)
(274.706 0 0)
(265.408 0 0)
(266.894 0 0)
(268.339 0 0)
(269.744 0 0)
(271.11 0 0)
(272.437 0 0)
(273.728 0 0)
(274.982 0 0)
(276.2 0 0)
(277.383 0 0)
(278.532 0 0)
(279.647 0 0)
(280.728 0 0)
(281.777 0 0)
(282.794 0 0)
(283.779 0 0)
(284.732 0 0)
(285.654 0 0)
(286.546 0 0)
(287.407 0 0)
(288.238 0 0)
(289.039 0 0)
(289.81 0 0)
(290.552 0 0)
(291.264 0 0)
(291.948 0 0)
(292.602 0 0)
(293.227 0 0)
(293.823 0 0)
(294.391 0 0)
(294.93 0 0)
(295.439 0 0)
(295.92 0 0)
(296.372 0 0)
(296.796 0 0)
(297.189 0 0)
(297.554 0 0)
(297.89 0 0)
(298.195 0 0)
(298.471 0 0)
(298.717 0 0)
(298.933 0 0)
(299.118 0 0)
(299.272 0 0)
(299.395 0 0)
(299.486 0 0)
(299.545 0 0)
(299.571 0 0)
(299.564 0 0)
(299.524 0 0)
(299.448 0 0)
(299.338 0 0)
(299.191 0 0)
(299.008 0 0)
(298.786 0 0)
(298.527 0 0)
(298.227 0 0)
(297.886 0 0)
(297.503 0 0)
(297.076 0 0)
(296.604 0 0)
(296.085 0 0)
(295.517 0 0)
(294.898 0 0)
(294.225 0 0)
(293.497 0 0)
(292.709 0 0)
(291.86 0 0)
(290.944 0 0)
(289.959 0 0)
(288.899 0 0)
(287.764 0 0)
(286.519 0 0)
(285.234 0 0)
(283.692 0 0)
(282.519 0 0)
(280.389 0 0)
(278.55 0 0)
(276.33 0 0)
(267.09 0 0)
(268.486 0 0)
(269.844 0 0)
(271.166 0 0)
(272.452 0 0)
(273.704 0 0)
(274.921 0 0)
(276.104 0 0)
(277.255 0 0)
(278.373 0 0)
(279.459 0 0)
(280.514 0 0)
(281.539 0 0)
(282.533 0 0)
(283.496 0 0)
(284.43 0 0)
(285.335 0 0)
(286.211 0 0)
(287.058 0 0)
(287.877 0 0)
(288.667 0 0)
(289.43 0 0)
(290.164 0 0)
(290.871 0 0)
(291.55 0 0)
(292.202 0 0)
(292.827 0 0)
(293.425 0 0)
(293.995 0 0)
(294.538 0 0)
(295.054 0 0)
(295.543 0 0)
(296.004 0 0)
(296.439 0 0)
(296.846 0 0)
(297.226 0 0)
(297.578 0 0)
(297.903 0 0)
(298.199 0 0)
(298.468 0 0)
(298.709 0 0)
(298.921 0 0)
(299.104 0 0)
(299.258 0 0)
(299.383 0 0)
(299.477 0 0)
(299.542 0 0)
(299.576 0 0)
(299.579 0 0)
(299.55 0 0)
(299.489 0 0)
(299.395 0 0)
(299.268 0 0)
(299.106 0 0)
(298.909 0 0)
(298.676 0 0)
(298.407 0 0)
(298.099 0 0)
(297.752 0 0)
(297.365 0 0)
(296.936 0 0)
(296.465 0 0)
(295.948 0 0)
(295.385 0 0)
(294.774 0 0)
(294.112 0 0)
(293.396 0 0)
(292.626 0 0)
(291.796 0 0)
(290.905 0 0)
(289.946 0 0)
(288.923 0 0)
(287.809 0 0)
(286.654 0 0)
(285.317 0 0)
(284.018 0 0)
(282.56 0 0)
(281.059 0 0)
(278.6 0 0)
(268.681 0 0)
(269.993 0 0)
(271.271 0 0)
(272.516 0 0)
(273.728 0 0)
(274.908 0 0)
(276.056 0 0)
(277.174 0 0)
(278.261 0 0)
(279.318 0 0)
(280.346 0 0)
(281.345 0 0)
(282.315 0 0)
(283.256 0 0)
(284.17 0 0)
(285.056 0 0)
(285.915 0 0)
(286.747 0 0)
(287.552 0 0)
(288.33 0 0)
(289.082 0 0)
(289.808 0 0)
(290.507 0 0)
(291.181 0 0)
(291.829 0 0)
(292.451 0 0)
(293.047 0 0)
(293.618 0 0)
(294.163 0 0)
(294.683 0 0)
(295.177 0 0)
(295.646 0 0)
(296.089 0 0)
(296.506 0 0)
(296.898 0 0)
(297.264 0 0)
(297.604 0 0)
(297.918 0 0)
(298.206 0 0)
(298.467 0 0)
(298.702 0 0)
(298.91 0 0)
(299.091 0 0)
(299.244 0 0)
(299.37 0 0)
(299.468 0 0)
(299.538 0 0)
(299.578 0 0)
(299.59 0 0)
(299.572 0 0)
(299.524 0 0)
(299.445 0 0)
(299.335 0 0)
(299.193 0 0)
(299.018 0 0)
(298.81 0 0)
(298.567 0 0)
(298.289 0 0)
(297.976 0 0)
(297.625 0 0)
(297.235 0 0)
(296.807 0 0)
(296.337 0 0)
(295.824 0 0)
(295.268 0 0)
(294.666 0 0)
(294.015 0 0)
(293.315 0 0)
(292.562 0 0)
(291.754 0 0)
(290.886 0 0)
(289.96 0 0)
(288.959 0 0)
(287.904 0 0)
(286.755 0 0)
(285.535 0 0)
(284.175 0 0)
(283.006 0 0)
(280.871 0 0)
(270.181 0 0)
(271.416 0 0)
(272.619 0 0)
(273.792 0 0)
(274.935 0 0)
(276.048 0 0)
(277.132 0 0)
(278.188 0 0)
(279.215 0 0)
(280.215 0 0)
(281.188 0 0)
(282.133 0 0)
(283.052 0 0)
(283.945 0 0)
(284.812 0 0)
(285.653 0 0)
(286.468 0 0)
(287.258 0 0)
(288.023 0 0)
(288.764 0 0)
(289.479 0 0)
(290.17 0 0)
(290.836 0 0)
(291.478 0 0)
(292.096 0 0)
(292.69 0 0)
(293.259 0 0)
(293.805 0 0)
(294.326 0 0)
(294.823 0 0)
(295.297 0 0)
(295.746 0 0)
(296.171 0 0)
(296.572 0 0)
(296.949 0 0)
(297.302 0 0)
(297.63 0 0)
(297.934 0 0)
(298.213 0 0)
(298.467 0 0)
(298.696 0 0)
(298.9 0 0)
(299.078 0 0)
(299.231 0 0)
(299.357 0 0)
(299.458 0 0)
(299.532 0 0)
(299.579 0 0)
(299.598 0 0)
(299.59 0 0)
(299.553 0 0)
(299.488 0 0)
(299.394 0 0)
(299.27 0 0)
(299.115 0 0)
(298.929 0 0)
(298.712 0 0)
(298.461 0 0)
(298.178 0 0)
(297.86 0 0)
(297.507 0 0)
(297.117 0 0)
(296.69 0 0)
(296.223 0 0)
(295.717 0 0)
(295.169 0 0)
(294.577 0 0)
(293.94 0 0)
(293.256 0 0)
(292.522 0 0)
(291.736 0 0)
(290.896 0 0)
(289.995 0 0)
(289.036 0 0)
(288.006 0 0)
(286.93 0 0)
(285.684 0 0)
(284.619 0 0)
(282.772 0 0)
(271.594 0 0)
(272.756 0 0)
(273.89 0 0)
(274.996 0 0)
(276.074 0 0)
(277.125 0 0)
(278.149 0 0)
(279.147 0 0)
(280.118 0 0)
(281.064 0 0)
(281.985 0 0)
(282.881 0 0)
(283.752 0 0)
(284.599 0 0)
(285.421 0 0)
(286.219 0 0)
(286.994 0 0)
(287.745 0 0)
(288.472 0 0)
(289.176 0 0)
(289.857 0 0)
(290.515 0 0)
(291.15 0 0)
(291.762 0 0)
(292.351 0 0)
(292.918 0 0)
(293.462 0 0)
(293.983 0 0)
(294.482 0 0)
(294.958 0 0)
(295.412 0 0)
(295.842 0 0)
(296.251 0 0)
(296.636 0 0)
(296.999 0 0)
(297.338 0 0)
(297.655 0 0)
(297.949 0 0)
(298.219 0 0)
(298.466 0 0)
(298.69 0 0)
(298.89 0 0)
(299.065 0 0)
(299.217 0 0)
(299.344 0 0)
(299.447 0 0)
(299.524 0 0)
(299.577 0 0)
(299.603 0 0)
(299.604 0 0)
(299.578 0 0)
(299.525 0 0)
(299.445 0 0)
(299.338 0 0)
(299.201 0 0)
(299.036 0 0)
(298.842 0 0)
(298.617 0 0)
(298.361 0 0)
(298.073 0 0)
(297.753 0 0)
(297.399 0 0)
(297.011 0 0)
(296.587 0 0)
(296.126 0 0)
(295.627 0 0)
(295.088 0 0)
(294.509 0 0)
(293.887 0 0)
(293.22 0 0)
(292.506 0 0)
(291.744 0 0)
(290.929 0 0)
(290.063 0 0)
(289.129 0 0)
(288.163 0 0)
(287.055 0 0)
(286.087 0 0)
(284.44 0 0)
(272.925 0 0)
(274.02 0 0)
(275.089 0 0)
(276.132 0 0)
(277.15 0 0)
(278.142 0 0)
(279.11 0 0)
(280.054 0 0)
(280.973 0 0)
(281.869 0 0)
(282.741 0 0)
(283.59 0 0)
(284.416 0 0)
(285.219 0 0)
(286 0 0)
(286.758 0 0)
(287.493 0 0)
(288.207 0 0)
(288.899 0 0)
(289.569 0 0)
(290.217 0 0)
(290.844 0 0)
(291.449 0 0)
(292.033 0 0)
(292.595 0 0)
(293.136 0 0)
(293.656 0 0)
(294.154 0 0)
(294.631 0 0)
(295.087 0 0)
(295.522 0 0)
(295.935 0 0)
(296.327 0 0)
(296.697 0 0)
(297.046 0 0)
(297.374 0 0)
(297.68 0 0)
(297.964 0 0)
(298.226 0 0)
(298.466 0 0)
(298.684 0 0)
(298.88 0 0)
(299.053 0 0)
(299.203 0 0)
(299.331 0 0)
(299.435 0 0)
(299.516 0 0)
(299.573 0 0)
(299.606 0 0)
(299.614 0 0)
(299.598 0 0)
(299.557 0 0)
(299.49 0 0)
(299.398 0 0)
(299.278 0 0)
(299.132 0 0)
(298.959 0 0)
(298.757 0 0)
(298.526 0 0)
(298.267 0 0)
(297.977 0 0)
(297.656 0 0)
(297.303 0 0)
(296.917 0 0)
(296.498 0 0)
(296.044 0 0)
(295.554 0 0)
(295.027 0 0)
(294.461 0 0)
(293.854 0 0)
(293.206 0 0)
(292.514 0 0)
(291.775 0 0)
(290.991 0 0)
(290.147 0 0)
(289.273 0 0)
(288.278 0 0)
(287.409 0 0)
(285.936 0 0)
(274.18 0 0)
(275.213 0 0)
(276.221 0 0)
(277.206 0 0)
(278.167 0 0)
(279.105 0 0)
(280.02 0 0)
(280.912 0 0)
(281.783 0 0)
(282.631 0 0)
(283.457 0 0)
(284.262 0 0)
(285.046 0 0)
(285.808 0 0)
(286.549 0 0)
(287.269 0 0)
(287.968 0 0)
(288.647 0 0)
(289.305 0 0)
(289.943 0 0)
(290.56 0 0)
(291.157 0 0)
(291.734 0 0)
(292.291 0 0)
(292.828 0 0)
(293.344 0 0)
(293.841 0 0)
(294.317 0 0)
(294.774 0 0)
(295.211 0 0)
(295.627 0 0)
(296.024 0 0)
(296.4 0 0)
(296.756 0 0)
(297.092 0 0)
(297.408 0 0)
(297.703 0 0)
(297.978 0 0)
(298.232 0 0)
(298.466 0 0)
(298.678 0 0)
(298.87 0 0)
(299.04 0 0)
(299.189 0 0)
(299.316 0 0)
(299.422 0 0)
(299.506 0 0)
(299.567 0 0)
(299.606 0 0)
(299.622 0 0)
(299.614 0 0)
(299.584 0 0)
(299.529 0 0)
(299.45 0 0)
(299.347 0 0)
(299.218 0 0)
(299.064 0 0)
(298.883 0 0)
(298.676 0 0)
(298.442 0 0)
(298.18 0 0)
(297.889 0 0)
(297.569 0 0)
(297.218 0 0)
(296.837 0 0)
(296.424 0 0)
(295.978 0 0)
(295.498 0 0)
(294.983 0 0)
(294.431 0 0)
(293.842 0 0)
(293.213 0 0)
(292.542 0 0)
(291.831 0 0)
(291.068 0 0)
(290.277 0 0)
(289.379 0 0)
(288.595 0 0)
(287.275 0 0)
(275.364 0 0)
(276.338 0 0)
(277.29 0 0)
(278.22 0 0)
(279.128 0 0)
(280.015 0 0)
(280.881 0 0)
(281.726 0 0)
(282.55 0 0)
(283.353 0 0)
(284.137 0 0)
(284.9 0 0)
(285.643 0 0)
(286.367 0 0)
(287.071 0 0)
(287.755 0 0)
(288.42 0 0)
(289.065 0 0)
(289.691 0 0)
(290.299 0 0)
(290.887 0 0)
(291.456 0 0)
(292.006 0 0)
(292.537 0 0)
(293.049 0 0)
(293.543 0 0)
(294.018 0 0)
(294.474 0 0)
(294.911 0 0)
(295.329 0 0)
(295.728 0 0)
(296.109 0 0)
(296.47 0 0)
(296.813 0 0)
(297.136 0 0)
(297.44 0 0)
(297.726 0 0)
(297.991 0 0)
(298.238 0 0)
(298.465 0 0)
(298.672 0 0)
(298.86 0 0)
(299.027 0 0)
(299.175 0 0)
(299.302 0 0)
(299.409 0 0)
(299.495 0 0)
(299.56 0 0)
(299.604 0 0)
(299.626 0 0)
(299.627 0 0)
(299.606 0 0)
(299.562 0 0)
(299.496 0 0)
(299.407 0 0)
(299.294 0 0)
(299.157 0 0)
(298.997 0 0)
(298.811 0 0)
(298.6 0 0)
(298.364 0 0)
(298.1 0 0)
(297.81 0 0)
(297.492 0 0)
(297.146 0 0)
(296.77 0 0)
(296.365 0 0)
(295.928 0 0)
(295.459 0 0)
(294.957 0 0)
(294.421 0 0)
(293.849 0 0)
(293.24 0 0)
(292.594 0 0)
(291.902 0 0)
(291.186 0 0)
(290.374 0 0)
(289.665 0 0)
(288.478 0 0)
(276.482 0 0)
(277.402 0 0)
(278.301 0 0)
(279.179 0 0)
(280.038 0 0)
(280.877 0 0)
(281.696 0 0)
(282.496 0 0)
(283.276 0 0)
(284.038 0 0)
(284.781 0 0)
(285.505 0 0)
(286.211 0 0)
(286.898 0 0)
(287.566 0 0)
(288.217 0 0)
(288.849 0 0)
(289.463 0 0)
(290.059 0 0)
(290.638 0 0)
(291.198 0 0)
(291.74 0 0)
(292.265 0 0)
(292.772 0 0)
(293.261 0 0)
(293.733 0 0)
(294.187 0 0)
(294.623 0 0)
(295.041 0 0)
(295.442 0 0)
(295.825 0 0)
(296.19 0 0)
(296.537 0 0)
(296.867 0 0)
(297.178 0 0)
(297.472 0 0)
(297.747 0 0)
(298.005 0 0)
(298.244 0 0)
(298.464 0 0)
(298.666 0 0)
(298.85 0 0)
(299.014 0 0)
(299.16 0 0)
(299.287 0 0)
(299.394 0 0)
(299.482 0 0)
(299.551 0 0)
(299.599 0 0)
(299.628 0 0)
(299.636 0 0)
(299.623 0 0)
(299.59 0 0)
(299.535 0 0)
(299.459 0 0)
(299.361 0 0)
(299.241 0 0)
(299.098 0 0)
(298.932 0 0)
(298.743 0 0)
(298.53 0 0)
(298.292 0 0)
(298.03 0 0)
(297.741 0 0)
(297.427 0 0)
(297.085 0 0)
(296.716 0 0)
(296.319 0 0)
(295.892 0 0)
(295.436 0 0)
(294.948 0 0)
(294.428 0 0)
(293.874 0 0)
(293.287 0 0)
(292.659 0 0)
(292.01 0 0)
(291.275 0 0)
(290.632 0 0)
(289.563 0 0)
(277.538 0 0)
(278.407 0 0)
(279.256 0 0)
(280.087 0 0)
(280.899 0 0)
(281.692 0 0)
(282.468 0 0)
(283.226 0 0)
(283.966 0 0)
(284.688 0 0)
(285.393 0 0)
(286.08 0 0)
(286.75 0 0)
(287.402 0 0)
(288.038 0 0)
(288.656 0 0)
(289.257 0 0)
(289.842 0 0)
(290.41 0 0)
(290.96 0 0)
(291.495 0 0)
(292.012 0 0)
(292.513 0 0)
(292.997 0 0)
(293.464 0 0)
(293.914 0 0)
(294.349 0 0)
(294.766 0 0)
(295.167 0 0)
(295.551 0 0)
(295.918 0 0)
(296.268 0 0)
(296.602 0 0)
(296.919 0 0)
(297.219 0 0)
(297.502 0 0)
(297.768 0 0)
(298.017 0 0)
(298.249 0 0)
(298.463 0 0)
(298.66 0 0)
(298.84 0 0)
(299.002 0 0)
(299.146 0 0)
(299.272 0 0)
(299.38 0 0)
(299.469 0 0)
(299.541 0 0)
(299.593 0 0)
(299.627 0 0)
(299.642 0 0)
(299.637 0 0)
(299.613 0 0)
(299.569 0 0)
(299.505 0 0)
(299.421 0 0)
(299.315 0 0)
(299.189 0 0)
(299.041 0 0)
(298.872 0 0)
(298.68 0 0)
(298.466 0 0)
(298.228 0 0)
(297.967 0 0)
(297.682 0 0)
(297.372 0 0)
(297.037 0 0)
(296.675 0 0)
(296.287 0 0)
(295.871 0 0)
(295.427 0 0)
(294.954 0 0)
(294.451 0 0)
(293.917 0 0)
(293.347 0 0)
(292.757 0 0)
(292.091 0 0)
(291.508 0 0)
(290.543 0 0)
(278.537 0 0)
(279.357 0 0)
(280.16 0 0)
(280.945 0 0)
(281.714 0 0)
(282.465 0 0)
(283.2 0 0)
(283.918 0 0)
(284.619 0 0)
(285.304 0 0)
(285.973 0 0)
(286.625 0 0)
(287.262 0 0)
(287.882 0 0)
(288.486 0 0)
(289.074 0 0)
(289.646 0 0)
(290.203 0 0)
(290.743 0 0)
(291.268 0 0)
(291.777 0 0)
(292.271 0 0)
(292.749 0 0)
(293.211 0 0)
(293.657 0 0)
(294.088 0 0)
(294.503 0 0)
(294.903 0 0)
(295.287 0 0)
(295.655 0 0)
(296.007 0 0)
(296.344 0 0)
(296.664 0 0)
(296.969 0 0)
(297.258 0 0)
(297.531 0 0)
(297.788 0 0)
(298.029 0 0)
(298.254 0 0)
(298.462 0 0)
(298.654 0 0)
(298.83 0 0)
(298.989 0 0)
(299.131 0 0)
(299.256 0 0)
(299.364 0 0)
(299.455 0 0)
(299.529 0 0)
(299.585 0 0)
(299.624 0 0)
(299.645 0 0)
(299.647 0 0)
(299.632 0 0)
(299.597 0 0)
(299.544 0 0)
(299.472 0 0)
(299.381 0 0)
(299.27 0 0)
(299.139 0 0)
(298.988 0 0)
(298.816 0 0)
(298.623 0 0)
(298.409 0 0)
(298.172 0 0)
(297.914 0 0)
(297.633 0 0)
(297.328 0 0)
(296.999 0 0)
(296.646 0 0)
(296.268 0 0)
(295.864 0 0)
(295.434 0 0)
(294.976 0 0)
(294.491 0 0)
(293.972 0 0)
(293.436 0 0)
(292.832 0 0)
(292.303 0 0)
(291.429 0 0)
(279.481 0 0)
(280.256 0 0)
(281.016 0 0)
(281.759 0 0)
(282.486 0 0)
(283.198 0 0)
(283.894 0 0)
(284.575 0 0)
(285.24 0 0)
(285.89 0 0)
(286.524 0 0)
(287.144 0 0)
(287.748 0 0)
(288.338 0 0)
(288.912 0 0)
(289.472 0 0)
(290.016 0 0)
(290.546 0 0)
(291.061 0 0)
(291.562 0 0)
(292.047 0 0)
(292.518 0 0)
(292.974 0 0)
(293.415 0 0)
(293.842 0 0)
(294.254 0 0)
(294.651 0 0)
(295.034 0 0)
(295.401 0 0)
(295.754 0 0)
(296.093 0 0)
(296.416 0 0)
(296.724 0 0)
(297.018 0 0)
(297.296 0 0)
(297.56 0 0)
(297.808 0 0)
(298.041 0 0)
(298.259 0 0)
(298.461 0 0)
(298.648 0 0)
(298.82 0 0)
(298.976 0 0)
(299.116 0 0)
(299.24 0 0)
(299.349 0 0)
(299.441 0 0)
(299.517 0 0)
(299.576 0 0)
(299.619 0 0)
(299.645 0 0)
(299.654 0 0)
(299.646 0 0)
(299.621 0 0)
(299.578 0 0)
(299.517 0 0)
(299.439 0 0)
(299.342 0 0)
(299.226 0 0)
(299.092 0 0)
(298.938 0 0)
(298.765 0 0)
(298.572 0 0)
(298.358 0 0)
(298.124 0 0)
(297.869 0 0)
(297.593 0 0)
(297.295 0 0)
(296.974 0 0)
(296.63 0 0)
(296.262 0 0)
(295.871 0 0)
(295.454 0 0)
(295.013 0 0)
(294.541 0 0)
(294.054 0 0)
(293.505 0 0)
(293.024 0 0)
(292.233 0 0)
(280.374 0 0)
(281.108 0 0)
(281.826 0 0)
(282.529 0 0)
(283.218 0 0)
(283.892 0 0)
(284.552 0 0)
(285.197 0 0)
(285.829 0 0)
(286.445 0 0)
(287.048 0 0)
(287.637 0 0)
(288.211 0 0)
(288.771 0 0)
(289.318 0 0)
(289.85 0 0)
(290.369 0 0)
(290.874 0 0)
(291.364 0 0)
(291.841 0 0)
(292.304 0 0)
(292.754 0 0)
(293.189 0 0)
(293.611 0 0)
(294.019 0 0)
(294.413 0 0)
(294.793 0 0)
(295.159 0 0)
(295.512 0 0)
(295.85 0 0)
(296.175 0 0)
(296.485 0 0)
(296.782 0 0)
(297.064 0 0)
(297.333 0 0)
(297.587 0 0)
(297.827 0 0)
(298.052 0 0)
(298.264 0 0)
(298.46 0 0)
(298.643 0 0)
(298.81 0 0)
(298.963 0 0)
(299.101 0 0)
(299.225 0 0)
(299.333 0 0)
(299.426 0 0)
(299.503 0 0)
(299.566 0 0)
(299.612 0 0)
(299.643 0 0)
(299.658 0 0)
(299.657 0 0)
(299.64 0 0)
(299.607 0 0)
(299.556 0 0)
(299.489 0 0)
(299.405 0 0)
(299.303 0 0)
(299.184 0 0)
(299.047 0 0)
(298.892 0 0)
(298.719 0 0)
(298.526 0 0)
(298.315 0 0)
(298.084 0 0)
(297.834 0 0)
(297.563 0 0)
(297.271 0 0)
(296.959 0 0)
(296.625 0 0)
(296.268 0 0)
(295.889 0 0)
(295.488 0 0)
(295.059 0 0)
(294.616 0 0)
(294.117 0 0)
(293.68 0 0)
(292.963 0 0)
(281.22 0 0)
(281.914 0 0)
(282.593 0 0)
(283.259 0 0)
(283.912 0 0)
(284.551 0 0)
(285.177 0 0)
(285.789 0 0)
(286.388 0 0)
(286.973 0 0)
(287.546 0 0)
(288.105 0 0)
(288.651 0 0)
(289.184 0 0)
(289.704 0 0)
(290.211 0 0)
(290.705 0 0)
(291.185 0 0)
(291.653 0 0)
(292.108 0 0)
(292.55 0 0)
(292.979 0 0)
(293.395 0 0)
(293.798 0 0)
(294.188 0 0)
(294.565 0 0)
(294.928 0 0)
(295.279 0 0)
(295.617 0 0)
(295.942 0 0)
(296.253 0 0)
(296.552 0 0)
(296.837 0 0)
(297.109 0 0)
(297.368 0 0)
(297.613 0 0)
(297.845 0 0)
(298.063 0 0)
(298.268 0 0)
(298.459 0 0)
(298.637 0 0)
(298.801 0 0)
(298.951 0 0)
(299.087 0 0)
(299.209 0 0)
(299.316 0 0)
(299.41 0 0)
(299.489 0 0)
(299.554 0 0)
(299.604 0 0)
(299.639 0 0)
(299.66 0 0)
(299.665 0 0)
(299.655 0 0)
(299.63 0 0)
(299.589 0 0)
(299.533 0 0)
(299.46 0 0)
(299.372 0 0)
(299.267 0 0)
(299.145 0 0)
(299.007 0 0)
(298.851 0 0)
(298.678 0 0)
(298.488 0 0)
(298.279 0 0)
(298.052 0 0)
(297.807 0 0)
(297.542 0 0)
(297.258 0 0)
(296.954 0 0)
(296.631 0 0)
(296.286 0 0)
(295.92 0 0)
(295.53 0 0)
(295.127 0 0)
(294.674 0 0)
(294.276 0 0)
(293.626 0 0)
(282.021 0 0)
(282.677 0 0)
(283.321 0 0)
(283.952 0 0)
(284.57 0 0)
(285.176 0 0)
(285.769 0 0)
(286.35 0 0)
(286.919 0 0)
(287.475 0 0)
(288.019 0 0)
(288.55 0 0)
(289.07 0 0)
(289.577 0 0)
(290.071 0 0)
(290.554 0 0)
(291.025 0 0)
(291.483 0 0)
(291.929 0 0)
(292.363 0 0)
(292.784 0 0)
(293.194 0 0)
(293.591 0 0)
(293.976 0 0)
(294.349 0 0)
(294.71 0 0)
(295.058 0 0)
(295.394 0 0)
(295.718 0 0)
(296.03 0 0)
(296.329 0 0)
(296.616 0 0)
(296.89 0 0)
(297.152 0 0)
(297.401 0 0)
(297.638 0 0)
(297.862 0 0)
(298.074 0 0)
(298.272 0 0)
(298.458 0 0)
(298.631 0 0)
(298.791 0 0)
(298.938 0 0)
(299.072 0 0)
(299.193 0 0)
(299.3 0 0)
(299.394 0 0)
(299.474 0 0)
(299.541 0 0)
(299.594 0 0)
(299.633 0 0)
(299.659 0 0)
(299.67 0 0)
(299.667 0 0)
(299.649 0 0)
(299.617 0 0)
(299.57 0 0)
(299.509 0 0)
(299.432 0 0)
(299.34 0 0)
(299.233 0 0)
(299.11 0 0)
(298.97 0 0)
(298.815 0 0)
(298.644 0 0)
(298.456 0 0)
(298.25 0 0)
(298.028 0 0)
(297.788 0 0)
(297.531 0 0)
(297.255 0 0)
(296.96 0 0)
(296.647 0 0)
(296.314 0 0)
(295.96 0 0)
(295.593 0 0)
(295.181 0 0)
(294.819 0 0)
(294.229 0 0)
(282.779 0 0)
(283.401 0 0)
(284.01 0 0)
(284.608 0 0)
(285.195 0 0)
(285.769 0 0)
(286.332 0 0)
(286.883 0 0)
(287.423 0 0)
(287.952 0 0)
(288.469 0 0)
(288.974 0 0)
(289.468 0 0)
(289.95 0 0)
(290.422 0 0)
(290.881 0 0)
(291.329 0 0)
(291.766 0 0)
(292.192 0 0)
(292.606 0 0)
(293.008 0 0)
(293.399 0 0)
(293.779 0 0)
(294.147 0 0)
(294.504 0 0)
(294.849 0 0)
(295.183 0 0)
(295.505 0 0)
(295.815 0 0)
(296.114 0 0)
(296.402 0 0)
(296.677 0 0)
(296.941 0 0)
(297.193 0 0)
(297.434 0 0)
(297.662 0 0)
(297.879 0 0)
(298.084 0 0)
(298.276 0 0)
(298.457 0 0)
(298.625 0 0)
(298.782 0 0)
(298.926 0 0)
(299.057 0 0)
(299.177 0 0)
(299.283 0 0)
(299.377 0 0)
(299.459 0 0)
(299.527 0 0)
(299.583 0 0)
(299.626 0 0)
(299.655 0 0)
(299.672 0 0)
(299.675 0 0)
(299.664 0 0)
(299.64 0 0)
(299.602 0 0)
(299.551 0 0)
(299.485 0 0)
(299.405 0 0)
(299.31 0 0)
(299.201 0 0)
(299.077 0 0)
(298.939 0 0)
(298.784 0 0)
(298.615 0 0)
(298.43 0 0)
(298.229 0 0)
(298.012 0 0)
(297.778 0 0)
(297.528 0 0)
(297.26 0 0)
(296.975 0 0)
(296.673 0 0)
(296.351 0 0)
(296.017 0 0)
(295.643 0 0)
(295.313 0 0)
(294.777 0 0)
(283.498 0 0)
(284.087 0 0)
(284.665 0 0)
(285.231 0 0)
(285.787 0 0)
(286.332 0 0)
(286.867 0 0)
(287.39 0 0)
(287.903 0 0)
(288.405 0 0)
(288.896 0 0)
(289.377 0 0)
(289.847 0 0)
(290.306 0 0)
(290.755 0 0)
(291.193 0 0)
(291.62 0 0)
(292.036 0 0)
(292.442 0 0)
(292.837 0 0)
(293.222 0 0)
(293.595 0 0)
(293.958 0 0)
(294.31 0 0)
(294.652 0 0)
(294.982 0 0)
(295.302 0 0)
(295.61 0 0)
(295.908 0 0)
(296.195 0 0)
(296.471 0 0)
(296.736 0 0)
(296.99 0 0)
(297.233 0 0)
(297.465 0 0)
(297.686 0 0)
(297.895 0 0)
(298.093 0 0)
(298.28 0 0)
(298.456 0 0)
(298.62 0 0)
(298.772 0 0)
(298.913 0 0)
(299.043 0 0)
(299.161 0 0)
(299.266 0 0)
(299.361 0 0)
(299.443 0 0)
(299.513 0 0)
(299.571 0 0)
(299.617 0 0)
(299.65 0 0)
(299.671 0 0)
(299.68 0 0)
(299.676 0 0)
(299.659 0 0)
(299.629 0 0)
(299.587 0 0)
(299.531 0 0)
(299.462 0 0)
(299.379 0 0)
(299.283 0 0)
(299.173 0 0)
(299.049 0 0)
(298.911 0 0)
(298.759 0 0)
(298.592 0 0)
(298.411 0 0)
(298.214 0 0)
(298.003 0 0)
(297.776 0 0)
(297.533 0 0)
(297.274 0 0)
(297 0 0)
(296.707 0 0)
(296.403 0 0)
(296.063 0 0)
(295.763 0 0)
(295.276 0 0)
(284.18 0 0)
(284.738 0 0)
(285.285 0 0)
(285.823 0 0)
(286.35 0 0)
(286.867 0 0)
(287.374 0 0)
(287.872 0 0)
(288.359 0 0)
(288.836 0 0)
(289.303 0 0)
(289.761 0 0)
(290.208 0 0)
(290.645 0 0)
(291.073 0 0)
(291.49 0 0)
(291.897 0 0)
(292.294 0 0)
(292.681 0 0)
(293.059 0 0)
(293.426 0 0)
(293.783 0 0)
(294.13 0 0)
(294.466 0 0)
(294.793 0 0)
(295.109 0 0)
(295.416 0 0)
(295.712 0 0)
(295.998 0 0)
(296.273 0 0)
(296.538 0 0)
(296.793 0 0)
(297.038 0 0)
(297.272 0 0)
(297.495 0 0)
(297.708 0 0)
(297.911 0 0)
(298.103 0 0)
(298.284 0 0)
(298.454 0 0)
(298.614 0 0)
(298.763 0 0)
(298.901 0 0)
(299.028 0 0)
(299.145 0 0)
(299.25 0 0)
(299.343 0 0)
(299.426 0 0)
(299.498 0 0)
(299.558 0 0)
(299.606 0 0)
(299.643 0 0)
(299.668 0 0)
(299.682 0 0)
(299.684 0 0)
(299.674 0 0)
(299.651 0 0)
(299.617 0 0)
(299.57 0 0)
(299.511 0 0)
(299.44 0 0)
(299.355 0 0)
(299.258 0 0)
(299.148 0 0)
(299.025 0 0)
(298.889 0 0)
(298.739 0 0)
(298.575 0 0)
(298.398 0 0)
(298.206 0 0)
(298.001 0 0)
(297.781 0 0)
(297.546 0 0)
(297.297 0 0)
(297.031 0 0)
(296.755 0 0)
(296.446 0 0)
(296.173 0 0)
(295.731 0 0)
(284.827 0 0)
(285.355 0 0)
(285.874 0 0)
(286.384 0 0)
(286.884 0 0)
(287.375 0 0)
(287.857 0 0)
(288.33 0 0)
(288.793 0 0)
(289.246 0 0)
(289.691 0 0)
(290.126 0 0)
(290.552 0 0)
(290.968 0 0)
(291.375 0 0)
(291.773 0 0)
(292.161 0 0)
(292.54 0 0)
(292.91 0 0)
(293.27 0 0)
(293.621 0 0)
(293.962 0 0)
(294.294 0 0)
(294.616 0 0)
(294.928 0 0)
(295.232 0 0)
(295.525 0 0)
(295.809 0 0)
(296.083 0 0)
(296.348 0 0)
(296.603 0 0)
(296.848 0 0)
(297.083 0 0)
(297.309 0 0)
(297.524 0 0)
(297.73 0 0)
(297.926 0 0)
(298.112 0 0)
(298.288 0 0)
(298.453 0 0)
(298.609 0 0)
(298.754 0 0)
(298.889 0 0)
(299.014 0 0)
(299.129 0 0)
(299.233 0 0)
(299.326 0 0)
(299.409 0 0)
(299.482 0 0)
(299.543 0 0)
(299.594 0 0)
(299.634 0 0)
(299.663 0 0)
(299.682 0 0)
(299.689 0 0)
(299.685 0 0)
(299.669 0 0)
(299.642 0 0)
(299.604 0 0)
(299.554 0 0)
(299.493 0 0)
(299.419 0 0)
(299.334 0 0)
(299.237 0 0)
(299.127 0 0)
(299.005 0 0)
(298.871 0 0)
(298.724 0 0)
(298.564 0 0)
(298.391 0 0)
(298.205 0 0)
(298.006 0 0)
(297.793 0 0)
(297.567 0 0)
(297.325 0 0)
(297.075 0 0)
(296.794 0 0)
(296.546 0 0)
(296.145 0 0)
(285.44 0 0)
(285.941 0 0)
(286.434 0 0)
(286.917 0 0)
(287.392 0 0)
(287.858 0 0)
(288.316 0 0)
(288.765 0 0)
(289.205 0 0)
(289.637 0 0)
(290.06 0 0)
(290.474 0 0)
(290.879 0 0)
(291.276 0 0)
(291.664 0 0)
(292.043 0 0)
(292.413 0 0)
(292.775 0 0)
(293.128 0 0)
(293.472 0 0)
(293.807 0 0)
(294.133 0 0)
(294.45 0 0)
(294.759 0 0)
(295.058 0 0)
(295.348 0 0)
(295.63 0 0)
(295.902 0 0)
(296.165 0 0)
(296.42 0 0)
(296.665 0 0)
(296.9 0 0)
(297.127 0 0)
(297.344 0 0)
(297.552 0 0)
(297.751 0 0)
(297.94 0 0)
(298.12 0 0)
(298.291 0 0)
(298.452 0 0)
(298.603 0 0)
(298.745 0 0)
(298.877 0 0)
(299 0 0)
(299.113 0 0)
(299.216 0 0)
(299.309 0 0)
(299.392 0 0)
(299.465 0 0)
(299.528 0 0)
(299.581 0 0)
(299.624 0 0)
(299.657 0 0)
(299.679 0 0)
(299.691 0 0)
(299.692 0 0)
(299.683 0 0)
(299.663 0 0)
(299.632 0 0)
(299.591 0 0)
(299.539 0 0)
(299.475 0 0)
(299.401 0 0)
(299.315 0 0)
(299.218 0 0)
(299.109 0 0)
(298.989 0 0)
(298.857 0 0)
(298.714 0 0)
(298.558 0 0)
(298.39 0 0)
(298.21 0 0)
(298.017 0 0)
(297.812 0 0)
(297.593 0 0)
(297.366 0 0)
(297.111 0 0)
(296.885 0 0)
(296.521 0 0)
(286.022 0 0)
(286.498 0 0)
(286.965 0 0)
(287.424 0 0)
(287.875 0 0)
(288.318 0 0)
(288.752 0 0)
(289.179 0 0)
(289.598 0 0)
(290.008 0 0)
(290.411 0 0)
(290.805 0 0)
(291.191 0 0)
(291.569 0 0)
(291.939 0 0)
(292.301 0 0)
(292.654 0 0)
(292.999 0 0)
(293.336 0 0)
(293.665 0 0)
(293.985 0 0)
(294.297 0 0)
(294.6 0 0)
(294.896 0 0)
(295.182 0 0)
(295.461 0 0)
(295.73 0 0)
(295.992 0 0)
(296.244 0 0)
(296.488 0 0)
(296.724 0 0)
(296.951 0 0)
(297.169 0 0)
(297.379 0 0)
(297.579 0 0)
(297.771 0 0)
(297.955 0 0)
(298.129 0 0)
(298.294 0 0)
(298.451 0 0)
(298.598 0 0)
(298.736 0 0)
(298.866 0 0)
(298.986 0 0)
(299.097 0 0)
(299.199 0 0)
(299.291 0 0)
(299.374 0 0)
(299.448 0 0)
(299.512 0 0)
(299.567 0 0)
(299.613 0 0)
(299.648 0 0)
(299.674 0 0)
(299.69 0 0)
(299.697 0 0)
(299.693 0 0)
(299.68 0 0)
(299.656 0 0)
(299.622 0 0)
(299.578 0 0)
(299.524 0 0)
(299.46 0 0)
(299.385 0 0)
(299.299 0 0)
(299.203 0 0)
(299.096 0 0)
(298.978 0 0)
(298.849 0 0)
(298.709 0 0)
(298.557 0 0)
(298.395 0 0)
(298.221 0 0)
(298.035 0 0)
(297.837 0 0)
(297.63 0 0)
(297.399 0 0)
(297.194 0 0)
(296.864 0 0)
(286.575 0 0)
(287.026 0 0)
(287.469 0 0)
(287.905 0 0)
(288.333 0 0)
(288.754 0 0)
(289.167 0 0)
(289.573 0 0)
(289.971 0 0)
(290.362 0 0)
(290.745 0 0)
(291.121 0 0)
(291.489 0 0)
(291.849 0 0)
(292.202 0 0)
(292.546 0 0)
(292.884 0 0)
(293.213 0 0)
(293.535 0 0)
(293.849 0 0)
(294.155 0 0)
(294.453 0 0)
(294.744 0 0)
(295.026 0 0)
(295.301 0 0)
(295.568 0 0)
(295.827 0 0)
(296.077 0 0)
(296.32 0 0)
(296.555 0 0)
(296.781 0 0)
(297 0 0)
(297.21 0 0)
(297.412 0 0)
(297.605 0 0)
(297.791 0 0)
(297.968 0 0)
(298.137 0 0)
(298.297 0 0)
(298.449 0 0)
(298.593 0 0)
(298.728 0 0)
(298.854 0 0)
(298.972 0 0)
(299.081 0 0)
(299.182 0 0)
(299.274 0 0)
(299.357 0 0)
(299.431 0 0)
(299.496 0 0)
(299.552 0 0)
(299.6 0 0)
(299.638 0 0)
(299.667 0 0)
(299.688 0 0)
(299.698 0 0)
(299.7 0 0)
(299.692 0 0)
(299.675 0 0)
(299.648 0 0)
(299.612 0 0)
(299.566 0 0)
(299.511 0 0)
(299.446 0 0)
(299.371 0 0)
(299.286 0 0)
(299.191 0 0)
(299.085 0 0)
(298.97 0 0)
(298.844 0 0)
(298.708 0 0)
(298.562 0 0)
(298.405 0 0)
(298.237 0 0)
(298.057 0 0)
(297.871 0 0)
(297.661 0 0)
(297.475 0 0)
(297.176 0 0)
(287.1 0 0)
(287.528 0 0)
(287.949 0 0)
(288.363 0 0)
(288.77 0 0)
(289.169 0 0)
(289.562 0 0)
(289.948 0 0)
(290.327 0 0)
(290.699 0 0)
(291.064 0 0)
(291.422 0 0)
(291.772 0 0)
(292.116 0 0)
(292.452 0 0)
(292.781 0 0)
(293.103 0 0)
(293.418 0 0)
(293.725 0 0)
(294.025 0 0)
(294.318 0 0)
(294.603 0 0)
(294.881 0 0)
(295.152 0 0)
(295.415 0 0)
(295.671 0 0)
(295.919 0 0)
(296.16 0 0)
(296.393 0 0)
(296.618 0 0)
(296.836 0 0)
(297.046 0 0)
(297.249 0 0)
(297.444 0 0)
(297.631 0 0)
(297.81 0 0)
(297.981 0 0)
(298.145 0 0)
(298.3 0 0)
(298.448 0 0)
(298.588 0 0)
(298.719 0 0)
(298.843 0 0)
(298.958 0 0)
(299.066 0 0)
(299.165 0 0)
(299.256 0 0)
(299.339 0 0)
(299.413 0 0)
(299.479 0 0)
(299.537 0 0)
(299.586 0 0)
(299.627 0 0)
(299.659 0 0)
(299.683 0 0)
(299.698 0 0)
(299.704 0 0)
(299.701 0 0)
(299.69 0 0)
(299.67 0 0)
(299.641 0 0)
(299.603 0 0)
(299.556 0 0)
(299.499 0 0)
(299.434 0 0)
(299.359 0 0)
(299.275 0 0)
(299.182 0 0)
(299.079 0 0)
(298.967 0 0)
(298.845 0 0)
(298.713 0 0)
(298.571 0 0)
(298.42 0 0)
(298.258 0 0)
(298.089 0 0)
(297.899 0 0)
(297.73 0 0)
(297.459 0 0)
(287.599 0 0)
(288.006 0 0)
(288.405 0 0)
(288.798 0 0)
(289.185 0 0)
(289.565 0 0)
(289.938 0 0)
(290.305 0 0)
(290.666 0 0)
(291.02 0 0)
(291.368 0 0)
(291.708 0 0)
(292.043 0 0)
(292.37 0 0)
(292.691 0 0)
(293.005 0 0)
(293.312 0 0)
(293.613 0 0)
(293.907 0 0)
(294.193 0 0)
(294.474 0 0)
(294.747 0 0)
(295.013 0 0)
(295.272 0 0)
(295.524 0 0)
(295.769 0 0)
(296.008 0 0)
(296.239 0 0)
(296.463 0 0)
(296.679 0 0)
(296.889 0 0)
(297.091 0 0)
(297.286 0 0)
(297.474 0 0)
(297.655 0 0)
(297.828 0 0)
(297.994 0 0)
(298.152 0 0)
(298.303 0 0)
(298.447 0 0)
(298.583 0 0)
(298.711 0 0)
(298.832 0 0)
(298.945 0 0)
(299.051 0 0)
(299.148 0 0)
(299.238 0 0)
(299.321 0 0)
(299.395 0 0)
(299.462 0 0)
(299.521 0 0)
(299.571 0 0)
(299.614 0 0)
(299.649 0 0)
(299.676 0 0)
(299.694 0 0)
(299.705 0 0)
(299.707 0 0)
(299.701 0 0)
(299.687 0 0)
(299.664 0 0)
(299.633 0 0)
(299.594 0 0)
(299.546 0 0)
(299.489 0 0)
(299.424 0 0)
(299.35 0 0)
(299.268 0 0)
(299.177 0 0)
(299.076 0 0)
(298.967 0 0)
(298.849 0 0)
(298.721 0 0)
(298.585 0 0)
(298.439 0 0)
(298.286 0 0)
(298.115 0 0)
(297.962 0 0)
(297.717 0 0)
(288.074 0 0)
(288.459 0 0)
(288.839 0 0)
(289.212 0 0)
(289.579 0 0)
(289.941 0 0)
(290.296 0 0)
(290.646 0 0)
(290.989 0 0)
(291.326 0 0)
(291.657 0 0)
(291.982 0 0)
(292.3 0 0)
(292.613 0 0)
(292.919 0 0)
(293.219 0 0)
(293.512 0 0)
(293.799 0 0)
(294.08 0 0)
(294.355 0 0)
(294.622 0 0)
(294.884 0 0)
(295.139 0 0)
(295.387 0 0)
(295.629 0 0)
(295.864 0 0)
(296.093 0 0)
(296.314 0 0)
(296.53 0 0)
(296.738 0 0)
(296.94 0 0)
(297.135 0 0)
(297.323 0 0)
(297.504 0 0)
(297.678 0 0)
(297.846 0 0)
(298.006 0 0)
(298.16 0 0)
(298.306 0 0)
(298.445 0 0)
(298.578 0 0)
(298.703 0 0)