/*--------------------------------*- C++ -*----------------------------------*\
| =========                 |                                                 |
| \\      /  F ield         | OpenFOAM: The Open Source CFD Toolbox           |
|  \\    /   O peration     | Version:  2312                                  |
|   \\  /    A nd           | Website:  www.openfoam.com                      |
|    \\/     M anipulation  |                                                 |
\*---------------------------------------------------------------------------*/
FoamFile
{
    version     2.0;
    format      ascii;
    arch        "LSB;label=32;scalar=64";
    class       surfaceScalarField;
    location    "0.725";
    object      phi;
}
// * * * * * * * * * * * * * * * * * * * * * * * * * * * * * * * * * * * * * //

dimensions      [0 3 -1 0 0 0 0];

oriented        oriented;

internalField   nonuniform List<scalar> 
62015
(
72.0044
0.378686
-72.0421
71.9594
0.3726
71.9079
0.36624
71.8504
0.359613
71.7876
0.352725
71.7201
0.345582
71.6485
0.33819
71.5734
0.330556
71.4952
0.322686
71.4144
0.314587
71.3316
0.306264
71.2472
0.297724
71.1616
0.288975
71.0752
0.280022
70.9884
0.270873
70.9016
0.261535
70.815
0.252014
70.7291
0.242318
70.644
0.232453
70.5602
0.222428
70.4778
0.212248
70.3971
0.201923
70.3183
0.191458
70.2417
0.180862
70.1673
0.170144
70.0953
0.159309
70.026
0.148366
69.9593
0.137322
69.8955
0.126188
69.8345
0.114969
69.7765
0.103674
69.7215
0.0923112
69.6694
0.0808901
69.6203
0.0694175
69.5741
0.0579032
69.5308
0.0463546
69.4903
0.0347818
69.4525
0.023192
69.4172
0.0115952
69.3843
0
69.3536
-0.0115848
69.3247
-0.0231488
69.2976
-0.0346848
69.2719
-0.0461812
69.2472
-0.0576302
69.2231
-0.0690208
69.1993
-0.0803443
69.1753
-0.0915894
69.1505
-0.102748
69.1244
-0.113807
69.0963
-0.124757
69.0655
-0.135588
69.0313
-0.146288
68.9926
-0.156846
68.9487
-0.167249
68.8983
-0.177485
68.8403
-0.187542
68.7732
-0.197405
68.6955
-0.207062
68.6054
-0.216496
68.5011
-0.225691
68.38
-0.234631
68.2383
-0.243295
68.0739
-0.25166
67.8888
-0.259704
67.6779
-0.267424
67.3999
-0.274791
67.0107
-0.28162
66.6607
-0.28769
66.7614
-0.293625
66.961
-0.301326
64.3228
-0.309379
55.5118
-0.30393
43.2164
-0.267765
33.975
-0.212296
29.7999
-0.169846
28.553
-0.15166
28.4264
-0.147708
-0.149568
28.5754
70.1292
0.749134
-70.1862
70.0664
0.736892
69.9982
0.724126
69.9251
0.710849
69.8479
0.69707
69.7669
0.682803
69.6828
0.668058
69.596
0.652848
69.507
0.637184
69.4163
0.621078
69.3242
0.604544
69.2312
0.587593
69.1376
0.570238
69.0439
0.552492
68.9503
0.534368
68.8573
0.515879
68.7651
0.497039
68.6739
0.47786
68.5842
0.458358
68.4961
0.438544
68.4098
0.418435
68.3257
0.398044
68.2439
0.377385
68.1645
0.356473
68.0878
0.335322
68.0138
0.313948
67.9428
0.292366
67.8749
0.270591
67.81
0.248638
67.7483
0.226523
67.6899
0.204262
67.6348
0.18187
67.583
0.159363
67.5344
0.136759
67.4891
0.114073
67.447
0.0913215
67.4081
0.0685215
67.3721
0.0456896
67.3391
0.0228436
67.3089
0
67.2812
-0.0228236
67.2559
-0.0456092
67.2327
-0.0683396
67.2114
-0.0909967
67.1917
-0.113561
67.1732
-0.136016
67.1556
-0.158342
67.1384
-0.180519
67.1213
-0.202529
67.1036
-0.224351
67.0848
-0.245966
67.0642
-0.267353
67.0413
-0.288492
67.0152
-0.309359
66.9851
-0.329933
66.95
-0.350192
66.9089
-0.370111
66.8606
-0.389665
66.8037
-0.408829
66.7369
-0.427574
66.6583
-0.445871
66.5663
-0.463691
66.4583
-0.480999
66.3307
-0.497756
66.1818
-0.513916
66.0138
-0.529441
65.821
-0.544329
65.5617
-0.558515
65.1946
-0.571614
64.8772
-0.5832
65.017
-0.594633
65.2363
-0.609807
62.603
-0.625527
53.9
-0.613167
41.8906
-0.538421
32.9678
-0.425786
28.9681
-0.340735
27.8112
-0.304296
-0.296962
27.6851
68.2986
1.11143
-68.3729
68.2195
1.09298
68.1362
1.07378
68.0491
1.05384
67.9587
1.03319
67.8655
1.01183
67.77
0.989776
67.6726
0.967056
67.5738
0.943681
67.4739
0.91967
67.3734
0.89504
67.2725
0.869808
67.1717
0.843993
67.0713
0.817613
66.9716
0.790688
66.8729
0.763234
66.7755
0.735273
66.6797
0.706823
66.5856
0.677905
66.4936
0.648537
66.4038
0.618742
66.3165
0.588538
66.2319
0.557947
66.15
0.52699
66.0711
0.495688
65.9953
0.464062
65.9227
0.432135
65.8535
0.39993
65.7876
0.367466
65.7252
0.334768
65.6663
0.301858
65.611
0.268759
65.5593
0.235494
65.5111
0.202087
65.4664
0.168562
65.4253
0.134941
65.3875
0.101251
65.3531
0.0675134
65.322
0.0337554
65.2939
0
65.2688
-0.0337269
65.2464
-0.0673996
65.2265
-0.100993
65.209
-0.134481
65.1935
-0.167837
65.1797
-0.201035
65.1673
-0.234048
65.156
-0.266848
65.1453
-0.299408
65.1347
-0.3317
65.1238
-0.363694
65.1121
-0.395363
65.0988
-0.426675
65.0834
-0.457601
65.065
-0.488109
65.043
-0.518167
65.0163
-0.547741
64.9839
-0.576797
64.9448
-0.605299
64.8977
-0.633209
64.841
-0.660487
64.7734
-0.687091
64.6929
-0.712976
64.5972
-0.738095
64.483
-0.762391
64.3486
-0.785795
64.1964
-0.808255
64.0206
-0.829773
63.7798
-0.850249
63.4348
-0.86909
63.1459
-0.885669
63.3144
-0.902153
63.5449
-0.924509
60.9259
-0.947472
52.3487
-0.926945
40.6308
-0.81155
31.9993
-0.640513
28.173
-0.51232
-0.457271
27.2362
66.5045
1.46554
-66.5941
66.4113
1.44086
66.3146
1.41523
66.2151
1.38865
66.1132
1.36114
66.0093
1.33273
65.9038
1.30344
65.7971
1.27329
65.6897
1.2423
65.5818
1.2105
65.4738
1.17789
65.3662
1.14452
65.259
1.11039
65.1528
1.07554
65.0478
1.03999
64.9441
1.00376
64.8422
0.966882
64.7422
0.929371
64.6444
0.891257
64.549
0.852567
64.4562
0.813325
64.3661
0.773558
64.279
0.733293
64.195
0.692557
64.1142
0.651377
64.0368
0.609781
63.9629
0.567797
63.8925
0.525453
63.8257
0.482778
63.7627
0.439801
63.7035
0.396551
63.648
0.353058
63.5963
0.309352
63.5484
0.265462
63.5043
0.221419
63.4639
0.177255
63.4272
0.132999
63.3941
0.0886834
63.3646
0.0443399
63.3383
0
63.3154
-0.0443038
63.2955
-0.0885389
63.2785
-0.132673
63.2641
-0.176672
63.2522
-0.220503
63.2425
-0.264131
63.2346
-0.307523
63.2283
-0.350644
63.2231
-0.393458
63.2187
-0.43593
63.2146
-0.478023
63.2103
-0.5197
63.2053
-0.560924
63.1991
-0.601657
63.1909
-0.641857
63.18
-0.681487
63.1657
-0.720503
63.147
-0.758863
63.1231
-0.796523
63.0928
-0.833436
63.0549
-0.869554
63.008
-0.904824
62.9506
-0.939194
62.8812
-0.972606
62.7973
-1.005
62.6957
-1.0363
62.5751
-1.06642
62.438
-1.09529
62.2785
-1.12292
62.0553
-1.14919
61.7317
-1.17327
61.4697
-1.19436
61.6632
-1.21549
61.9045
-1.24468
59.3102
-1.27446
50.8782
-1.24496
39.4449
-1.08824
31.038
-0.858579
-0.679287
28.0736
64.7441
1.81143
-64.8468
64.6385
1.78053
64.5303
1.74847
64.4201
1.71528
64.3082
1.68098
64.1951
1.64559
64.081
1.60914
63.9663
1.57165
63.8515
1.53315
63.7368
1.49367
63.6225
1.45323
63.509
1.41185
63.3965
1.36958
63.2853
1.32643
63.1757
1.28243
63.0679
1.23762
62.9622
1.19201
62.8587
1.14565
62.7578
1.09856
62.6596
1.05078
62.5642
1.00233
62.4718
0.953246
62.3827
0.90356
62.2969
0.853307
62.2146
0.802517
62.1359
0.751225
62.0608
0.699465
61.9896
0.64727
61.9222
0.594675
61.8587
0.541716
61.7992
0.488427
61.7436
0.434844
61.6921
0.381004
61.6445
0.326942
61.6009
0.272695
61.5613
0.2183
61.5256
0.163796
61.4937
0.109219
61.4655
0.0546072
61.4409
0
61.4199
-0.0545643
61.4022
-0.109047
61.3877
-0.163408
61.3761
-0.217607
61.3674
-0.271605
61.3612
-0.32536
61.3572
-0.378831
61.3552
-0.431977
61.3549
-0.484756
61.3558
-0.537125
61.3576
-0.58904
61.3599
-0.640458
61.3622
-0.691335
61.3639
-0.741623
61.3645
-0.791277
61.3633
-0.840251
61.3598
-0.888494
61.353
-0.935957
61.3422
-0.982587
61.3264
-1.02833
61.3046
-1.07314
61.2757
-1.11694
61.2383
-1.15968
61.191
-1.2013
61.1323
-1.24172
61.0598
-1.28087
60.9707
-1.31867
60.8635
-1.355
60.7411
-1.38979
60.5974
-1.42306
60.3923
-1.45464
60.0903
-1.48352
59.8507
-1.5087
60.0607
-1.534
60.3228
-1.56953
57.8162
-1.60601
49.6276
-1.56787
38.2308
-1.37635
-1.0536
32.2157
63.0164
2.14909
-63.1306
62.9003
2.11199
62.7824
2.07355
62.663
2.0338
62.5427
1.99276
62.4216
1.95047
62.3002
1.90695
62.1788
1.86222
62.0577
1.81633
61.9372
1.7693
61.8176
1.72116
61.6992
1.67194
61.5822
1.62168
61.4669
1.5704
61.3535
1.51814
61.2423
1.46493
61.1335
1.41081
61.0272
1.35581
60.9237
1.29997
60.8232
1.24332
60.7257
1.18589
60.6316
1.12774
60.5409
1.06888
60.4537
1.00937
60.3702
0.949232
60.2905
0.888514
60.2147
0.827251
60.1428
0.765485
60.0749
0.703256
60.0112
0.640603
59.9515
0.577567
59.896
0.51419
59.8447
0.450515
59.7976
0.386582
59.7546
0.322435
59.7157
0.258117
59.6809
0.19367
59.6501
0.129139
59.6232
0.0645673
59.6002
0
59.5808
-0.0645182
59.5651
-0.128942
59.5528
-0.193226
59.5438
-0.257324
59.5379
-0.321189
59.5348
-0.384775
59.5343
-0.448034
59.5361
-0.510918
59.54
-0.573379
59.5457
-0.635368
59.5527
-0.696836
59.5607
-0.757731
59.5693
-0.818004
59.578
-0.877602
59.5863
-0.936473
59.5936
-0.994562
59.5994
-1.05182
59.603
-1.10818
59.6036
-1.16359
59.6005
-1.21799
59.5928
-1.27132
59.5794
-1.32351
59.5593
-1.3745
59.5312
-1.42421
59.4937
-1.47257
59.4455
-1.51951
59.3844
-1.56493
59.3074
-1.60874
59.2135
-1.65081
59.1052
-1.69105
58.9774
-1.7295
58.7914
-1.76597
58.5113
-1.79926
58.2881
-1.82816
58.5051
-1.85703
58.785
-1.89871
56.5833
-1.93869
47.9658
-1.91416
-1.596
41.2325
61.322
2.47853
-61.4457
61.1969
2.43527
61.0706
2.3905
60.9436
2.34425
60.816
2.29656
60.6884
2.24746
60.5609
2.19697
60.4338
2.14513
60.3075
2.09197
60.1822
2.03753
60.0583
1.98183
59.9358
1.92493
59.8151
1.86684
59.6965
1.80761
59.58
1.74727
59.466
1.68586
59.3547
1.62342
59.2462
1.55999
59.1407
1.49561
59.0383
1.43032
58.9393
1.36416
58.8438
1.29717
58.7519
1.22939
58.6637
1.16087
58.5794
1.09164
58.499
1.02176
58.4226
0.951266
58.3504
0.880201
58.2823
0.808614
58.2184
0.736548
58.1588
0.664051
58.1035
0.591168
58.0525
0.517949
58.0058
0.444438
57.9634
0.370686
57.9253
0.29674
57.8914
0.222649
57.8617
0.148461
57.836
0.074229
57.8144
0
57.7967
-0.0741744
57.7828
-0.148243
57.7725
-0.222155
57.7657
-0.295858
57.7623
-0.3693
57.7619
-0.442429
57.7645
-0.515191
57.7698
-0.587534
57.7774
-0.659402
57.7872
-0.730741
57.7988
-0.801496
57.8118
-0.871611
57.826
-0.94103
57.8408
-1.00969
57.8558
-1.07755
57.8706
-1.14453
57.8846
-1.21057
57.8972
-1.27563
57.9078
-1.33962
57.9157
-1.4025
57.9202
-1.46418
57.9203
-1.52461
57.9151
-1.5837
57.9037
-1.64139
57.8847
-1.6976
57.857
-1.75223
57.8191
-1.80521
57.7691
-1.85644
57.7042
-1.9058
57.6232
-1.95316
57.5289
-1.99842
57.4169
-2.04162
57.2511
-2.08257
56.9918
-2.12
56.7906
-2.15196
56.9357
-2.18569
57.5834
-2.22327
54.3128
-2.30818
-2.14692
50.6394
59.6612
2.79979
-59.793
59.5286
2.75043
59.3953
2.69939
59.2618
2.64674
59.1283
2.59248
58.9952
2.53666
58.8626
2.47932
58.7309
2.42048
58.6003
2.36019
58.4711
2.29847
58.3436
2.23538
58.2179
2.17094
58.0942
2.1052
57.9729
2.03819
57.854
1.96996
57.7379
1.90055
57.6246
1.82999
57.5144
1.75835
57.4074
1.68564
57.3037
1.61194
57.2035
1.53726
57.107
1.46167
57.0143
1.38521
56.9254
1.30793
56.8406
1.22987
56.7598
1.15108
56.6831
1.07161
56.6107
0.991517
56.5426
0.910842
56.4788
0.829638
56.4194
0.747956
56.3644
0.665848
56.3138
0.583366
56.2677
0.500563
56.2259
0.417492
56.1886
0.334206
56.1556
0.250759
56.1269
0.167206
56.1024
0.0836008
56.0821
0
56.0658
-0.0835412
56.0535
-0.166967
56.0451
-0.25022
56.0403
-0.333244
56.0391
-0.415981
56.0412
-0.498374
56.0465
-0.580363
56.0548
-0.661891
56.0657
-0.742898
56.0792
-0.823323
56.0948
-0.903108
56.1122
-0.982189
56.1312
-1.06051
56.1514
-1.138
56.1723
-1.2146
56.1936
-1.29024
56.2148
-1.36487
56.2353
-1.43841
56.2546
-1.5108
56.2721
-1.58196
56.2871
-1.65182
56.299
-1.72032
56.3068
-1.78738
56.3097
-1.85291
56.3067
-1.91684
56.2967
-1.97907
56.2786
-2.03952
56.2508
-2.09809
56.2118
-2.15468
56.1587
-2.20917
56.0905
-2.2614
56.0095
-2.31127
55.9142
-2.35878
55.7639
-2.40403
55.5544
-2.4444
55.2474
-2.48315
55.7749
-2.50562
55.3463
-2.59096
-2.56854
54.4289
58.0347
3.11295
-58.1733
57.8957
3.05754
57.7567
3.00033
57.6179
2.94134
57.4795
2.88062
57.3418
2.8182
57.2051
2.75412
57.0696
2.68841
56.9356
2.62112
56.8033
2.55228
56.6729
2.48194
56.5446
2.41013
56.4187
2.3369
56.2953
2.2623
56.1746
2.18636
56.0569
2.10914
55.9421
2.03067
55.8307
1.95101
55.7226
1.8702
55.618
1.78829
55.5171
1.70534
55.4199
1.62138
55.3267
1.53648
55.2374
1.45067
55.1523
1.36402
55.0714
1.27658
54.9947
1.1884
54.9223
1.09953
54.8543
1.01003
54.7908
0.919955
54.7317
0.829358
54.6771
0.738297
54.6271
0.646828
54.5815
0.555008
54.5404
0.462896
54.5039
0.370549
54.4717
0.278026
54.444
0.185388
54.4207
0.0926922
54.4016
0
54.3867
-0.0926282
54.3759
-0.185131
54.3691
-0.277448
54.3661
-0.369516
54.3669
-0.461274
54.3712
-0.552658
54.3789
-0.643606
54.3898
-0.734054
54.4037
-0.823937
54.4203
-0.913192
54.4394
-1.00175
54.4608
-1.08955
54.484
-1.17653
54.5089
-1.26261
54.535
-1.34773
54.5619
-1.43182
54.5893
-1.51481
54.6167
-1.59663
54.6435
-1.67721
54.6694
-1.75647
54.6936
-1.83434
54.7156
-1.91075
54.7347
-1.98561
54.75
-2.05884
54.7608
-2.13035
54.7661
-2.20007
54.7649
-2.26789
54.756
-2.33372
54.7383
-2.39746
54.7099
-2.45899
54.6686
-2.51819
54.6124
-2.57491
54.5468
-2.62891
54.4571
-2.68075
54.3638
-2.7284
54.0688
-2.77693
54.036
-2.80529
54.0724
-2.86139
-2.89141
54.0423
56.4427
3.41807
-56.5869
56.2987
3.35671
56.1549
3.2934
56.0117
3.22819
55.8693
3.16111
55.728
3.0922
55.588
3.0215
55.4496
2.94906
55.3129
2.87491
55.1782
2.79909
55.0456
2.72166
54.9154
2.64264
54.7877
2.5621
54.6628
2.48008
54.5408
2.39662
54.4219
2.31178
54.3062
2.2256
54.1939
2.13813
54.0851
2.04942
53.98
1.95954
53.8787
1.86852
53.7812
1.77642
53.6877
1.6833
53.5984
1.58922
53.5132
1.49422
53.4323
1.39837
53.3558
1.30172
53.2837
1.20434
53.216
1.10627
53.1528
1.00758
53.0942
0.908331
53.0401
0.80858
52.9906
0.70839
52.9457
0.607823
52.9054
0.506939
52.8696
0.405803
52.8384
0.304477
52.8116
0.203025
52.7893
0.101511
52.7713
0
52.7577
-0.101443
52.7483
-0.202753
52.7429
-0.303862
52.7416
-0.404707
52.7442
-0.505219
52.7504
-0.605331
52.7603
-0.704976
52.7735
-0.804085
52.7899
-0.90259
52.8093
-1.00042
52.8315
-1.09751
52.8562
-1.19379
52.8832
-1.28918
52.9121
-1.38362
52.9427
-1.47704
52.9745
-1.56935
53.0073
-1.66049
53.0407
-1.75039
53.0741
-1.83896
53.1072
-1.92614
53.1394
-2.01184
53.1702
-2.09598
53.1989
-2.17848
53.225
-2.25926
53.2477
-2.33823
53.2661
-2.41529
53.2795
-2.49037
53.2868
-2.56336
53.287
-2.63415
53.2789
-2.70264
53.2613
-2.76871
53.2306
-2.83227
53.1897
-2.89295
53.1264
-2.95128
53.0801
-3.00529
52.945
-3.06019
52.7756
-3.10362
52.6579
-3.14962
-3.18664
52.7034
54.8857
3.71526
-55.0344
54.7374
3.64803
54.5899
3.57872
54.4432
3.50739
54.2977
3.43406
54.1536
3.35879
54.0111
3.28161
53.8703
3.20256
53.7316
3.12169
53.5951
3.03905
53.4609
2.95468
53.3293
2.86863
53.2005
2.78095
53.0746
2.69169
52.9517
2.60089
52.8321
2.50862
52.7158
2.41492
52.603
2.31984
52.4939
2.22345
52.3886
2.1258
52.2871
2.02694
52.1896
1.92692
52.0962
1.82582
52.007
1.72369
51.922
1.62058
51.8414
1.51656
51.7652
1.41169
51.6934
1.30603
51.6262
1.19964
51.5635
1.09259
51.5054
0.984945
51.4519
0.876763
51.4031
0.76811
51.3589
0.659055
51.3193
0.549663
51.2843
0.44
51.2539
0.330134
51.2281
0.220133
51.2068
0.110065
51.1899
0
51.1774
-0.109994
51.1692
-0.219847
51.1652
-0.329489
51.1654
-0.438848
51.1695
-0.547856
51.1775
-0.656438
51.1892
-0.764526
51.2044
-0.872045
51.2231
-0.978923
51.245
-1.08509
51.2698
-1.19047
51.2974
-1.29498
51.3276
-1.39856
51.36
-1.50114
51.3945
-1.60262
51.4306
-1.70294
51.4681
-1.80203
51.5065
-1.8998
51.5456
-1.99617
51.585
-2.09106
51.624
-2.18441
51.6624
-2.27611
51.6995
-2.36609
51.7349
-2.45426
51.7677
-2.54053
51.7975
-2.62482
51.8234
-2.70703
51.8446
-2.78705
51.8602
-2.8648
51.8692
-2.94016
51.8708
-3.013
51.8623
-3.08328
51.8456
-3.15064
51.8096
-3.2155
51.7727
-3.27632
51.7194
-3.33573
51.6258
-3.39008
51.4594
-3.44212
-3.48068
51.4665
53.3636
4.00463
-53.5159
53.2121
3.93162
53.0615
3.85642
52.9122
3.77907
52.7644
3.69962
52.6181
3.6181
52.4737
3.53457
52.3313
3.44906
52.1911
3.36162
52.0533
3.27231
51.9181
3.18116
51.7856
3.08824
51.6561
2.99359
51.5296
2.89726
51.4062
2.79932
51.2863
2.6998
51.1698
2.59878
51.0569
2.4963
50.9478
2.39242
50.8425
2.28721
50.7411
2.18072
50.6439
2.07301
50.5507
1.96414
50.4619
1.85419
50.3773
1.7432
50.2971
1.63124
50.2214
1.51839
50.1501
1.40469
50.0834
1.29023
50.0214
1.17507
49.9639
1.05927
49.9111
0.942906
49.8629
0.826044
49.8195
0.708754
49.7806
0.591106
49.7465
0.473172
49.7169
0.355022
49.692
0.236728
49.6716
0.118364
49.6557
0
49.6443
-0.118289
49.6373
-0.23643
49.6345
-0.354349
49.6359
-0.471971
49.6415
-0.589222
49.651
-0.706026
49.6643
-0.822309
49.6814
-0.937993
49.7019
-1.053
49.7259
-1.16726
49.7531
-1.28069
49.7832
-1.39322
49.8162
-1.50476
49.8516
-1.61524
49.8894
-1.72458
49.9291
-1.83269
49.9706
-1.93951
50.0136
-2.04495
50.0575
-2.14893
50.1022
-2.25136
50.1472
-2.35216
50.1921
-2.45125
50.2364
-2.54854
50.2797
-2.64394
50.3213
-2.73737
50.3608
-2.82873
50.3974
-2.91793
50.4305
-3.00487
50.4593
-3.08945
50.4828
-3.17157
50.5006
-3.2511
50.5106
-3.32798
50.5136
-3.40194
50.5047
-3.47318
50.4846
-3.54093
50.4545
-3.60583
50.4243
-3.66672
50.3088
-3.7272
-3.77179
50.3258
51.8765
4.2863
-52.0316
51.7225
4.20761
51.5697
4.12663
51.4185
4.04338
51.2689
3.95792
51.1211
3.87029
50.9754
3.78053
50.8319
3.6887
50.6908
3.59484
50.5523
3.49901
50.4165
3.40125
50.2835
3.30162
50.1536
3.20017
50.0269
3.09696
49.9035
2.99204
49.7836
2.88547
49.6672
2.77732
49.5545
2.66763
49.4456
2.55647
49.3406
2.44391
49.2397
2.32999
49.1428
2.2148
49.0502
2.09839
48.9618
1.98083
48.8778
1.86219
48.7982
1.74253
48.7231
1.62191
48.6525
1.50042
48.5865
1.37812
48.5251
1.25508
48.4683
1.13138
48.4162
1.00707
48.3688
0.882242
48.3261
0.756963
48.2881
0.631307
48.2547
0.505349
48.226
0.379164
48.2019
0.252827
48.1825
0.126413
48.1675
0
48.1571
-0.126336
48.1511
-0.252517
48.1494
-0.378467
48.152
-0.504106
48.1587
-0.629357
48.1696
-0.75414
48.1843
-0.878377
48.2029
-1.00199
48.2252
-1.12489
48.251
-1.24701
48.2801
-1.36827
48.3124
-1.48857
48.3477
-1.60785
48.3858
-1.72602
48.4264
-1.843
48.4693
-1.9587
48.5142
-2.07305
48.5609
-2.18596
48.609
-2.29734
48.6583
-2.40712
48.7084
-2.5152
48.7588
-2.6215
48.8093
-2.72593
48.8593
-2.8284
48.9085
-2.92883
48.9562
-3.02711
49.002
-3.12316
49.0452
-3.21689
49.0852
-3.30817
49.1213
-3.39693
49.1527
-3.48304
49.1783
-3.56642
49.1977
-3.64687
49.2094
-3.72441
49.2122
-3.79871
49.1997
-3.86998
49.1954
-3.93668
49.129
-4.00374
-4.05572
49.1741
50.4243
4.56038
-50.5815
50.2685
4.47613
50.1142
4.38947
49.9616
4.30045
49.8108
4.2091
49.6621
4.11549
49.5156
4.01965
49.3715
3.92164
49.23
3.82151
49.0911
3.71931
48.9552
3.6151
48.8222
3.50892
48.6923
3.40084
48.5657
3.29092
48.4425
3.17921
48.3229
3.06577
48.2069
2.95067
48.0946
2.83397
47.9862
2.71573
47.8818
2.59601
47.7815
2.47489
47.6852
2.35242
47.5932
2.22868
47.5056
2.10373
47.4222
1.97765
47.3434
1.8505
47.269
1.72236
47.1992
1.5933
47.1339
1.46339
47.0733
1.33271
47.0173
1.20132
46.966
1.06932
46.9194
0.936758
46.8774
0.803728
46.8402
0.670304
46.8077
0.536562
46.7798
0.402582
46.7565
0.268442
46.7379
0.134221
46.7239
0
46.7143
-0.134142
46.7092
-0.268123
46.7085
-0.401863
46.7122
-0.535281
46.72
-0.668294
46.732
-0.800821
46.748
-0.932779
46.7679
-1.06409
46.7916
-1.19466
46.819
-1.32441
46.8498
-1.45326
46.8839
-1.58113
46.9212
-1.70793
46.9615
-1.83357
47.0045
-1.95798
47.05
-2.08107
47.0979
-2.20274
47.1478
-2.32292
47.1995
-2.44152
47.2526
-2.55845
47.307
-2.67363
47.3622
-2.78696
47.4179
-2.89837
47.4737
-3.00774
47.5292
-3.11501
47.584
-3.22007
47.6376
-3.32283
47.6894
-3.42319
47.739
-3.52106
47.7856
-3.61633
47.8287
-3.70889
47.8675
-3.79866
47.9012
-3.88548
47.9286
-3.96929
47.9507
-4.04983
47.9589
-4.12746
47.9721
-4.20035
47.9361
-4.27327
-4.33206
48.001
49.0068
4.82703
-49.1654
48.8498
4.73732
48.6945
4.6451
48.5411
4.55041
48.3897
4.45331
48.2406
4.35385
48.0938
4.25207
47.9495
4.14802
47.808
4.04177
47.6692
3.93336
47.5334
3.82284
47.4007
3.71029
47.2712
3.59575
47.145
3.47929
47.0224
3.36097
46.9033
3.24084
46.7879
3.11899
46.6763
2.99546
46.5687
2.87032
46.465
2.74365
46.3654
2.61552
46.27
2.48598
46.1788
2.35511
46.0919
2.22299
46.0094
2.08969
45.9314
1.95527
45.8579
1.81982
45.7889
1.68341
45.7245
1.54612
45.6647
1.40801
45.6095
1.26918
45.559
1.1297
45.5132
0.98964
45.4721
0.849092
45.4357
0.708131
45.404
0.566839
45.3769
0.425298
45.3545
0.283589
45.3366
0.141795
45.3234
0
45.3147
-0.141714
45.3105
-0.283262
45.3106
-0.424561
45.3152
-0.565526
45.324
-0.706071
45.337
-0.846112
45.3541
-0.985564
45.3751
-1.12434
45.4
-1.26235
45.4287
-1.39952
45.4609
-1.53576
45.4966
-1.67097
45.5356
-1.80507
45.5777
-1.93799
45.6227
-2.06962
45.6705
-2.19988
45.7208
-2.32868
45.7734
-2.45594
45.828
-2.58157
45.8845
-2.70547
45.9425
-2.82757
46.0017
-2.94776
46.0618
-3.06596
46.1225
-3.18208
46.1834
-3.29603
46.2442
-3.40771
46.3044
-3.51702
46.3635
-3.62388
46.4212
-3.72819
46.4768
-3.82984
46.5298
-3.92873
46.5795
-4.02476
46.6255
-4.11781
46.6664
-4.20781
46.7033
-4.29448
46.7297
-4.37821
46.7603
-4.45733
46.7478
-4.53617
-4.60137
46.826
47.6237
5.08637
-47.7831
47.4661
4.99131
47.3103
4.89365
47.1566
4.79343
47.0051
4.69071
46.8559
4.58552
46.7093
4.47794
46.5652
4.368
46.424
4.25577
46.2856
4.1413
46.1503
4.02465
46.0182
3.90587
45.8893
3.78504
45.7639
3.66221
45.642
3.53745
45.5237
3.41082
45.4092
3.28239
45.2985
3.15222
45.1917
3.02038
45.089
2.88696
44.9903
2.752
44.8958
2.61559
44.8056
2.47781
44.7197
2.33872
44.6382
2.1984
44.5611
2.05693
44.4885
1.91438
44.4204
1.77083
44.3569
1.62637
44.298
1.48107
44.2437
1.33501
44.1941
1.18827
44.1492
1.04094
44.1089
0.893096
44.0733
0.744824
44.0423
0.596208
44.016
0.447332
43.9944
0.298282
43.9773
0.149143
43.9649
-2.99556e-07
43.9569
-0.149059
43.9535
-0.297948
43.9544
-0.44658
43.9598
-0.594867
43.9694
-0.742721
43.9833
-0.890054
44.0013
-1.03678
44.0233
-1.18281
44.0492
-1.32805
44.079
-1.47241
44.1124
-1.61581
44.1494
-1.75816
44.1897
-1.89937
44.2334
-2.03934
44.2801
-2.17799
44.3297
-2.31523
44.382
-2.45097
44.4369
-2.58512
44.494
-2.71759
44.5532
-2.84828
44.6142
-2.97711
44.6767
-3.10399
44.7406
-3.22883
44.8054
-3.35152
44.8709
-3.47199
44.9367
-3.59013
45.0024
-3.70585
45.0677
-3.81906
45.1322
-3.92966
45.1954
-4.03756
45.2567
-4.14264
45.3158
-4.24482
45.3721
-4.34396
45.4244
-4.44002
45.4737
-4.53272
45.5146
-4.62242
45.5602
-4.70758
45.5683
-4.7923
-4.86379
45.6575
46.2748
5.33854
-46.4345
46.117
5.23826
45.9612
5.13527
45.8076
5.02965
45.6564
4.92142
45.5076
4.81066
45.3614
4.69741
45.2179
4.58172
45.0773
4.46366
44.9396
4.34328
44.8051
4.22065
44.6738
4.09582
44.5459
3.96886
44.4214
3.83983
44.3005
3.7088
44.1833
3.57584
44.0698
3.44101
43.9601
3.30438
43.8544
3.16604
43.7527
3.02604
43.6552
2.88446
43.5618
2.74138
43.4726
2.59687
43.3878
2.45101
43.3073
2.30388
43.2312
2.15556
43.1596
2.00612
43.0925
1.85565
43.03
1.70423
42.9721
1.55194
42.9187
1.39886
42.87
1.24509
42.8259
1.0907
42.7864
0.93578
42.7516
0.780417
42.7215
0.624696
42.696
0.468706
42.6751
0.312534
42.6587
0.156269
42.647
0
42.6398
-0.156185
42.637
-0.312195
42.6387
-0.46794
42.6448
-0.623331
42.6551
-0.778277
42.6697
-0.932687
42.6885
-1.08647
42.7113
-1.23953
42.7381
-1.39179
42.7687
-1.54314
42.8031
-1.69351
42.8411
-1.84279
42.8826
-1.99089
42.9275
-2.13772
42.9756
-2.2832
43.0267
-2.42723
43.0807
-2.56971
43.1374
-2.71056
43.1965
-2.84968
43.258
-2.98699
43.3215
-3.12238
43.3868
-3.25577
43.4537
-3.38707
43.522
-3.51617
43.5912
-3.643
43.6612
-3.76745
43.7316
-3.88942
43.8021
-4.00884
43.8723
-4.12559
43.9418
-4.23959
44.0102
-4.35072
44.077
-4.45891
44.1419
-4.56402
44.2039
-4.66601
44.2638
-4.76461
44.3167
-4.86017
44.3745
-4.95121
44.4
-5.04166
-5.11932
44.4982
44.9595
5.5837
-45.1191
44.802
5.47831
44.6467
5.37012
44.4936
5.25921
44.3429
5.14562
44.1948
5.02941
44.0494
4.91063
43.9068
4.78934
43.7671
4.66559
43.6305
4.53946
43.497
4.411
43.3668
4.28027
43.24
4.14734
43.1167
4.01228
42.9969
3.87515
42.8809
3.73603
42.7686
3.59498
42.6601
3.45208
42.5557
3.3074
42.4552
3.16101
42.3588
3.013
42.2666
2.86344
42.1786
2.7124
42.0949
2.55997
42.0156
2.40622
41.9406
2.25125
41.8701
2.09512
41.8041
1.93793
41.7426
1.77976
41.6856
1.62069
41.6332
1.46081
41.5854
1.30021
41.5422
1.13897
41.5036
0.977186
41.4696
0.814943
41.4402
0.65233
41.4155
0.489439
41.3953
0.326359
41.3797
0.163183
41.3686
0
41.362
-0.163096
41.3599
-0.326015
41.3622
-0.488662
41.3689
-0.650945
41.3799
-0.812772
41.3951
-0.974048
41.4145
-1.13468
41.438
-1.29458
41.4655
-1.45364
41.4968
-1.61178
41.532
-1.7689
41.5709
-1.92491
41.6133
-2.07972
41.6591
-2.23322
41.7083
-2.38533
41.7606
-2.53595
41.8159
-2.68499
41.8741
-2.83236
41.9349
-2.97795
41.9981
-3.12169
42.0637
-3.26347
42.1313
-3.4032
42.2007
-3.54079
42.2718
-3.67615
42.3441
-3.80917
42.4176
-3.93977
42.4919
-4.06785
42.5667
-4.19332
42.6416
-4.31608
42.7164
-4.43603
42.7907
-4.55309
42.864
-4.66714
42.9361
-4.77809
43.0061
-4.88587
43.0748
-4.99024
43.1379
-5.09152
43.2058
-5.18832
43.2457
-5.28437
-5.36803
43.351
43.6776
5.822
-43.8366
43.5208
5.71161
43.3662
5.59835
43.2139
5.48228
43.0642
5.36345
42.9171
5.24192
42.7727
5.11775
42.6313
4.991
42.4928
4.86172
42.3573
4.72998
42.2251
4.59584
42.0962
4.45937
41.9707
4.32063
41.8487
4.1797
41.7303
4.03664
41.6156
3.89153
41.5047
3.74443
41.3976
3.59543
41.2944
3.44459
41.1953
3.29201
41.1002
3.13774
41.0093
2.98188
40.9226
2.8245
40.8401
2.66568
40.762
2.50552
40.6882
2.34408
40.6188
2.18147
40.5539
2.01775
40.4934
1.85303
40.4375
1.68738
40.3861
1.5209
40.3392
1.35367
40.2969
1.18579
40.2591
1.01735
40.226
0.848433
40.1974
0.679136
40.1733
0.50955
40.1539
0.33977
40.1389
0.169888
40.1285
0
40.1225
-0.169801
40.121
-0.339421
40.1238
-0.508764
40.1311
-0.677734
40.1426
-0.846237
40.1583
-1.01418
40.1782
-1.18146
40.2023
-1.34798
40.2303
-1.51366
40.2622
-1.67838
40.298
-1.84207
40.3375
-2.00461
40.3806
-2.16592
40.4273
-2.3259
40.4773
-2.48446
40.5305
-2.64149
40.5868
-2.79691
40.6461
-2.95061
40.7082
-3.1025
40.7729
-3.2525
40.8401
-3.40049
40.9095
-3.5464
40.981
-3.69012
41.0543
-3.83156
41.1292
-3.97062
41.2055
-4.10721
41.2829
-4.24125
41.3612
-4.37262
41.4401
-4.50124
41.5193
-4.62701
41.5984
-4.74984
41.6771
-4.86963
41.7552
-4.98627
41.8319
-5.09971
41.9079
-5.20972
41.9795
-5.31659
42.0558
-5.419
42.1078
-5.52052
-5.61002
42.2187
42.4285
6.05358
-42.5866
42.2727
5.93831
42.1191
5.82009
41.968
5.69899
41.8195
5.57506
41.6737
5.44835
41.5306
5.31893
41.3905
5.18685
41.2534
5.05218
41.1194
4.91497
40.9886
4.77531
40.8612
4.63325
40.7372
4.48886
40.6167
4.34222
40.4998
4.19339
40.3865
4.04246
40.2771
3.88948
40.1715
3.73455
40.0698
3.57774
39.972
3.41912
39.8784
3.25878
39.7888
3.0968
39.7034
2.93327
39.6223
2.76825
39.5454
2.60185
39.4729
2.43415
39.4047
2.26524
39.3409
2.09519
39.2815
1.92411
39.2266
1.75208
39.1762
1.57919
39.1303
1.40554
39.0889
1.23121
39.052
1.05631
39.0196
0.880918
38.9918
0.705137
38.9685
0.529058
38.9497
0.352778
38.9353
0.176393
38.9255
0
38.9201
-0.176305
38.9191
-0.352426
38.9224
-0.528264
38.9301
-0.703722
38.9421
-0.878702
38.9583
-1.05311
38.9786
-1.22684
39.003
-1.3998
39.0315
-1.57189
39.0639
-1.74301
39.1001
-1.91306
39.1401
-2.08196
39.1837
-2.24959
39.2309
-2.41586
39.2815
-2.58067
39.3354
-2.74394
39.3926
-2.90555
39.4527
-3.06541
39.5158
-3.22343
39.5816
-3.37951
39.65
-3.53355
39.7208
-3.68546
39.7939
-3.83515
39.869
-3.98251
39.9459
-4.12746
40.0245
-4.2699
40.1045
-4.40972
40.1856
-4.54685
40.2677
-4.68119
40.3504
-4.81263
40.4335
-4.94109
40.5167
-5.06648
40.5997
-5.18868
40.6819
-5.30764
40.764
-5.42314
40.8425
-5.53547
40.9258
-5.64336
40.9878
-5.7502
-5.84541
41.1032
41.2118
6.2786
-41.3687
41.0572
6.15857
40.905
6.03552
40.7553
5.90951
40.6082
5.7806
40.4638
5.64884
40.3223
5.5143
40.1838
5.37704
40.0482
5.23711
39.9159
5.0946
39.7867
4.94956
39.6609
4.80206
39.5385
4.65218
39.4196
4.49998
39.3043
4.34555
39.1927
4.18895
39.0848
4.03026
38.9808
3.86957
38.8806
3.70694
38.7844
3.54247
38.6922
3.37623
38.6041
3.20831
38.5201
3.0388
38.4403
2.86777
38.3648
2.69532
38.2935
2.52153
38.2265
2.3465
38.1639
2.17031
38.1057
1.99306
38.0518
1.81484
38.0024
1.63574
37.9575
1.45585
37.917
1.27527
37.881
1.0941
37.8494
0.91243
37.8223
0.730358
37.7997
0.547981
37.7815
0.365396
37.7678
0.182704
37.7585
-2.99583e-07
37.7536
-0.182615
37.7531
-0.365041
37.7569
-0.547181
37.765
-0.728933
37.7773
-0.910197
37.7939
-1.09088
37.8145
-1.27087
37.8393
-1.45007
37.868
-1.62839
37.9007
-1.80571
37.9372
-1.98196
37.9776
-2.15701
38.0215
-2.33078
38.0691
-2.50316
38.1202
-2.67406
38.1746
-2.84337
38.2322
-3.011
38.293
-3.17685
38.3568
-3.34083
38.4234
-3.50283
38.4927
-3.66275
38.5646
-3.82051
38.6388
-3.976
38.7153
-4.12913
38.7938
-4.2798
38.8741
-4.42792
38.9561
-4.5734
39.0395
-4.71614
39.1242
-4.85604
39.2098
-4.99301
39.2961
-5.12697
39.3829
-5.25781
39.4699
-5.38543
39.5566
-5.50978
39.6436
-5.63064
39.7279
-5.74828
39.8169
-5.86151
39.8873
-5.97355
-6.0743
40.006
40.0268
6.4972
-40.1823
39.8738
6.37254
39.7231
6.24478
39.575
6.11399
39.4296
5.98022
39.287
5.84355
39.1472
5.70402
39.0103
5.56171
38.8765
5.41668
38.7459
5.26899
38.6185
5.11872
38.4945
4.96593
38.3738
4.81071
38.2567
4.65311
38.1431
4.49322
38.0332
4.33112
37.927
4.16688
37.8246
4.00059
37.7261
3.83232
37.6314
3.66216
37.5408
3.4902
37.4542
3.31651
37.3717
3.14119
37.2933
2.96432
37.2191
2.786
37.1491
2.60631
37.0834
2.42534
37.022
2.24319
36.9649
2.05995
36.9121
1.87572
36.8638
1.69059
36.8198
1.50465
36.7802
1.31801
36.745
1.13076
36.7143
0.942997
36.6879
0.754823
36.666
0.566336
36.6484
0.377636
36.6353
0.188824
36.6265
0
36.6221
-0.188735
36.622
-0.377279
36.6262
-0.565531
36.6346
-0.75339
36.6472
-0.940752
36.664
-1.12752
36.685
-1.31358
36.7099
-1.49884
36.7389
-1.6832
36.7718
-1.86656
36.8085
-2.0488
36.849
-2.22984
36.8932
-2.40957
36.941
-2.58788
36.9923
-2.76469
37.047
-2.93988
37.105
-3.11336
37.1661
-3.28503
37.2303
-3.45479
37.2975
-3.62254
37.3674
-3.78819
37.44
-3.95163
37.5152
-4.11277
37.5926
-4.27151
37.6723
-4.42776
37.754
-4.58142
37.8375
-4.73239
37.9226
-4.88059
38.0092
-5.02592
38.0971
-5.16828
38.186
-5.30758
38.2756
-5.44374
38.3659
-5.57664
38.4563
-5.70624
38.5473
-5.83232
38.6362
-5.95515
38.7298
-6.07358
38.8072
-6.19068
-6.29682
38.9283
38.8732
6.70955
-39.0269
38.7218
6.58036
38.573
6.44801
38.4267
6.31256