/*--------------------------------*- C++ -*----------------------------------*\
| =========                 |                                                 |
| \\      /  F ield         | OpenFOAM: The Open Source CFD Toolbox           |
|  \\    /   O peration     | Version:  2312                                  |
|   \\  /    A nd           | Website:  www.openfoam.com                      |
|    \\/     M anipulation  |                                                 |
\*---------------------------------------------------------------------------*/
FoamFile
{
    version     2.0;
    format      ascii;
    arch        "LSB;label=32;scalar=64";
    class       volVectorField;
    location    "1.9";
    object      flux;
}
// * * * * * * * * * * * * * * * * * * * * * * * * * * * * * * * * * * * * * //

dimensions      [0 1 -1 1 0 0 0];

internalField   nonuniform List<vector> 
100
(
(-0.943258 0 0)
(-0.656658 0 0)
(-0.387879 0 0)
(-0.136353 0 0)
(0.0984912 0 0)
(0.317226 0 0)
(0.520424 0 0)
(0.708657 0 0)
(0.882492 0 0)
(1.0425 0 0)
(1.18923 0 0)
(1.32324 0 0)
(1.44508 0 0)
(1.55528 0 0)
(1.65438 0 0)
(1.7429 0 0)
(1.82135 0 0)
(1.89022 0 0)
(1.95002 0 0)
(2.00121 0 0)
(2.04427 0 0)
(2.07964 0 0)
(2.10778 0 0)
(2.1291 0 0)
(2.14403 0 0)
(2.15297 0 0)
(2.15631 0 0)
(2.15443 0 0)
(2.1477 0 0)
(2.13646 0 0)
(2.12105 0 0)
(2.1018 0 0)
(2.07902 0 0)
(2.05302 0 0)
(2.02407 0 0)
(1.99246 0 0)
(1.95844 0 0)
(1.92227 0 0)
(1.88418 0 0)
(1.84441 0 0)
(1.80316 0 0)
(1.76064 0 0)
(1.71705 0 0)
(1.67256 0 0)
(1.62736 0 0)
(1.58159 0 0)
(1.53542 0 0)
(1.48899 0 0)
(1.44243 0 0)
(1.39586 0 0)
(1.3494 0 0)
(1.30315 0 0)
(1.25723 0 0)
(1.21171 0 0)
(1.16668 0 0)
(1.12223 0 0)
(1.07841 0 0)
(1.03529 0 0)
(0.992931 0 0)
(0.951378 0 0)
(0.910678 0 0)
(0.870868 0 0)
(0.831983 0 0)
(0.794049 0 0)
(0.757091 0 0)
(0.721126 0 0)
(0.686168 0 0)
(0.652228 0 0)
(0.619311 0 0)
(0.587419 0 0)
(0.556549 0 0)
(0.526697 0 0)
(0.497854 0 0)
(0.470009 0 0)
(0.443147 0 0)
(0.41725 0 0)
(0.392299 0 0)
(0.368272 0 0)
(0.345143 0 0)
(0.322888 0 0)
(0.301476 0 0)
(0.280877 0 0)
(0.26106 0 0)
(0.24199 0 0)
(0.223632 0 0)
(0.205949 0 0)
(0.188903 0 0)
(0.172456 0 0)
(0.156567 0 0)
(0.141194 0 0)
(0.126296 0 0)
(0.11183 0 0)
(0.0977517 0 0)
(0.0840176 0 0)
(0.0705827 0 0)
(0.0574018 0 0)
(0.0444292 0 0)
(0.031619 0 0)
(0.0189249 0 0)
(0.00630054 0 0)
)
;

boundaryField
{
    movingWall
    {
        type            calculated;
        value           uniform (-1.09108 0 0);
    }
    fixedWalls
    {
        type            calculated;
        value           nonuniform List<vector> 
201
(
(-0.943258 0 0)
(-0.656658 0 0)
(-0.387879 0 0)
(-0.136353 0 0)
(0.0984912 0 0)
(0.317226 0 0)
(0.520424 0 0)
(0.708657 0 0)
(0.882492 0 0)
(1.0425 0 0)
(1.18923 0 0)
(1.32324 0 0)
(1.44508 0 0)
(1.55528 0 0)
(1.65438 0 0)
(1.7429 0 0)
(1.82135 0 0)
(1.89022 0 0)
(1.95002 0 0)
(2.00121 0 0)
(2.04427 0 0)
(2.07964 0 0)
(2.10778 0 0)
(2.1291 0 0)
(2.14403 0 0)
(2.15297 0 0)
(2.15631 0 0)
(2.15443 0 0)
(2.1477 0 0)
(2.13646 0 0)
(2.12105 0 0)
(2.1018 0 0)
(2.07902 0 0)
(2.05302 0 0)
(2.02407 0 0)
(1.99246 0 0)
(1.95844 0 0)
(1.92227 0 0)
(1.88418 0 0)
(1.84441 0 0)
(1.80316 0 0)
(1.76064 0 0)
(1.71705 0 0)
(1.67256 0 0)
(1.62736 0 0)
(1.58159 0 0)
(1.53542 0 0)
(1.48899 0 0)
(1.44243 0 0)
(1.39586 0 0)
(1.3494 0 0)
(1.30315 0 0)
(1.25723 0 0)
(1.21171 0 0)
(1.16668 0 0)
(1.12223 0 0)
(1.07841 0 0)
(1.03529 0 0)
(0.992931 0 0)
(0.951378 0 0)
(0.910678 0 0)
(0.870868 0 0)
(0.831983 0 0)
(0.794049 0 0)
(0.757091 0 0)
(0.721126 0 0)
(0.686168 0 0)
(0.652228 0 0)
(0.619311 0 0)
(0.587419 0 0)
(0.556549 0 0)
(0.526697 0 0)
(0.497854 0 0)
(0.470009 0 0)
(0.443147 0 0)
(0.41725 0 0)
(0.392299 0 0)
(0.368272 0 0)
(0.345143 0 0)
(0.322888 0 0)
(0.301476 0 0)
(0.280877 0 0)
(0.26106 0 0)
(0.24199 0 0)
(0.223632 0 0)
(0.205949 0 0)
(0.188903 0 0)
(0.172456 0 0)
(0.156567 0 0)
(0.141194 0 0)
(0.126296 0 0)
(0.11183 0 0)
(0.0977517 0 0)
(0.0840176 0 0)
(0.0705827 0 0)
(0.0574018 0 0)
(0.0444292 0 0)
(0.031619 0 0)
(0.0189249 0 0)
(0.00630054 0 0)
(0 0 0)
(-0.943258 0 0)
(-0.656658 0 0)
(-0.387879 0 0)
(-0.136353 0 0)
(0.0984912 0 0)
(0.317226 0 0)
(0.520424 0 0)
(0.708657 0 0)
(0.882492 0 0)
(1.0425 0 0)
(1.18923 0 0)
(1.32324 0 0)
(1.44508 0 0)
(1.55528 0 0)
(1.65438 0 0)
(1.7429 0 0)
(1.82135 0 0)
(1.89022 0 0)
(1.95002 0 0)
(2.00121 0 0)
(2.04427 0 0)
(2.07964 0 0)
(2.10778 0 0)
(2.1291 0 0)
(2.14403 0 0)
(2.15297 0 0)
(2.15631 0 0)
(2.15443 0 0)
(2.1477 0 0)
(2.13646 0 0)
(2.12105 0 0)
(2.1018 0 0)
(2.07902 0 0)
(2.05302 0 0)
(2.02407 0 0)
(1.99246 0 0)
(1.95844 0 0)
(1.92227 0 0)
(1.88418 0 0)
(1.84441 0 0)
(1.80316 0 0)
(1.76064 0 0)
(1.71705 0 0)
(1.67256 0 0)
(1.62736 0 0)
(1.58159 0 0)
(1.53542 0 0)
(1.48899 0 0)
(1.44243 0 0)
(1.39586 0 0)
(1.3494 0 0)
(1.30315 0 0)
(1.25723 0 0)
(1.21171 0 0)
(1.16668 0 0)
(1.12223 0 0)
(1.07841 0 0)
(1.03529 0 0)
(0.992931 0 0)
(0.951378 0 0)
(0.910678 0 0)
(0.870868 0 0)
(0.831983 0 0)
(0.794049 0 0)
(0.757091 0 0)
(0.721126 0 0)
(0.686168 0 0)
(0.652228 0 0)
(0.619311 0 0)
(0.587419 0 0)
(0.556549 0 0)
(0.526697 0 0)
(0.497854 0 0)
(0.470009 0 0)
(0.443147 0 0)
(0.41725 0 0)
(0.392299 0 0)
(0.368272 0 0)
(0.345143 0 0)
(0.322888 0 0)
(0.301476 0 0)
(0.280877 0 0)
(0.26106 0 0)
(0.24199 0 0)
(0.223632 0 0)
(0.205949 0 0)
(0.188903 0 0)
(0.172456 0 0)
(0.156567 0 0)
(0.141194 0 0)
(0.126296 0 0)
(0.11183 0 0)
(0.0977517 0 0)
(0.0840176 0 0)
(0.0705827 0 0)
(0.0574018 0 0)
(0.0444292 0 0)
(0.031619 0 0)
(0.0189249 0 0)
(0.00630054 0 0)
)
;
    }
    frontAndBack
    {
        type            empty;
    }
}


// ************************************************************************* //
