/*--------------------------------*- C++ -*----------------------------------*\
| =========                 |                                                 |
| \\      /  F ield         | OpenFOAM: The Open Source CFD Toolbox           |
|  \\    /   O peration     | Version:  2312                                  |
|   \\  /    A nd           | Website:  www.openfoam.com                      |
|    \\/     M anipulation  |                                                 |
\*---------------------------------------------------------------------------*/
FoamFile
{
    version     2.0;
    format      ascii;
    arch        "LSB;label=32;scalar=64";
    class       volScalarField;
    location    "1.9";
    object      gradTx;
}
// * * * * * * * * * * * * * * * * * * * * * * * * * * * * * * * * * * * * * //

dimensions      [0 -1 0 1 0 0 0];

internalField   nonuniform List<scalar> 
100
(
-0.943258
-0.656658
-0.387879
-0.136353
0.0984912
0.317226
0.520424
0.708657
0.882492
1.0425
1.18923
1.32324
1.44508
1.55528
1.65438
1.7429
1.82135
1.89022
1.95002
2.00121
2.04427
2.07964
2.10778
2.1291
2.14403
2.15297
2.15631
2.15443
2.1477
2.13646
2.12105
2.1018
2.07902
2.05302
2.02407
1.99246
1.95844
1.92227
1.88418
1.84441
1.80316
1.76064
1.71705
1.67256
1.62736
1.58159
1.53542
1.48899
1.44243
1.39586
1.3494
1.30315
1.25723
1.21171
1.16668
1.12223
1.07841
1.03529
0.992931
0.951378
0.910678
0.870868
0.831983
0.794049
0.757091
0.721126
0.686168
0.652228
0.619311
0.587419
0.556549
0.526697
0.497854
0.470009
0.443147
0.41725
0.392299
0.368272
0.345143
0.322888
0.301476
0.280877
0.26106
0.24199
0.223632
0.205949
0.188903
0.172456
0.156567
0.141194
0.126296
0.11183
0.0977517
0.0840176
0.0705827
0.0574018
0.0444292
0.031619
0.0189249
0.00630054
)
;

boundaryField
{
    movingWall
    {
        type            calculated;
        value           uniform -1.09108;
    }
    fixedWalls
    {
        type            calculated;
        value           nonuniform List<scalar> 
201
(
-0.943258
-0.656658
-0.387879
-0.136353
0.0984912
0.317226
0.520424
0.708657
0.882492
1.0425
1.18923
1.32324
1.44508
1.55528
1.65438
1.7429
1.82135
1.89022
1.95002
2.00121
2.04427
2.07964
2.10778
2.1291
2.14403
2.15297
2.15631
2.15443
2.1477
2.13646
2.12105
2.1018
2.07902
2.05302
2.02407
1.99246
1.95844
1.92227
1.88418
1.84441
1.80316
1.76064
1.71705
1.67256
1.62736
1.58159
1.53542
1.48899
1.44243
1.39586
1.3494
1.30315
1.25723
1.21171
1.16668
1.12223
1.07841
1.03529
0.992931
0.951378
0.910678
0.870868
0.831983
0.794049
0.757091
0.721126
0.686168
0.652228
0.619311
0.587419
0.556549
0.526697
0.497854
0.470009
0.443147
0.41725
0.392299
0.368272
0.345143
0.322888
0.301476
0.280877
0.26106
0.24199
0.223632
0.205949
0.188903
0.172456
0.156567
0.141194
0.126296
0.11183
0.0977517
0.0840176
0.0705827
0.0574018
0.0444292
0.031619
0.0189249
0.00630054
0
-0.943258
-0.656658
-0.387879
-0.136353
0.0984912
0.317226
0.520424
0.708657
0.882492
1.0425
1.18923
1.32324
1.44508
1.55528
1.65438
1.7429
1.82135
1.89022
1.95002
2.00121
2.04427
2.07964
2.10778
2.1291
2.14403
2.15297
2.15631
2.15443
2.1477
2.13646
2.12105
2.1018
2.07902
2.05302
2.02407
1.99246
1.95844
1.92227
1.88418
1.84441
1.80316
1.76064
1.71705
1.67256
1.62736
1.58159
1.53542
1.48899
1.44243
1.39586
1.3494
1.30315
1.25723
1.21171
1.16668
1.12223
1.07841
1.03529
0.992931
0.951378
0.910678
0.870868
0.831983
0.794049
0.757091
0.721126
0.686168
0.652228
0.619311
0.587419
0.556549
0.526697
0.497854
0.470009
0.443147
0.41725
0.392299
0.368272
0.345143
0.322888
0.301476
0.280877
0.26106
0.24199
0.223632
0.205949
0.188903
0.172456
0.156567
0.141194
0.126296
0.11183
0.0977517
0.0840176
0.0705827
0.0574018
0.0444292
0.031619
0.0189249
0.00630054
)
;
    }
    frontAndBack
    {
        type            empty;
    }
}


// ************************************************************************* //
