/*--------------------------------*- C++ -*----------------------------------*\
| =========                 |                                                 |
| \\      /  F ield         | OpenFOAM: The Open Source CFD Toolbox           |
|  \\    /   O peration     | Version:  2312                                  |
|   \\  /    A nd           | Website:  www.openfoam.com                      |
|    \\/     M anipulation  |                                                 |
\*---------------------------------------------------------------------------*/
FoamFile
{
    version     2.0;
    format      ascii;
    arch        "LSB;label=32;scalar=64";
    class       volVectorField;
    location    "0.258";
    object      U;
}
// * * * * * * * * * * * * * * * * * * * * * * * * * * * * * * * * * * * * * //

dimensions      [0 1 -1 0 0 0 0];

internalField   nonuniform List<vector> 
31205
(
(140.051 0 0)
(136.578 0 0)
(133.062 0 0)
(129.517 0 0)
(125.97 0 0)
(122.457 0 0)
(119.024 0 0)
(115.735 0 0)
(112.659 0 0)
(109.871 0 0)
(107.438 0 0)
(105.409 0 0)
(103.808 0 0)
(102.635 0 0)
(101.871 0 0)
(101.481 0 0)
(101.421 0 0)
(101.648 0 0)
(102.118 0 0)
(102.792 0 0)
(103.636 0 0)
(104.622 0 0)
(105.723 0 0)
(106.92 0 0)
(108.195 0 0)
(109.535 0 0)
(110.927 0 0)
(112.362 0 0)
(113.833 0 0)
(115.331 0 0)
(116.853 0 0)
(118.393 0 0)
(119.947 0 0)
(121.512 0 0)
(123.086 0 0)
(124.665 0 0)
(126.249 0 0)
(127.834 0 0)
(129.421 0 0)
(131.007 0 0)
(132.592 0 0)
(134.175 0 0)
(135.754 0 0)
(137.33 0 0)
(138.902 0 0)
(140.468 0 0)
(142.03 0 0)
(143.586 0 0)
(145.135 0 0)
(146.679 0 0)
(148.216 0 0)
(149.747 0 0)
(151.271 0 0)
(152.787 0 0)
(154.297 0 0)
(155.8 0 0)
(157.295 0 0)
(158.783 0 0)
(160.264 0 0)
(161.737 0 0)
(163.202 0 0)
(164.66 0 0)
(166.111 0 0)
(167.554 0 0)
(168.99 0 0)
(170.417 0 0)
(171.838 0 0)
(173.251 0 0)
(174.656 0 0)
(176.054 0 0)
(177.444 0 0)
(178.827 0 0)
(180.203 0 0)
(181.569 0 0)
(182.934 0 0)
(184.272 0 0)
(185.665 0 0)
(186.856 0 0)
(188.639 0 0)
(136.366 0 0)
(132.953 0 0)
(129.514 0 0)
(126.073 0 0)
(122.661 0 0)
(119.321 0 0)
(116.109 0 0)
(113.089 0 0)
(110.329 0 0)
(107.893 0 0)
(105.829 0 0)
(104.165 0 0)
(102.909 0 0)
(102.047 0 0)
(101.549 0 0)
(101.378 0 0)
(101.494 0 0)
(101.855 0 0)
(102.425 0 0)
(103.17 0 0)
(104.061 0 0)
(105.073 0 0)
(106.185 0 0)
(107.38 0 0)
(108.643 0 0)
(109.963 0 0)
(111.329 0 0)
(112.733 0 0)
(114.169 0 0)
(115.629 0 0)
(117.11 0 0)
(118.608 0 0)
(120.118 0 0)
(121.639 0 0)
(123.167 0 0)
(124.7 0 0)
(126.238 0 0)
(127.777 0 0)
(129.317 0 0)
(130.857 0 0)
(132.396 0 0)
(133.932 0 0)
(135.466 0 0)
(136.996 0 0)
(138.522 0 0)
(140.044 0 0)
(141.561 0 0)
(143.072 0 0)
(144.579 0 0)
(146.079 0 0)
(147.573 0 0)
(149.061 0 0)
(150.543 0 0)
(152.018 0 0)
(153.487 0 0)
(154.948 0 0)
(156.403 0 0)
(157.851 0 0)
(159.292 0 0)
(160.726 0 0)
(162.153 0 0)
(163.573 0 0)
(164.986 0 0)
(166.392 0 0)
(167.79 0 0)
(169.181 0 0)
(170.565 0 0)
(171.942 0 0)
(173.312 0 0)
(174.675 0 0)
(176.03 0 0)
(177.379 0 0)
(178.72 0 0)
(180.053 0 0)
(181.385 0 0)
(182.69 0 0)
(184.049 0 0)
(185.214 0 0)
(186.946 0 0)
(132.567 0 0)
(129.234 0 0)
(125.899 0 0)
(122.594 0 0)
(119.357 0 0)
(116.239 0 0)
(113.298 0 0)
(110.597 0 0)
(108.193 0 0)
(106.134 0 0)
(104.448 0 0)
(103.147 0 0)
(102.22 0 0)
(101.645 0 0)
(101.388 0 0)
(101.413 0 0)
(101.683 0 0)
(102.162 0 0)
(102.818 0 0)
(103.622 0 0)
(104.551 0 0)
(105.583 0 0)
(106.701 0 0)
(107.891 0 0)
(109.141 0 0)
(110.439 0 0)
(111.779 0 0)
(113.151 0 0)
(114.552 0 0)
(115.975 0 0)
(117.416 0 0)
(118.872 0 0)
(120.339 0 0)
(121.816 0 0)
(123.3 0 0)
(124.788 0 0)
(126.28 0 0)
(127.774 0 0)
(129.269 0 0)
(130.763 0 0)
(132.256 0 0)
(133.747 0 0)
(135.236 0 0)
(136.722 0 0)
(138.203 0 0)
(139.681 0 0)
(141.154 0 0)
(142.623 0 0)
(144.086 0 0)
(145.543 0 0)
(146.996 0 0)
(148.442 0 0)
(149.882 0 0)
(151.317 0 0)
(152.745 0 0)
(154.166 0 0)
(155.581 0 0)
(156.99 0 0)
(158.392 0 0)
(159.788 0 0)
(161.177 0 0)
(162.559 0 0)
(163.934 0 0)
(165.303 0 0)
(166.665 0 0)
(168.02 0 0)
(169.368 0 0)
(170.71 0 0)
(172.045 0 0)
(173.372 0 0)
(174.694 0 0)
(176.008 0 0)
(177.316 0 0)
(178.616 0 0)
(179.914 0 0)
(181.187 0 0)
(182.512 0 0)
(183.651 0 0)
(185.334 0 0)
(128.785 0 0)
(125.556 0 0)
(122.358 0 0)
(119.226 0 0)
(116.208 0 0)
(113.356 0 0)
(110.727 0 0)
(108.374 0 0)
(106.343 0 0)
(104.66 0 0)
(103.339 0 0)
(102.372 0 0)
(101.742 0 0)
(101.419 0 0)
(101.371 0 0)
(101.564 0 0)
(101.964 0 0)
(102.54 0 0)
(103.267 0 0)
(104.119 0 0)
(105.077 0 0)
(106.123 0 0)
(107.244 0 0)
(108.426 0 0)
(109.66 0 0)
(110.936 0 0)
(112.248 0 0)
(113.59 0 0)
(114.956 0 0)
(116.342 0 0)
(117.744 0 0)
(119.16 0 0)
(120.586 0 0)
(122.02 0 0)
(123.46 0 0)
(124.905 0 0)
(126.353 0 0)
(127.803 0 0)
(129.253 0 0)
(130.703 0 0)
(132.152 0 0)
(133.6 0 0)
(135.045 0 0)
(136.487 0 0)
(137.925 0 0)
(139.36 0 0)
(140.79 0 0)
(142.217 0 0)
(143.638 0 0)
(145.054 0 0)
(146.465 0 0)
(147.87 0 0)
(149.27 0 0)
(150.665 0 0)
(152.053 0 0)
(153.435 0 0)
(154.812 0 0)
(156.182 0 0)
(157.546 0 0)
(158.904 0 0)
(160.255 0 0)
(161.6 0 0)
(162.939 0 0)
(164.271 0 0)
(165.597 0 0)
(166.917 0 0)
(168.23 0 0)
(169.537 0 0)
(170.837 0 0)
(172.131 0 0)
(173.418 0 0)
(174.699 0 0)
(175.974 0 0)
(177.241 0 0)
(178.507 0 0)
(179.748 0 0)
(181.04 0 0)
(182.152 0 0)
(183.789 0 0)
(125.098 0 0)
(122.005 0 0)
(118.979 0 0)
(116.063 0 0)
(113.304 0 0)
(110.756 0 0)
(108.467 0 0)
(106.477 0 0)
(104.813 0 0)
(103.489 0 0)
(102.5 0 0)
(101.832 0 0)
(101.458 0 0)
(101.351 0 0)
(101.478 0 0)
(101.809 0 0)
(102.315 0 0)
(102.971 0 0)
(103.753 0 0)
(104.642 0 0)
(105.621 0 0)
(106.675 0 0)
(107.793 0 0)
(108.965 0 0)
(110.181 0 0)
(111.434 0 0)
(112.719 0 0)
(114.029 0 0)
(115.361 0 0)
(116.711 0 0)
(118.075 0 0)
(119.451 0 0)
(120.837 0 0)
(122.23 0 0)
(123.628 0 0)
(125.031 0 0)
(126.436 0 0)
(127.843 0 0)
(129.25 0 0)
(130.658 0 0)
(132.064 0 0)
(133.469 0 0)
(134.871 0 0)
(136.271 0 0)
(137.667 0 0)
(139.06 0 0)
(140.45 0 0)
(141.834 0 0)
(143.215 0 0)
(144.591 0 0)
(145.961 0 0)
(147.327 0 0)
(148.688 0 0)
(150.043 0 0)
(151.393 0 0)
(152.737 0 0)
(154.075 0 0)
(155.407 0 0)
(156.734 0 0)
(158.055 0 0)
(159.37 0 0)
(160.679 0 0)
(161.982 0 0)
(163.279 0 0)
(164.569 0 0)
(165.854 0 0)
(167.133 0 0)
(168.405 0 0)
(169.671 0 0)
(170.932 0 0)
(172.186 0 0)
(173.434 0 0)
(174.676 0 0)
(175.91 0 0)
(177.144 0 0)
(178.355 0 0)
(179.613 0 0)
(180.698 0 0)
(182.292 0 0)
(121.561 0 0)
(118.64 0 0)
(115.827 0 0)
(113.166 0 0)
(110.704 0 0)
(108.485 0 0)
(106.547 0 0)
(104.915 0 0)
(103.602 0 0)
(102.605 0 0)
(101.912 0 0)
(101.501 0 0)
(101.345 0 0)
(101.417 0 0)
(101.689 0 0)
(102.132 0 0)
(102.723 0 0)
(103.441 0 0)
(104.265 0 0)
(105.181 0 0)
(106.173 0 0)
(107.23 0 0)
(108.341 0 0)
(109.499 0 0)
(110.696 0 0)
(111.925 0 0)
(113.181 0 0)
(114.461 0 0)
(115.759 0 0)
(117.074 0 0)
(118.401 0 0)
(119.738 0 0)
(121.084 0 0)
(122.437 0 0)
(123.795 0 0)
(125.156 0 0)
(126.52 0 0)
(127.886 0 0)
(129.252 0 0)
(130.617 0 0)
(131.982 0 0)
(133.346 0 0)
(134.707 0 0)
(136.066 0 0)
(137.421 0 0)
(138.774 0 0)
(140.123 0 0)
(141.468 0 0)
(142.808 0 0)
(144.145 0 0)
(145.476 0 0)
(146.803 0 0)
(148.126 0 0)
(149.443 0 0)
(150.754 0 0)
(152.061 0 0)
(153.362 0 0)
(154.658 0 0)
(155.949 0 0)
(157.233 0 0)
(158.512 0 0)
(159.786 0 0)
(161.054 0 0)
(162.316 0 0)
(163.572 0 0)
(164.823 0 0)
(166.067 0 0)
(167.306 0 0)
(168.539 0 0)
(169.767 0 0)
(170.988 0 0)
(172.204 0 0)
(173.414 0 0)
(174.617 0 0)
(175.819 0 0)
(176.999 0 0)
(178.225 0 0)
(179.283 0 0)
(180.836 0 0)
(118.224 0 0)
(115.514 0 0)
(112.952 0 0)
(110.58 0 0)
(108.439 0 0)
(106.561 0 0)
(104.971 0 0)
(103.679 0 0)
(102.686 0 0)
(101.979 0 0)
(101.542 0 0)
(101.349 0 0)
(101.376 0 0)
(101.596 0 0)
(101.984 0 0)
(102.517 0 0)
(103.176 0 0)
(103.941 0 0)
(104.796 0 0)
(105.73 0 0)
(106.728 0 0)
(107.783 0 0)
(108.885 0 0)
(110.027 0 0)
(111.202 0 0)
(112.406 0 0)
(113.634 0 0)
(114.883 0 0)
(116.148 0 0)
(117.427 0 0)
(118.718 0 0)
(120.018 0 0)
(121.326 0 0)
(122.639 0 0)
(123.958 0 0)
(125.279 0 0)
(126.603 0 0)
(127.928 0 0)
(129.254 0 0)
(130.579 0 0)
(131.904 0 0)
(133.227 0 0)
(134.548 0 0)
(135.867 0 0)
(137.183 0 0)
(138.497 0 0)
(139.806 0 0)
(141.112 0 0)
(142.414 0 0)
(143.713 0 0)
(145.006 0 0)
(146.296 0 0)
(147.58 0 0)
(148.86 0 0)
(150.135 0 0)
(151.406 0 0)
(152.671 0 0)
(153.931 0 0)
(155.185 0 0)
(156.435 0 0)
(157.679 0 0)
(158.918 0 0)
(160.152 0 0)
(161.38 0 0)
(162.602 0 0)
(163.819 0 0)
(165.031 0 0)
(166.237 0 0)
(167.438 0 0)
(168.633 0 0)
(169.822 0 0)
(171.006 0 0)
(172.185 0 0)
(173.357 0 0)
(174.528 0 0)
(175.677 0 0)
(176.872 0 0)
(177.904 0 0)
(179.416 0 0)
(115.132 0 0)
(112.671 0 0)
(110.393 0 0)
(108.333 0 0)
(106.522 0 0)
(104.981 0 0)
(103.721 0 0)
(102.742 0 0)
(102.033 0 0)
(101.579 0 0)
(101.359 0 0)
(101.349 0 0)
(101.525 0 0)
(101.865 0 0)
(102.347 0 0)
(102.952 0 0)
(103.662 0 0)
(104.462 0 0)
(105.34 0 0)
(106.284 0 0)
(107.284 0 0)
(108.333 0 0)
(109.422 0 0)
(110.546 0 0)
(111.699 0 0)
(112.877 0 0)
(114.077 0 0)
(115.294 0 0)
(116.527 0 0)
(117.771 0 0)
(119.027 0 0)
(120.29 0 0)
(121.56 0 0)
(122.836 0 0)
(124.116 0 0)
(125.399 0 0)
(126.684 0 0)
(127.97 0 0)
(129.256 0 0)
(130.543 0 0)
(131.828 0 0)
(133.112 0 0)
(134.395 0 0)
(135.675 0 0)
(136.953 0 0)
(138.228 0 0)
(139.499 0 0)
(140.768 0 0)
(142.032 0 0)
(143.293 0 0)
(144.55 0 0)
(145.802 0 0)
(147.051 0 0)
(148.295 0 0)
(149.534 0 0)
(150.768 0 0)
(151.998 0 0)
(153.223 0 0)
(154.443 0 0)
(155.659 0 0)
(156.869 0 0)
(158.074 0 0)
(159.274 0 0)
(160.469 0 0)
(161.658 0 0)
(162.843 0 0)
(164.022 0 0)
(165.196 0 0)
(166.365 0 0)
(167.528 0 0)
(168.686 0 0)
(169.839 0 0)
(170.987 0 0)
(172.128 0 0)
(173.269 0 0)
(174.389 0 0)
(175.553 0 0)
(176.559 0 0)
(178.031 0 0)
(112.328 0 0)
(110.146 0 0)
(108.173 0 0)
(106.435 0 0)
(104.951 0 0)
(103.73 0 0)
(102.773 0 0)
(102.071 0 0)
(101.61 0 0)
(101.371 0 0)
(101.332 0 0)
(101.473 0 0)
(101.771 0 0)
(102.208 0 0)
(102.765 0 0)
(103.425 0 0)
(104.174 0 0)
(105 0 0)
(105.893 0 0)
(106.841 0 0)
(107.838 0 0)
(108.877 0 0)
(109.951 0 0)
(111.055 0 0)
(112.186 0 0)
(113.338 0 0)
(114.509 0 0)
(115.695 0 0)
(116.895 0 0)
(118.106 0 0)
(119.327 0 0)
(120.554 0 0)
(121.788 0 0)
(123.027 0 0)
(124.27 0 0)
(125.515 0 0)
(126.762 0 0)
(128.01 0 0)
(129.259 0 0)
(130.507 0 0)
(131.755 0 0)
(133.001 0 0)
(134.246 0 0)
(135.489 0 0)
(136.729 0 0)
(137.967 0 0)
(139.201 0 0)
(140.433 0 0)
(141.661 0 0)
(142.886 0 0)
(144.106 0 0)
(145.323 0 0)
(146.536 0 0)
(147.745 0 0)
(148.949 0 0)
(150.149 0 0)
(151.345 0 0)
(152.536 0 0)
(153.722 0 0)
(154.904 0 0)
(156.08 0 0)
(157.252 0 0)
(158.42 0 0)
(159.582 0 0)
(160.74 0 0)
(161.892 0 0)
(163.04 0 0)
(164.182 0 0)
(165.32 0 0)
(166.452 0 0)
(167.58 0 0)
(168.702 0 0)
(169.82 0 0)
(170.931 0 0)
(172.043 0 0)
(173.133 0 0)
(174.267 0 0)
(175.247 0 0)
(176.68 0 0)
(109.847 0 0)
(107.963 0 0)
(106.302 0 0)
(104.88 0 0)
(103.706 0 0)
(102.779 0 0)
(102.092 0 0)
(101.632 0 0)
(101.382 0 0)
(101.323 0 0)
(101.435 0 0)
(101.699 0 0)
(102.096 0 0)
(102.61 0 0)
(103.225 0 0)
(103.927 0 0)
(104.706 0 0)
(105.549 0 0)
(106.449 0 0)
(107.398 0 0)
(108.388 0 0)
(109.415 0 0)
(110.472 0 0)
(111.556 0 0)
(112.662 0 0)
(113.788 0 0)
(114.93 0 0)
(116.086 0 0)
(117.254 0 0)
(118.432 0 0)
(119.618 0 0)
(120.811 0 0)
(122.01 0 0)
(123.213 0 0)
(124.419 0 0)
(125.628 0 0)
(126.838 0 0)
(128.049 0 0)
(129.261 0 0)
(130.473 0 0)
(131.684 0 0)
(132.893 0 0)
(134.101 0 0)
(135.308 0 0)
(136.512 0 0)
(137.713 0 0)
(138.912 0 0)
(140.108 0 0)
(141.301 0 0)
(142.49 0 0)
(143.676 0 0)
(144.858 0 0)
(146.036 0 0)
(147.211 0 0)
(148.381 0 0)
(149.547 0 0)
(150.709 0 0)
(151.867 0 0)
(153.021 0 0)
(154.169 0 0)
(155.314 0 0)
(156.454 0 0)
(157.589 0 0)
(158.72 0 0)
(159.846 0 0)
(160.967 0 0)
(162.083 0 0)
(163.195 0 0)
(164.302 0 0)
(165.405 0 0)
(166.502 0 0)
(167.595 0 0)
(168.683 0 0)
(169.765 0 0)
(170.847 0 0)
(171.909 0 0)
(173.013 0 0)
(173.968 0 0)
(175.362 0 0)
(107.709 0 0)
(106.129 0 0)
(104.774 0 0)
(103.652 0 0)
(102.762 0 0)
(102.097 0 0)
(101.645 0 0)
(101.392 0 0)
(101.319 0 0)
(101.409 0 0)
(101.644 0 0)
(102.008 0 0)
(102.483 0 0)
(103.058 0 0)
(103.717 0 0)
(104.452 0 0)
(105.25 0 0)
(106.105 0 0)
(107.008 0 0)
(107.952 0 0)
(108.933 0 0)
(109.945 0 0)
(110.984 0 0)
(112.046 0 0)
(113.128 0 0)
(114.227 0 0)
(115.341 0 0)
(116.467 0 0)
(117.603 0 0)
(118.749 0 0)
(119.902 0 0)
(121.061 0 0)
(122.225 0 0)
(123.393 0 0)
(124.564 0 0)
(125.737 0 0)
(126.912 0 0)
(128.088 0 0)
(129.264 0 0)
(130.44 0 0)
(131.615 0 0)
(132.789 0 0)
(133.961 0 0)
(135.132 0 0)
(136.301 0 0)
(137.468 0 0)
(138.632 0 0)
(139.793 0 0)
(140.951 0 0)
(142.106 0 0)
(143.258 0 0)
(144.406 0 0)
(145.551 0 0)
(146.692 0 0)
(147.829 0 0)
(148.963 0 0)
(150.092 0 0)
(151.218 0 0)
(152.339 0 0)
(153.456 0 0)
(154.568 0 0)
(155.677 0 0)
(156.781 0 0)
(157.881 0 0)
(158.976 0 0)
(160.067 0 0)
(161.153 0 0)
(162.235 0 0)
(163.312 0 0)
(164.385 0 0)
(165.453 0 0)
(166.516 0 0)
(167.576 0 0)
(168.629 0 0)
(169.682 0 0)
(170.716 0 0)
(171.791 0 0)
(172.721 0 0)
(174.078 0 0)
(105.919 0 0)
(104.636 0 0)
(103.57 0 0)
(102.723 0 0)
(102.085 0 0)
(101.648 0 0)
(101.398 0 0)
(101.318 0 0)
(101.392 0 0)
(101.604 0 0)
(101.939 0 0)
(102.382 0 0)
(102.92 0 0)
(103.541 0 0)
(104.235 0 0)
(104.992 0 0)
(105.804 0 0)
(106.663 0 0)
(107.565 0 0)
(108.502 0 0)
(109.471 0 0)
(110.467 0 0)
(111.486 0 0)
(112.526 0 0)
(113.583 0 0)
(114.656 0 0)
(115.741 0 0)
(116.838 0 0)
(117.943 0 0)
(119.057 0 0)
(120.178 0 0)
(121.304 0 0)
(122.434 0 0)
(123.568 0 0)
(124.705 0 0)
(125.844 0 0)
(126.984 0 0)
(128.125 0 0)
(129.266 0 0)
(130.407 0 0)
(131.548 0 0)
(132.688 0 0)
(133.826 0 0)
(134.962 0 0)
(136.097 0 0)
(137.229 0 0)
(138.36 0 0)
(139.487 0 0)
(140.612 0 0)
(141.734 0 0)
(142.852 0 0)
(143.968 0 0)
(145.08 0 0)
(146.189 0 0)
(147.294 0 0)
(148.395 0 0)
(149.492 0 0)
(150.586 0 0)
(151.676 0 0)
(152.762 0 0)
(153.844 0 0)
(154.922 0 0)
(155.995 0 0)
(157.065 0 0)
(158.13 0 0)
(159.191 0 0)
(160.248 0 0)
(161.3 0 0)
(162.348 0 0)
(163.392 0 0)
(164.431 0 0)
(165.466 0 0)
(166.497 0 0)
(167.522 0 0)
(168.547 0 0)
(169.554 0 0)
(170.6 0 0)
(171.507 0 0)
(172.826 0 0)
(104.469 0 0)
(103.464 0 0)
(102.663 0 0)
(102.059 0 0)
(101.642 0 0)
(101.4 0 0)
(101.318 0 0)
(101.382 0 0)
(101.576 0 0)
(101.888 0 0)
(102.303 0 0)
(102.809 0 0)
(103.395 0 0)
(104.052 0 0)
(104.77 0 0)
(105.543 0 0)
(106.362 0 0)
(107.222 0 0)
(108.119 0 0)
(109.046 0 0)
(110.001 0 0)
(110.979 0 0)
(111.978 0 0)
(112.995 0 0)
(114.028 0 0)
(115.074 0 0)
(116.131 0 0)
(117.198 0 0)
(118.274 0 0)
(119.357 0 0)
(120.446 0 0)
(121.54 0 0)
(122.637 0 0)
(123.739 0 0)
(124.842 0 0)
(125.947 0 0)
(127.054 0 0)
(128.162 0 0)
(129.269 0 0)
(130.377 0 0)
(131.484 0 0)
(132.59 0 0)
(133.694 0 0)
(134.798 0 0)
(135.899 0 0)
(136.998 0 0)
(138.096 0 0)
(139.19 0 0)
(140.283 0 0)
(141.372 0 0)
(142.459 0 0)
(143.542 0 0)
(144.622 0 0)
(145.699 0 0)
(146.773 0 0)
(147.843 0 0)
(148.91 0 0)
(149.973 0 0)
(151.032 0 0)
(152.088 0 0)
(153.139 0 0)
(154.187 0 0)
(155.231 0 0)
(156.271 0 0)
(157.307 0 0)
(158.339 0 0)
(159.367 0 0)
(160.39 0 0)
(161.41 0 0)
(162.425 0 0)
(163.437 0 0)
(164.444 0 0)
(165.447 0 0)
(166.445 0 0)
(167.442 0 0)
(168.422 0 0)
(169.44 0 0)
(170.323 0 0)
(171.606 0 0)
(103.337 0 0)
(102.586 0 0)
(102.019 0 0)
(101.627 0 0)
(101.398 0 0)
(101.319 0 0)
(101.377 0 0)
(101.559 0 0)
(101.852 0 0)
(102.243 0 0)
(102.721 0 0)
(103.276 0 0)
(103.9 0 0)
(104.583 0 0)
(105.318 0 0)
(106.1 0 0)
(106.922 0 0)
(107.779 0 0)
(108.667 0 0)
(109.583 0 0)
(110.522 0 0)
(111.482 0 0)
(112.46 0 0)
(113.454 0 0)
(114.462 0 0)
(115.481 0 0)
(116.511 0 0)
(117.55 0 0)
(118.596 0 0)
(119.648 0 0)
(120.706 0 0)
(121.769 0 0)
(122.835 0 0)
(123.904 0 0)
(124.975 0 0)
(126.048 0 0)
(127.122 0 0)
(128.197 0 0)
(129.272 0 0)
(130.347 0 0)
(131.421 0 0)
(132.495 0 0)
(133.567 0 0)
(134.638 0 0)
(135.707 0 0)
(136.774 0 0)
(137.84 0 0)
(138.903 0 0)
(139.963 0 0)
(141.021 0 0)
(142.076 0 0)
(143.129 0 0)
(144.178 0 0)
(145.224 0 0)
(146.267 0 0)
(147.307 0 0)
(148.344 0 0)
(149.377 0 0)
(150.406 0 0)
(151.432 0 0)
(152.455 0 0)
(153.473 0 0)
(154.488 0 0)
(155.499 0 0)
(156.507 0 0)
(157.51 0 0)
(158.51 0 0)
(159.505 0 0)
(160.497 0 0)
(161.485 0 0)
(162.469 0 0)
(163.448 0 0)
(164.425 0 0)
(165.395 0 0)
(166.366 0 0)
(167.32 0 0)
(168.31 0 0)
(169.17 0 0)
(170.417 0 0)
(102.495 0 0)
(101.968 0 0)
(101.604 0 0)
(101.392 0 0)
(101.321 0 0)
(101.378 0 0)
(101.551 0 0)
(101.829 0 0)
(102.2 0 0)
(102.654 0 0)
(103.182 0 0)
(103.775 0 0)
(104.426 0 0)
(105.127 0 0)
(105.874 0 0)
(106.66 0 0)
(107.481 0 0)
(108.332 0 0)
(109.21 0 0)
(110.112 0 0)
(111.034 0 0)
(111.975 0 0)
(112.932 0 0)
(113.902 0 0)
(114.885 0 0)
(115.879 0 0)
(116.881 0 0)
(117.892 0 0)
(118.909 0 0)
(119.932 0 0)
(120.96 0 0)
(121.992 0 0)
(123.027 0 0)
(124.065 0 0)
(125.105 0 0)
(126.146 0 0)
(127.189 0 0)
(128.232 0 0)
(129.275 0 0)
(130.318 0 0)
(131.361 0 0)
(132.403 0 0)
(133.443 0 0)
(134.483 0 0)
(135.521 0 0)
(136.557 0 0)
(137.591 0 0)
(138.623 0 0)
(139.653 0 0)
(140.681 0 0)
(141.705 0 0)
(142.727 0 0)
(143.747 0 0)
(144.763 0 0)
(145.777 0 0)
(146.787 0 0)
(147.794 0 0)
(148.798 0 0)
(149.798 0 0)
(150.795 0 0)
(151.789 0 0)
(152.779 0 0)
(153.766 0 0)
(154.749 0 0)
(155.728 0 0)
(156.704 0 0)
(157.676 0 0)
(158.645 0 0)
(159.609 0 0)
(160.57 0 0)
(161.527 0 0)
(162.48 0 0)
(163.429 0 0)
(164.374 0 0)
(165.318 0 0)
(166.246 0 0)
(167.209 0 0)
(168.047 0 0)
(169.259 0 0)
(101.908 0 0)
(101.575 0 0)
(101.384 0 0)
(101.324 0 0)
(101.383 0 0)
(101.551 0 0)
(101.818 0 0)
(102.173 0 0)
(102.606 0 0)
(103.11 0 0)
(103.676 0 0)
(104.297 0 0)
(104.968 0 0)
(105.682 0 0)
(106.434 0 0)
(107.22 0 0)
(108.036 0 0)
(108.879 0 0)
(109.745 0 0)
(110.632 0 0)
(111.537 0 0)
(112.457 0 0)
(113.392 0 0)
(114.34 0 0)
(115.298 0 0)
(116.266 0 0)
(117.241 0 0)
(118.224 0 0)
(119.213 0 0)
(120.207 0 0)
(121.206 0 0)
(122.208 0 0)
(123.213 0 0)
(124.221 0 0)
(125.23 0 0)
(126.241 0 0)
(127.253 0 0)
(128.265 0 0)
(129.278 0 0)
(130.29 0 0)
(131.302 0 0)
(132.314 0 0)
(133.324 0 0)
(134.333 0 0)
(135.34 0 0)
(136.346 0 0)
(137.35 0 0)
(138.353 0 0)
(139.352 0 0)
(140.35 0 0)
(141.345 0 0)
(142.338 0 0)
(143.328 0 0)
(144.315 0 0)
(145.3 0 0)
(146.281 0 0)
(147.26 0 0)
(148.235 0 0)
(149.208 0 0)
(150.177 0 0)
(151.142 0 0)
(152.105 0 0)
(153.064 0 0)
(154.02 0 0)
(154.972 0 0)
(155.92 0 0)
(156.866 0 0)
(157.807 0 0)
(158.745 0 0)
(159.679 0 0)
(160.61 0 0)
(161.537 0 0)
(162.461 0 0)
(163.379 0 0)
(164.298 0 0)
(165.201 0 0)
(166.138 0 0)
(166.953 0 0)
(168.131 0 0)
(101.542 0 0)
(101.374 0 0)
(101.328 0 0)
(101.393 0 0)
(101.559 0 0)
(101.818 0 0)
(102.16 0 0)
(102.576 0 0)
(103.058 0 0)
(103.6 0 0)
(104.195 0 0)
(104.837 0 0)
(105.52 0 0)
(106.241 0 0)
(106.995 0 0)
(107.778 0 0)
(108.587 0 0)
(109.419 0 0)
(110.271 0 0)
(111.142 0 0)
(112.029 0 0)
(112.929 0 0)
(113.842 0 0)
(114.766 0 0)
(115.7 0 0)
(116.642 0 0)
(117.592 0 0)
(118.548 0 0)
(119.509 0 0)
(120.475 0 0)
(121.445 0 0)
(122.418 0 0)
(123.394 0 0)
(124.372 0 0)
(125.352 0 0)
(126.334 0 0)
(127.316 0 0)
(128.298 0 0)
(129.281 0 0)
(130.264 0 0)
(131.246 0 0)
(132.227 0 0)
(133.208 0 0)
(134.187 0 0)
(135.165 0 0)
(136.142 0 0)
(137.117 0 0)
(138.09 0 0)
(139.061 0 0)
(140.029 0 0)
(140.996 0 0)
(141.96 0 0)
(142.922 0 0)
(143.881 0 0)
(144.837 0 0)
(145.79 0 0)
(146.741 0 0)
(147.689 0 0)
(148.634 0 0)
(149.575 0 0)
(150.514 0 0)
(151.449 0 0)
(152.382 0 0)
(153.31 0 0)
(154.236 0 0)
(155.158 0 0)
(156.077 0 0)
(156.993 0 0)
(157.905 0 0)
(158.813 0 0)
(159.718 0 0)
(160.62 0 0)
(161.518 0 0)
(162.411 0 0)
(163.305 0 0)
(164.183 0 0)
(165.094 0 0)
(165.888 0 0)
(167.033 0 0)
(101.364 0 0)
(101.334 0 0)
(101.407 0 0)
(101.575 0 0)
(101.828 0 0)
(102.16 0 0)
(102.561 0 0)
(103.025 0 0)
(103.545 0 0)
(104.116 0 0)
(104.732 0 0)
(105.387 0 0)
(106.079 0 0)
(106.802 0 0)
(107.554 0 0)
(108.331 0 0)
(109.131 0 0)
(109.951 0 0)
(110.789 0 0)
(111.642 0 0)
(112.51 0 0)
(113.39 0 0)
(114.281 0 0)
(115.182 0 0)
(116.092 0 0)
(117.009 0 0)
(117.933 0 0)
(118.862 0 0)
(119.796 0 0)
(120.735 0 0)
(121.677 0 0)
(122.622 0 0)
(123.57 0 0)
(124.52 0 0)
(125.471 0 0)
(126.424 0 0)
(127.377 0 0)
(128.33 0 0)
(129.284 0 0)
(130.238 0 0)
(131.191 0 0)
(132.144 0 0)
(133.096 0 0)
(134.046 0 0)
(134.996 0 0)
(135.944 0 0)
(136.89 0 0)
(137.835 0 0)
(138.778 0 0)
(139.718 0 0)
(140.657 0 0)
(141.593 0 0)
(142.527 0 0)
(143.459 0 0)
(144.387 0 0)
(145.314 0 0)
(146.237 0 0)
(147.158 0 0)
(148.076 0 0)
(148.991 0 0)
(149.903 0 0)
(150.812 0 0)
(151.718 0 0)
(152.621 0 0)
(153.521 0 0)
(154.417 0 0)
(155.311 0 0)
(156.201 0 0)
(157.087 0 0)
(157.971 0 0)
(158.85 0 0)
(159.727 0 0)
(160.6 0 0)
(161.469 0 0)
(162.338 0 0)
(163.192 0 0)
(164.078 0 0)
(164.851 0 0)
(165.963 0 0)
(101.343 0 0)
(101.426 0 0)
(101.598 0 0)
(101.849 0 0)
(102.172 0 0)
(102.561 0 0)
(103.009 0 0)
(103.511 0 0)
(104.059 0 0)
(104.651 0 0)
(105.281 0 0)
(105.945 0 0)
(106.64 0 0)
(107.363 0 0)
(108.11 0 0)
(108.879 0 0)
(109.668 0 0)
(110.475 0 0)
(111.297 0 0)
(112.133 0 0)
(112.981 0 0)
(113.84 0 0)
(114.71 0 0)
(115.588 0 0)
(116.473 0 0)
(117.366 0 0)
(118.264 0 0)
(119.168 0 0)
(120.076 0 0)
(120.988 0 0)
(121.903 0 0)
(122.821 0 0)
(123.741 0 0)
(124.663 0 0)
(125.586 0 0)
(126.511 0 0)
(127.436 0 0)
(128.362 0 0)
(129.287 0 0)
(130.213 0 0)
(131.138 0 0)
(132.063 0 0)
(132.987 0 0)
(133.91 0 0)
(134.831 0 0)
(135.752 0 0)
(136.67 0 0)
(137.588 0 0)
(138.503 0 0)
(139.416 0 0)
(140.328 0 0)
(141.237 0 0)
(142.144 0 0)
(143.049 0 0)
(143.951 0 0)
(144.851 0 0)
(145.748 0 0)
(146.643 0 0)
(147.535 0 0)
(148.424 0 0)
(149.31 0 0)
(150.193 0 0)
(151.074 0 0)
(151.951 0 0)
(152.826 0 0)
(153.697 0 0)
(154.565 0 0)
(155.43 0 0)
(156.292 0 0)
(157.151 0 0)
(158.006 0 0)
(158.859 0 0)
(159.708 0 0)
(160.553 0 0)
(161.397 0 0)
(162.228 0 0)
(163.089 0 0)
(163.841 0 0)
(164.921 0 0)
(101.452 0 0)
(101.628 0 0)
(101.879 0 0)
(102.196 0 0)
(102.575 0 0)
(103.01 0 0)
(103.494 0 0)
(104.023 0 0)
(104.593 0 0)
(105.199 0 0)
(105.838 0 0)
(106.507 0 0)
(107.202 0 0)
(107.921 0 0)
(108.661 0 0)
(109.42 0 0)
(110.197 0 0)
(110.988 0 0)
(111.794 0 0)
(112.612 0 0)
(113.441 0 0)
(114.28 0 0)
(115.127 0 0)
(115.983 0 0)
(116.845 0 0)
(117.713 0 0)
(118.587 0 0)
(119.465 0 0)
(120.347 0 0)
(121.233 0 0)
(122.122 0 0)
(123.013 0 0)
(123.907 0 0)
(124.802 0 0)
(125.698 0 0)
(126.596 0 0)
(127.494 0 0)
(128.392 0 0)
(129.291 0 0)
(130.189 0 0)
(131.087 0 0)
(131.985 0 0)
(132.881 0 0)
(133.777 0 0)
(134.672 0 0)
(135.565 0 0)
(136.457 0 0)
(137.348 0 0)
(138.236 0 0)
(139.123 0 0)
(140.008 0 0)
(140.891 0 0)
(141.772 0 0)
(142.651 0 0)
(143.527 0 0)
(144.401 0 0)
(145.273 0 0)
(146.142 0 0)
(147.009 0 0)
(147.872 0 0)
(148.733 0 0)
(149.592 0 0)
(150.447 0 0)
(151.3 0 0)
(152.15 0 0)
(152.997 0 0)
(153.841 0 0)
(154.681 0 0)
(155.519 0 0)
(156.354 0 0)
(157.186 0 0)
(158.014 0 0)
(158.839 0 0)
(159.661 0 0)
(160.482 0 0)
(161.29 0 0)
(162.127 0 0)
(162.858 0 0)
(163.907 0 0)
(101.667 0 0)
(101.918 0 0)
(102.232 0 0)
(102.603 0 0)
(103.026 0 0)
(103.495 0 0)
(104.006 0 0)
(104.556 0 0)
(105.141 0 0)
(105.756 0 0)
(106.4 0 0)
(107.069 0 0)
(107.761 0 0)
(108.474 0 0)
(109.205 0 0)
(109.953 0 0)
(110.716 0 0)
(111.492 0 0)
(112.281 0 0)
(113.081 0 0)
(113.89 0 0)
(114.708 0 0)
(115.534 0 0)
(116.367 0 0)
(117.206 0 0)
(118.051 0 0)
(118.9 0 0)
(119.754 0 0)
(120.611 0 0)
(121.472 0 0)
(122.335 0 0)
(123.2 0 0)
(124.068 0 0)
(124.937 0 0)
(125.807 0 0)
(126.678 0 0)
(127.55 0 0)
(128.422 0 0)
(129.294 0 0)
(130.166 0 0)
(131.038 0 0)
(131.909 0 0)
(132.779 0 0)
(133.649 0 0)
(134.517 0 0)
(135.385 0 0)
(136.251 0 0)
(137.115 0 0)
(137.978 0 0)
(138.839 0 0)
(139.699 0 0)
(140.556 0 0)
(141.412 0 0)
(142.265 0 0)
(143.116 0 0)
(143.965 0 0)
(144.812 0 0)
(145.656 0 0)
(146.498 0 0)
(147.337 0 0)
(148.173 0 0)
(149.007 0 0)
(149.839 0 0)
(150.667 0 0)
(151.493 0 0)
(152.316 0 0)
(153.136 0 0)
(153.953 0 0)
(154.768 0 0)
(155.579 0 0)
(156.387 0 0)
(157.192 0 0)
(157.995 0 0)
(158.793 0 0)
(159.591 0 0)
(160.377 0 0)
(161.19 0 0)
(161.902 0 0)
(162.92 0 0)
(101.968 0 0)
(102.279 0 0)
(102.644 0 0)
(103.056 0 0)
(103.512 0 0)
(104.008 0 0)
(104.539 0 0)
(105.103 0 0)
(105.697 0 0)
(106.318 0 0)
(106.963 0 0)
(107.629 0 0)
(108.316 0 0)
(109.021 0 0)
(109.741 0 0)
(110.477 0 0)
(111.226 0 0)
(111.986 0 0)
(112.758 0 0)
(113.539 0 0)
(114.328 0 0)
(115.126 0 0)
(115.931 0 0)
(116.741 0 0)
(117.558 0 0)
(118.379 0 0)
(119.205 0 0)
(120.035 0 0)
(120.868 0 0)
(121.703 0 0)
(122.542 0 0)
(123.382 0 0)
(124.224 0 0)
(125.068 0 0)
(125.913 0 0)
(126.758 0 0)
(127.604 0 0)
(128.451 0 0)
(129.297 0 0)
(130.144 0 0)
(130.99 0 0)
(131.835 0 0)
(132.68 0 0)
(133.524 0 0)
(134.367 0 0)
(135.209 0 0)
(136.05 0 0)
(136.889 0 0)
(137.727 0 0)
(138.563 0 0)
(139.398 0 0)
(140.231 0 0)
(141.061 0 0)
(141.89 0 0)
(142.717 0 0)
(143.541 0 0)
(144.364 0 0)
(145.184 0 0)
(146.001 0 0)
(146.817 0 0)
(147.629 0 0)
(148.44 0 0)
(149.247 0 0)
(150.052 0 0)
(150.855 0 0)
(151.655 0 0)
(152.451 0 0)
(153.246 0 0)
(154.037 0 0)
(154.825 0 0)
(155.611 0 0)
(156.393 0 0)
(157.173 0 0)
(157.949 0 0)
(158.725 0 0)
(159.488 0 0)
(160.279 0 0)
(160.971 0 0)
(161.959 0 0)
(102.337 0 0)
(102.697 0 0)
(103.1 0 0)
(103.544 0 0)
(104.026 0 0)
(104.541 0 0)
(105.086 0 0)
(105.66 0 0)
(106.259 0 0)
(106.881 0 0)
(107.524 0 0)
(108.186 0 0)
(108.865 0 0)
(109.56 0 0)
(110.269 0 0)
(110.991 0 0)
(111.725 0 0)
(112.469 0 0)
(113.223 0 0)
(113.986 0 0)
(114.756 0 0)
(115.533 0 0)
(116.317 0 0)
(117.106 0 0)
(117.9 0 0)
(118.699 0 0)
(119.501 0 0)
(120.307 0 0)
(121.117 0 0)
(121.928 0 0)
(122.743 0 0)
(123.559 0 0)
(124.376 0 0)
(125.195 0 0)
(126.015 0 0)
(126.836 0 0)
(127.657 0 0)
(128.479 0 0)
(129.3 0 0)
(130.122 0 0)
(130.943 0 0)
(131.764 0 0)
(132.584 0 0)
(133.404 0 0)
(134.222 0 0)
(135.039 0 0)
(135.856 0 0)
(136.67 0 0)
(137.484 0 0)
(138.296 0 0)
(139.106 0 0)
(139.915 0 0)
(140.721 0 0)
(141.526 0 0)
(142.329 0 0)
(143.13 0 0)
(143.929 0 0)
(144.725 0 0)
(145.52 0 0)
(146.312 0 0)
(147.101 0 0)
(147.888 0 0)
(148.673 0 0)
(149.455 0 0)
(150.235 0 0)
(151.012 0 0)
(151.786 0 0)
(152.558 0 0)
(153.326 0 0)
(154.093 0 0)
(154.856 0 0)
(155.616 0 0)
(156.374 0 0)
(157.128 0 0)
(157.882 0 0)
(158.624 0 0)
(159.392 0 0)
(160.065 0 0)
(161.024 0 0)
(102.762 0 0)
(103.158 0 0)
(103.592 0 0)
(104.06 0 0)
(104.56 0 0)
(105.088 0 0)
(105.643 0 0)
(106.222 0 0)
(106.822 0 0)
(107.443 0 0)
(108.082 0 0)
(108.737 0 0)
(109.407 0 0)
(110.091 0 0)
(110.788 0 0)
(111.496 0 0)
(112.214 0 0)
(112.942 0 0)
(113.678 0 0)
(114.422 0 0)
(115.172 0 0)
(115.929 0 0)
(116.692 0 0)
(117.46 0 0)
(118.233 0 0)
(119.009 0 0)
(119.789 0 0)
(120.572 0 0)
(121.358 0 0)
(122.147 0 0)
(122.938 0 0)
(123.73 0 0)
(124.524 0 0)
(125.319 0 0)
(126.115 0 0)
(126.912 0 0)
(127.709 0 0)
(128.506 0 0)
(129.304 0 0)
(130.101 0 0)
(130.898 0 0)
(131.695 0 0)
(132.491 0 0)
(133.287 0 0)
(134.081 0 0)
(134.875 0 0)
(135.667 0 0)
(136.458 0 0)
(137.248 0 0)
(138.036 0 0)
(138.823 0 0)
(139.608 0 0)
(140.392 0 0)
(141.173 0 0)
(141.953 0 0)
(142.731 0 0)
(143.506 0 0)
(144.28 0 0)
(145.052 0 0)
(145.821 0 0)
(146.588 0 0)
(147.353 0 0)
(148.115 0 0)
(148.875 0 0)
(149.632 0 0)
(150.387 0 0)
(151.139 0 0)
(151.889 0 0)
(152.636 0 0)
(153.38 0 0)
(154.122 0 0)
(154.861 0 0)
(155.597 0 0)
(156.33 0 0)
(157.062 0 0)
(157.783 0 0)
(158.529 0 0)
(159.184 0 0)
(160.114 0 0)
(103.229 0 0)
(103.654 0 0)
(104.11 0 0)
(104.596 0 0)
(105.108 0 0)
(105.645 0 0)
(106.205 0 0)
(106.786 0 0)
(107.385 0 0)
(108.002 0 0)
(108.634 0 0)
(109.281 0 0)
(109.941 0 0)
(110.613 0 0)
(111.296 0 0)
(111.99 0 0)
(112.692 0 0)
(113.403 0 0)
(114.121 0 0)
(114.847 0 0)
(115.578 0 0)
(116.315 0 0)
(117.058 0 0)
(117.805 0 0)
(118.556 0 0)
(119.311 0 0)
(120.069 0 0)
(120.83 0 0)
(121.593 0 0)
(122.359 0 0)
(123.127 0 0)
(123.896 0 0)
(124.667 0 0)
(125.439 0 0)
(126.212 0 0)
(126.985 0 0)
(127.759 0 0)
(128.533 0 0)
(129.307 0 0)
(130.081 0 0)
(130.855 0 0)
(131.628 0 0)
(132.401 0 0)
(133.173 0 0)
(133.944 0 0)
(134.715 0 0)
(135.484 0 0)
(136.252 0 0)
(137.019 0 0)
(137.784 0 0)
(138.548 0 0)
(139.311 0 0)
(140.072 0 0)
(140.831 0 0)
(141.588 0 0)
(142.343 0 0)
(143.097 0 0)
(143.848 0 0)
(144.597 0 0)
(145.344 0 0)
(146.089 0 0)
(146.832 0 0)
(147.573 0 0)
(148.311 0 0)
(149.047 0 0)
(149.78 0 0)
(150.511 0 0)
(151.239 0 0)
(151.965 0 0)
(152.688 0 0)
(153.408 0 0)
(154.126 0 0)
(154.842 0 0)
(155.553 0 0)
(156.265 0 0)
(156.966 0 0)
(157.69 0 0)
(158.327 0 0)
(159.229 0 0)
(103.729 0 0)
(104.175 0 0)
(104.648 0 0)
(105.145 0 0)
(105.666 0 0)
(106.208 0 0)
(106.77 0 0)
(107.349 0 0)
(107.944 0 0)
(108.555 0 0)
(109.18 0 0)
(109.817 0 0)
(110.466 0 0)
(111.126 0 0)
(111.795 0 0)
(112.473 0 0)
(113.159 0 0)
(113.853 0 0)
(114.554 0 0)
(115.261 0 0)
(115.974 0 0)
(116.691 0 0)
(117.414 0 0)
(118.14 0 0)
(118.87 0 0)
(119.604 0 0)
(120.341 0 0)
(121.08 0 0)
(121.822 0 0)
(122.565 0 0)
(123.311 0 0)
(124.058 0 0)
(124.806 0 0)
(125.555 0 0)
(126.306 0 0)
(127.056 0 0)
(127.807 0 0)
(128.559 0 0)
(129.31 0 0)
(130.062 0 0)
(130.813 0 0)
(131.564 0 0)
(132.314 0 0)
(133.063 0 0)
(133.812 0 0)
(134.56 0 0)
(135.307 0 0)
(136.052 0 0)
(136.797 0 0)
(137.54 0 0)
(138.282 0 0)
(139.022 0 0)
(139.761 0 0)
(140.498 0 0)
(141.233 0 0)
(141.967 0 0)
(142.699 0 0)
(143.428 0 0)
(144.156 0 0)
(144.882 0 0)
(145.605 0 0)
(146.327 0 0)
(147.046 0 0)
(147.763 0 0)
(148.478 0 0)
(149.19 0 0)
(149.9 0 0)
(150.607 0 0)
(151.312 0 0)
(152.015 0 0)
(152.715 0 0)
(153.412 0 0)
(154.107 0 0)
(154.799 0 0)
(155.49 0 0)
(156.17 0 0)
(156.874 0 0)
(157.493 0 0)
(158.368 0 0)
(104.254 0 0)
(104.715 0 0)
(105.199 0 0)
(105.704 0 0)
(106.229 0 0)
(106.773 0 0)
(107.333 0 0)
(107.909 0 0)
(108.499 0 0)
(109.102 0 0)
(109.718 0 0)
(110.344 0 0)
(110.981 0 0)
(111.628 0 0)
(112.283 0 0)
(112.946 0 0)
(113.616 0 0)
(114.293 0 0)
(114.976 0 0)
(115.665 0 0)
(116.358 0 0)
(117.057 0 0)
(117.759 0 0)
(118.466 0 0)
(119.176 0 0)
(119.889 0 0)
(120.605 0 0)
(121.323 0 0)
(122.043 0 0)
(122.765 0 0)
(123.489 0 0)
(124.215 0 0)
(124.941 0 0)
(125.669 0 0)
(126.397 0 0)
(127.126 0 0)
(127.855 0 0)
(128.584 0 0)
(129.314 0 0)
(130.043 0 0)