/*--------------------------------*- C++ -*----------------------------------*\
| =========                 |                                                 |
| \\      /  F ield         | OpenFOAM: The Open Source CFD Toolbox           |
|  \\    /   O peration     | Version:  2312                                  |
|   \\  /    A nd           | Website:  www.openfoam.com                      |
|    \\/     M anipulation  |                                                 |
\*---------------------------------------------------------------------------*/
FoamFile
{
    version     2.0;
    format      ascii;
    arch        "LSB;label=32;scalar=64";
    class       surfaceScalarField;
    location    "0.367";
    object      phi;
}
// * * * * * * * * * * * * * * * * * * * * * * * * * * * * * * * * * * * * * //

dimensions      [0 3 -1 0 0 0 0];

oriented        oriented;

internalField   nonuniform List<scalar> 
62015
(
31.685
0.0618532
-31.2368
32.1872
0.0616489
32.7321
0.0614544
33.3101
0.0612472
33.9131
0.0610089
34.5346
0.0607236
35.1689
0.0603795
35.8119
0.0599664
36.46
0.0594771
37.1105
0.0589054
37.7613
0.0582469
38.4107
0.0574983
39.0575
0.0566572
39.7006
0.0557217
40.3395
0.0546909
40.9735
0.0535641
41.6023
0.0523414
42.2257
0.0510225
42.8434
0.0496079
43.4556
0.0480985
44.062
0.0464949
44.6629
0.044798
45.2582
0.043009
45.8482
0.0411293
46.4329
0.0391599
47.0124
0.0371026
47.5871
0.0349584
48.157
0.0327295
48.7223
0.0304171
49.2832
0.0280231
49.84
0.0255489
50.3928
0.0229968
50.9418
0.0203687
51.4872
0.0176658
52.0292
0.0148909
52.568
0.0120452
53.1037
0.00913134
53.6367
0.00615124
54.1669
0.00310654
54.6947
0
55.2202
-0.00316651
55.7435
-0.0063911
56.2648
-0.00967091
56.7843
-0.0130042
57.3021
-0.0163887
57.8183
-0.0198216
58.3331
-0.0233014
58.8467
-0.0268248
59.3591
-0.0303903
59.8705
-0.0339952
60.3811
-0.0376369
60.8908
-0.0413131
61.3998
-0.0450213
61.9083
-0.0487595
62.4163
-0.0525246
62.9239
-0.0563145
63.4312
-0.0601264
63.9383
-0.0639582
64.4452
-0.0678072
64.9521
-0.0716705
65.459
-0.0755461
65.9659
-0.0794314
66.473
-0.0833235
66.9803
-0.08722
67.4877
-0.0911187
67.9955
-0.0950166
68.5035
-0.0989113
69.0119
-0.1028
69.5206
-0.106681
70.0298
-0.110551
70.5393
-0.114407
71.0493
-0.118247
71.5595
-0.12207
72.0708
-0.12587
72.5807
-0.12965
73.0968
-0.133394
73.5953
-0.137141
74.1498
-0.140757
-0.144653
74.5344
31.31
0.124199
-30.8385
31.8214
0.123845
32.3629
0.123465
32.9275
0.123023
33.5092
0.122491
34.103
0.121847
34.7051
0.121071
35.3123
0.12015
35.922
0.119072
36.5323
0.117829
37.1417
0.116414
37.7489
0.114821
38.3531
0.113048
38.9535
0.111092
39.5497
0.108952
40.1412
0.106627
40.7279
0.104117
41.3095
0.101423
41.8861
0.0985448
42.4575
0.0954849
43.0239
0.0922444
43.5852
0.0888256
44.1416
0.0852303
44.6932
0.0814611
45.2401
0.0775206
45.7825
0.0734116
46.3206
0.0691366
46.8544
0.0646991
47.3843
0.0601018
47.9103
0.0553485
48.4326
0.050442
48.9515
0.0453861
49.4671
0.0401841
49.9795
0.0348401
50.4891
0.0293573
50.9958
0.0237397
51.5
0.0179912
52.0017
0.0121156
52.5011
0.00611726
52.9985
0
53.4939
-0.006232
53.9875
-0.0125745
54.4794
-0.0190235
54.9698
-0.0255744
55.4589
-0.0322229
55.9467
-0.0389646
56.4333
-0.0457948
56.919
-0.0527096
57.4038
-0.0597038
57.8879
-0.0667733
58.3713
-0.0739128
58.8541
-0.0811186
59.3365
-0.0883851
59.8185
-0.0957082
60.3003
-0.103083
60.7819
-0.110504
61.2634
-0.117967
61.7449
-0.125468
62.2264
-0.133
62.708
-0.14056
63.1898
-0.148143
63.6718
-0.155743
64.1542
-0.163355
64.6368
-0.170976
65.1198
-0.178599
65.6033
-0.18622
66.0872
-0.193834
66.5716
-0.201436
67.0565
-0.209021
67.5419
-0.216584
68.0279
-0.22412
68.5145
-0.231625
69.0014
-0.239093
69.4896
-0.246518
69.9765
-0.253903
70.4695
-0.261218
70.9462
-0.268537
71.4753
-0.275606
-0.283203
71.8468
30.9853
0.187268
-30.505
31.4939
0.186748
32.0231
0.186135
32.5678
0.18539
33.1237
0.184483
33.6872
0.183386
34.2556
0.182081
34.8265
0.18055
35.3982
0.178783
35.9692
0.176768
36.5385
0.1745
37.1051
0.171971
37.6685
0.16918
38.2282
0.166123
38.7838
0.1628
39.335
0.159209
39.8817
0.155352
40.4239
0.15123
40.9615
0.146843
41.4944
0.142195
42.0228
0.137287
42.5468
0.132123
43.0663
0.126706
43.5817
0.121039
44.0929
0.115126
44.6001
0.108971
45.1035
0.102578
45.6033
0.0959515
46.0995
0.089096
46.5925
0.082016
47.0822
0.0747164
47.5689
0.0672023
48.0528
0.0594785
48.5341
0.0515507
49.0127
0.0434236
49.4891
0.0351033
49.9632
0.0265951
50.4353
0.0179044
50.9055
0.0090375
51.3739
0
51.8407
-0.0092021
52.306
-0.0185628
52.77
-0.0280761
53.2327
-0.0377352
53.6944
-0.0475343
54.1551
-0.0574672
54.6149
-0.0675267
55.0741
-0.0777071
55.5325
-0.0880012
55.9905
-0.0984028
56.448
-0.108905
56.9052
-0.119501
57.3621
-0.130184
57.8189
-0.140947
58.2756
-0.151784
58.7323
-0.162687
59.1891
-0.173649
59.6461
-0.184663
60.1032
-0.195724
60.5607
-0.206821
61.0184
-0.217951
61.4766
-0.229104
61.9352
-0.240274
62.3942
-0.251454
62.8538
-0.262637
63.3139
-0.273815
63.7746
-0.284982
64.236
-0.296129
64.6979
-0.307251
65.1606
-0.318339
65.6239
-0.329388
66.0879
-0.340388
66.5524
-0.351335
67.0182
-0.362218
67.483
-0.373041
67.9537
-0.383761
68.4093
-0.394484
68.914
-0.404848
-0.415964
69.2715
30.6777
0.251084
-30.2005
31.1745
0.250332
31.6851
0.249406
32.2057
0.248268
32.7333
0.246888
33.2653
0.245241
33.7997
0.243305
34.335
0.241066
34.8698
0.238512
35.4031
0.235633
35.9342
0.232423
36.4625
0.228875
36.9874
0.224988
37.5087
0.220758
38.0262
0.216186
38.5396
0.211271
39.0489
0.206014
39.5541
0.200418
40.0551
0.194484
40.552
0.188215
41.0449
0.181616
41.5338
0.174689
42.0189
0.167438
42.5002
0.159869
42.9779
0.151986
43.4522
0.143793
43.9231
0.135297
44.3908
0.126503
44.8555
0.117417
45.3173
0.108044
45.7764
0.0983903
46.2329
0.0884631
46.687
0.0782686
47.1387
0.0678135
47.5884
0.0571041
48.036
0.0461482
48.4818
0.0349523
48.9259
0.0235242
49.3684
0.0118709
49.8095
0
50.2493
-0.0120808
50.6878
-0.0243636
51.1254
-0.0368408
51.5619
-0.0495038
51.9977
-0.0623456
52.4327
-0.0753568
52.8671
-0.0885299
53.3009
-0.101856
53.7344
-0.115327
54.1676
-0.128935
54.6005
-0.14267
55.0333
-0.156524
55.466
-0.170488
55.8988
-0.184554
56.3317
-0.198712
56.7647
-0.212954
57.1979
-0.22727
57.6315
-0.241651
58.0654
-0.25609
58.4998
-0.270575
58.9346
-0.285099
59.3699
-0.299652
59.8058
-0.314224
60.2423
-0.328807
60.6795
-0.343392
61.1173
-0.357968
61.5558
-0.372528
61.995
-0.387062
62.435
-0.40156
62.8758
-0.416013
63.3173
-0.430413
63.7597
-0.444749
64.2027
-0.459014
64.647
-0.473195
65.0905
-0.487296
65.5397
-0.501262
65.9748
-0.515231
66.4564
-0.528736
-0.5432
66.7993
30.3691
0.315568
-29.9036
30.8479
0.314491
31.3357
0.313155
31.8297
0.311525
32.3277
0.309573
32.8279
0.307274
33.3289
0.304612
33.8296
0.301571
34.329
0.298141
34.8265
0.294312
35.3215
0.29008
35.8136
0.285438
36.3024
0.280386
36.7878
0.274921
37.2696
0.269043
37.7477
0.262753
38.222
0.256053
38.6927
0.248945
39.1596
0.241432
39.6229
0.233519
40.0826
0.225208
40.5388
0.216506
40.9916
0.207416
41.4411
0.197944
41.8875
0.188096
42.3309
0.177879
42.7714
0.167297
43.2091
0.156359
43.6442
0.145071
44.0769
0.13344
44.5072
0.121473
44.9353
0.109179
45.3613
0.0965644
45.7854
0.0836381
46.2077
0.0704078
46.6284
0.0568822
47.0475
0.04307
47.4653
0.0289794
47.8817
0.0146197
48.297
0
48.7113
-0.0148706
49.1246
-0.0299829
49.5371
-0.0453272
49.949
-0.0608937
50.3602
-0.0766731
50.7709
-0.0926553
51.1812
-0.10883
51.5912
-0.125188
52.001
-0.141718
52.4107
-0.15841
52.8203
-0.175254
53.23
-0.192239
53.6397
-0.209355
54.0497
-0.226591
54.4599
-0.243936
54.8704
-0.26138
55.2813
-0.278911
55.6926
-0.296519
56.1044
-0.314193
56.5168
-0.331922
56.9297
-0.349694
57.3433
-0.367499
57.7576
-0.385325
58.1725
-0.403162
58.5883
-0.420997
59.0047
-0.438821
59.422
-0.456622
59.8402
-0.474389
60.2591
-0.49211
60.6789
-0.509775
61.0996
-0.527372
61.5212
-0.54489
61.9436
-0.56232
62.3673
-0.579644
62.7904
-0.596871
63.219
-0.613932
63.6344
-0.630992
64.0939
-0.647492
-0.665142
64.4223
30.05
0.380598
-29.6019
30.507
0.379092
30.9696
0.377242
31.4356
0.375019
31.9037
0.372395
32.3725
0.369352
32.8411
0.365872
33.3086
0.361942
33.7743
0.357554
34.2379
0.3527
34.6988
0.347374
35.1569
0.341573
35.6119
0.335296
36.0637
0.328541
36.5122
0.321309
36.9573
0.313602
37.399
0.305422
37.8374
0.296772
38.2726
0.287656
38.7045
0.278078
39.1332
0.268044
39.5589
0.257558
39.9816
0.246627
40.4014
0.235257
40.8186
0.223454
41.2331
0.211226
41.6451
0.19858
42.0548
0.185524
42.4622
0.172065
42.8675
0.158212
43.2709
0.143974
43.6723
0.129359
44.0721
0.114376
44.4702
0.0990339
44.8669
0.0833432
45.2622
0.067313
45.6562
0.0509535
46.0492
0.0342746
46.4411
0.0172866
46.8321
0
47.2223
-0.0175745
47.6119
-0.0354263
48.0008
-0.053544
48.3893
-0.071917
48.7773
-0.0905332
49.1651
-0.109382
49.5527
-0.128452
49.9401
-0.14773
50.3275
-0.167206
50.7149
-0.186866
51.1025
-0.2067
51.4902
-0.226695
51.8782
-0.246838
52.2665
-0.267118
52.6552
-0.287521
53.0443
-0.308036
53.4339
-0.32865
53.8241
-0.349349
54.2149
-0.370122
54.6064
-0.390956
54.9985
-0.411837
55.3914
-0.432753
55.785
-0.453691
56.1795
-0.474638
56.5748
-0.495581
56.9709
-0.516507
57.368
-0.537404
57.7659
-0.558257
58.1648
-0.579055
58.5646
-0.599784
58.9654
-0.620432
59.3671
-0.640985
59.7697
-0.661432
60.1737
-0.681753
60.5772
-0.701958
60.986
-0.721969
61.3825
-0.741974
61.8209
-0.761328
-0.782006
62.1351
29.7158
0.446031
-29.2886
30.1488
0.44399
30.5849
0.441525
31.0228
0.43861
31.4613
0.435224
31.8996
0.431347
32.3369
0.426966
32.7728
0.42207
33.2066
0.416651
33.6382
0.410703
34.0671
0.404221
34.4934
0.397204
34.9167
0.38965
35.3371
0.381559
35.7545
0.372933
36.1688
0.363773
36.5802
0.354083
36.9886
0.343866
37.394
0.333128
37.7966
0.321872
38.1965
0.310106
38.5937
0.297835
38.9883
0.285065
39.3804
0.271804
39.7702
0.258059
40.1578
0.243839
40.5432
0.229151
40.9266
0.214004
41.3081
0.198408
41.6878
0.18237
42.0659
0.165902
42.4424
0.149012
42.8175
0.131712
43.1912
0.11401
43.5638
0.0959188
43.9353
0.077448
44.3057
0.0586095
44.6754
0.0394141
45.0442
0.0198738
45.4123
0
45.7799
-0.0201951
46.147
-0.0406992
46.5137
-0.0615002
46.8802
-0.0825852
47.2464
-0.103942
47.6125
-0.125557
47.9785
-0.147418
48.3446
-0.169511
48.7108
-0.191823
49.0772
-0.21434
49.4438
-0.23705
49.8108
-0.259937
50.1781
-0.282989
50.5459
-0.306192
50.9142
-0.32953
51.2831
-0.352991
51.6525
-0.376559
52.0226
-0.400222
52.3935
-0.423963
52.765
-0.447769
53.1374
-0.471626
53.5106
-0.495519
53.8846
-0.519432
54.2595
-0.543353
54.6353
-0.567265
55.0121
-0.591155
55.3898
-0.615008
55.7685
-0.638808
56.1482
-0.662543
56.5289
-0.686195
56.9106
-0.709753
57.2934
-0.7332
57.677
-0.756524
58.0621
-0.779702
58.4469
-0.802745
58.8368
-0.825565
59.2152
-0.848374
59.6333
-0.870448
-0.894003
59.9339
29.3643
0.511719
-28.9601
29.7723
0.509042
30.1818
0.505866
30.5918
0.50217
31.0016
0.497934
31.4106
0.493143
31.8181
0.487787
32.2239
0.481855
32.6277
0.475341
33.0292
0.468239
33.4282
0.460548
33.8246
0.452265
34.2184
0.44339
34.6094
0.433924
34.9978
0.423869
35.3835
0.413227
35.7664
0.402004
36.1468
0.390202
36.5246
0.377827
36.8999
0.364886
37.2729
0.351384
37.6435
0.337328
38.0118
0.322725
38.3781
0.307584
38.7424
0.291913
39.1047
0.275721
39.4652
0.259016
39.824
0.241808
40.1813
0.224107
40.537
0.205923
40.8914
0.187268
41.2445
0.16815
41.5964
0.148583
41.9473
0.128577
42.2972
0.108143
42.6463
0.087295
42.9946
0.0660438
43.3423
0.0444023
43.6894
0.0223834
44.0361
0
44.3823
-0.0227346
44.7283
-0.0458071
45.074
-0.0692038
45.4197
-0.0929108
45.7652
-0.116914
46.1109
-0.141199
46.4566
-0.165752
46.8025
-0.190557
47.1487
-0.215601
47.4951
-0.240869
47.842
-0.266344
48.1893
-0.292013
48.5371
-0.317859
48.8854
-0.343868
49.2344
-0.370023
49.584
-0.39631
49.9343
-0.422712
50.2854
-0.449213
50.6372
-0.475799
50.9899
-0.502452
51.3434
-0.529156
51.6978
-0.555897
52.0532
-0.582656
52.4095
-0.609419
52.7668
-0.636169
53.1251
-0.66289
53.4844
-0.689566
53.8447
-0.71618
54.2061
-0.742717
54.5686
-0.769159
54.9321
-0.795492
55.2967
-0.821698
55.6623
-0.847764
56.0293
-0.873665
56.3962
-0.899411
56.768
-0.924908
57.1289
-0.950387
57.5277
-0.975052
-1.00134
57.8151
28.9952
0.577518
-28.6147
29.378
0.574109
29.7612
0.570134
30.1441
0.565574
30.5263
0.560412
30.9072
0.554637
31.2866
0.548238
31.6641
0.541208
32.0395
0.533542
32.4128
0.525236
32.7837
0.516288
33.1523
0.506698
33.5185
0.496464
33.8822
0.485591
34.2435
0.47408
34.6024
0.461934
34.9589
0.449159
35.3132
0.435758
35.6652
0.421739
36.0151
0.407107
36.3628
0.391869
36.7086
0.376033
37.0525
0.359607
37.3946
0.3426
37.735
0.32502
38.0737
0.306878
38.411
0.288182
38.7468
0.268944
39.0813
0.249174
39.4146
0.228883
39.7468
0.208082
40.0779
0.186784
40.4082
0.165
40.7376
0.142743
41.0663
0.120026
41.3943
0.0968614
41.7218
0.0732627
42.0488
0.0492437
42.3755
0.024818
42.7019
0
43.028
-0.0251961
43.3541
-0.0507556
43.6801
-0.0766635
44.0061
-0.102905
44.3322
-0.129465
44.6585
-0.156327
44.985
-0.183476
45.3119
-0.210897
45.6391
-0.238572
45.9667
-0.266486
46.2948
-0.294623
46.6235
-0.322965
46.9528
-0.351497
47.2827
-0.380201
47.6133
-0.40906
47.9447
-0.438058
48.2768
-0.467177
48.6098
-0.4964
48.9436
-0.52571
49.2783
-0.555088
49.614
-0.584519
49.9506
-0.613984
50.2882
-0.643465
50.6268
-0.672946
50.9664
-0.702408
51.3071
-0.731833
51.6489
-0.761205
51.9917
-0.790505
52.3356
-0.819716
52.6807
-0.84882
53.0268
-0.877799
53.3741
-0.906636
53.7224
-0.935315
54.0722
-0.963811
54.4219
-0.992132
54.7764
-1.02018
55.1207
-1.0482
55.5009
-1.07533
-1.10421
55.7758
28.6088
0.643288
-28.2521
28.9667
0.639062
29.3244
0.634207
29.6813
0.628709
30.0371
0.622553
30.3915
0.61573
30.7442
0.608231
31.0951
0.60005
31.444
0.591184
31.7909
0.581629
32.1356
0.571385
32.4782
0.560452
32.8185
0.54883
33.1567
0.536523
33.4928
0.523534
33.8268
0.509867
34.1587
0.495527
34.4886
0.480519
34.8165
0.464849
35.1426
0.448526
35.467
0.431557
35.7896
0.413949
36.1106
0.395712
36.4301
0.376854
36.7482
0.357386
37.0649
0.337317
37.3804
0.316659
37.6947
0.295422
38.0079
0.273618
38.3202
0.251259
38.6315
0.228356
38.9421
0.204924
39.252
0.180974
39.5612
0.15652
39.8699
0.131576
40.1782
0.106155
40.4861
0.0802723
40.7937
0.0539423
41.1012
0.0271797
41.4085
0
41.7157
-0.0275815
42.023
-0.0555494
42.3303
-0.0838875
42.6378
-0.112579
42.9456
-0.141609
43.2536
-0.170959
43.562
-0.200613
43.8709
-0.230554
44.1802
-0.260764
44.49
-0.291226
44.8004
-0.321923
45.1114
-0.352837
45.4232
-0.383949
45.7356
-0.415242
46.0489
-0.446697
46.3629
-0.478296
46.6778
-0.510021
46.9936
-0.541853
47.3103
-0.573772
47.628
-0.605762
47.9466
-0.637802
48.2663
-0.669874
48.587
-0.701959
48.9087
-0.734037
49.2316
-0.766091
49.5555
-0.7981
49.8805
-0.830046
50.2067
-0.86191
50.534
-0.893673
50.8624
-0.925316
51.192
-0.956819
51.5227
-0.988164
51.8545
-1.01933
52.1878
-1.0503
52.5211
-1.08107
52.859
-1.11155
53.1874
-1.14198
53.5498
-1.17147
-1.20281
53.8127
28.206
0.708896
-27.8727
28.5398
0.703777
28.873
0.697973
29.2051
0.691472
29.5359
0.684262
29.8653
0.676336
30.1929
0.667687
30.5189
0.658309
30.8429
0.648201
31.1651
0.637361
31.4853
0.625788
31.8036
0.613483
32.1199
0.600449
32.4344
0.586688
32.7469
0.572205
33.0576
0.557003
33.3665
0.541089
33.6737
0.524469
33.9793
0.507149
34.2833
0.489138
34.5857
0.470444
34.8867
0.451075
35.1864
0.43104
35.4848
0.410351
35.782
0.389016
36.0781
0.367047
36.3732
0.344455
36.6673
0.321252
36.9607
0.29745
37.2532
0.273063
37.5451
0.248102
37.8363
0.222581
38.1271
0.196514
38.4174
0.169916
38.7074
0.142801
38.9971
0.115183
39.2866
0.0870783
39.5759
0.0585025
39.8653
0.0294709
40.1546
0
40.444
-0.0298939
40.7336
-0.0601939
41.0234
-0.0908829
41.3134
-0.121944
41.6039
-0.153359
41.8947
-0.185111
42.186
-0.217182
42.4777
-0.249553
42.7701
-0.282206
43.0631
-0.315122
43.3567
-0.348283
43.6511
-0.381669
43.9462
-0.415262
44.2421
-0.449042
44.5389
-0.482989
44.8365
-0.517084
45.135
-0.551308
45.4345
-0.585641
45.735
-0.620062
46.0365
-0.654551
46.339
-0.689089
46.6425
-0.723656
46.9471
-0.758231
47.2529
-0.792794
47.5597
-0.827324
47.8677
-0.861802
48.1768
-0.896207
48.487
-0.930518
48.7985
-0.964716
49.1111
-0.99878
49.4248
-1.03269
49.7398
-1.06643
50.0558
-1.09997
50.3733
-1.13329
50.691
-1.1664
51.0131
-1.19918
51.3262
-1.23192
51.6716
-1.26364
-1.29732
51.9229
27.7881
0.774222
-27.4775
28.0988
0.768143
28.4086
0.761328
28.7172
0.753768
29.0245
0.745453
29.3303
0.736377
29.6345
0.726534
29.937
0.715922
30.2379
0.704537
30.537
0.692381
30.8344
0.679452
31.13
0.665753
31.424
0.651287
31.7162
0.636057
32.0068
0.620067
32.2959
0.603323
32.5834
0.585831
32.8694
0.567598
33.1541
0.548631
33.4374
0.528938
33.7194
0.508529
34.0002
0.487412
34.2799
0.465598
34.5586
0.443096
34.8363
0.419918
35.1132
0.396076
35.3892
0.37158
35.6645
0.346445
35.9391
0.320682
36.2132
0.294305
36.4868
0.267329
36.76
0.239766
37.0328
0.211632
37.3054
0.182941
37.5777
0.153709
37.85
0.123953
38.1222
0.0936867
38.3944
0.0629281
38.6666
0.0316935
38.939
0
39.2117
-0.0321349
39.4846
-0.0646936
39.7578
-0.097658
40.0314
-0.13101
40.3055
-0.164731
40.58
-0.198802
40.8551
-0.233204
41.1308
-0.267918
41.4072
-0.302925
41.6842
-0.338204
41.962
-0.373736
42.2406
-0.409501
42.5199
-0.445478
42.8002
-0.481647
43.0813
-0.517988
43.3634
-0.554479
43.6464
-0.5911
43.9304
-0.62783
44.2155
-0.664648
44.5016
-0.701532
44.7887
-0.738462
45.077
-0.775416
45.3663
-0.812373
45.6568
-0.849311
45.9484
-0.886208
46.2412
-0.923044
46.5351
-0.959797
46.8303
-0.996445
47.1266
-1.03297
47.4241
-1.06934
47.7227
-1.10555
48.0226
-1.14156
48.3236
-1.17736
48.6261
-1.21293
48.9288
-1.24826
49.2357
-1.28324
49.5343
-1.31817
49.8635
-1.35202
-1.38791
50.1037
27.3566
0.839156
-27.0678
27.6453
0.832059
27.933
0.82418
28.2195
0.815513
28.5046
0.806049
28.7883
0.795783
29.0705
0.784711
29.3512
0.772831
29.6304
0.760142
29.908
0.746645
30.1841
0.732339
30.4586
0.717229
30.7317
0.701316
31.0033
0.684606
31.2735
0.667103
31.5423
0.648812
31.8099
0.629742
32.0762
0.609898
32.3413
0.58929
32.6053
0.567925
32.8683
0.545813
33.1303
0.522964
33.3914
0.499387
33.6516
0.475096
33.9111
0.4501
34.17
0.424412
34.4281
0.398044
34.6858
0.37101
34.943
0.343324
35.1998
0.314998
35.4562
0.286049
35.7124
0.256489
35.9684
0.226336
36.2243
0.195604
36.4801
0.164311
36.7359
0.132471
36.9918
0.100103
37.2479
0.0672231
37.5041
0.0338495
37.7606
0
38.0174
-0.0343071
38.2746
-0.0690534
38.5322
-0.10422
38.7903
-0.139787
39.0489
-0.175736
39.3081
-0.212047
39.568
-0.248699
39.8285
-0.285673
40.0897
-0.322947
40.3517
-0.360502
40.6144
-0.398317
40.878
-0.436369
41.1425
-0.474639
41.4079
-0.513104
41.6743
-0.551743
41.9416
-0.590534
42.2099
-0.629455
42.4793
-0.668484
42.7497
-0.707599
43.0211
-0.746778
43.2937
-0.785998
43.5674
-0.825236
43.8422
-0.864472
44.1182
-0.90368
44.3954
-0.94284
44.6737
-0.981929
44.9532
-1.02092
45.2339
-1.0598
45.5158
-1.09854
45.7989
-1.13712
46.0832
-1.17551
46.3687
-1.2137
46.6553
-1.25165
46.9435
-1.28935
47.2319
-1.3268
47.5243
-1.36388
47.809
-1.40088
48.1226
-1.43677
-1.47475
48.3523
26.9131
0.903598
-26.645
27.1811
0.895433
27.4479
0.886446
27.7135
0.87663
27.9779
0.86598
28.2409
0.854491
28.5026
0.842161
28.7629
0.828988
29.0219
0.814972
29.2794
0.800114
29.5356
0.784416
29.7905
0.767881
30.0441
0.750512
30.2965
0.732315
30.5477
0.713295
30.7977
0.693459
31.0467
0.672812
31.2946
0.651364
31.5415
0.629123
31.7875
0.606097
32.0327
0.582297
32.2771
0.557733
32.5208
0.532416
32.7639
0.506358
33.0063
0.47957
33.2483
0.452065
33.4898
0.423858
33.7309
0.39496
33.9717
0.365387
34.2123
0.335152
34.4527
0.304272
34.6929
0.272762
34.9331
0.240637
35.1734
0.207915
35.4136
0.174612
35.6541
0.140745
35.8947
0.106332
36.1355
0.0713913
36.3767
0.0359411
36.6182
0
36.8601
-0.0364127
37.1025
-0.0732777
37.3454
-0.110575
37.5888
-0.148285
37.8329
-0.186387
38.0776
-0.22486
38.323
-0.263684
38.5691
-0.302837
38.816
-0.342298
39.0637
-0.382045
39.3123
-0.422057
39.5618
-0.462311
39.8122
-0.502785
40.0635
-0.543456
40.3158
-0.584303
40.5692
-0.625302
40.8235
-0.666429
41.079
-0.707663
41.3355
-0.74898
41.5931
-0.790357
41.8518
-0.831769
42.1117
-0.873195
42.3727
-0.91461
42.6349
-0.95599
42.8983
-0.997313
43.1629
-1.03855
43.4286
-1.07969
43.6956
-1.1207
43.9638
-1.16155
44.2331
-1.20223
44.5037
-1.24271
44.7756
-1.28296
45.0485
-1.32297
45.3229
-1.36271
45.5977
-1.40217
45.8764
-1.44124
46.1477
-1.48022
46.4465
-1.51804
-1.55801
46.6661
26.4593
0.967458
-26.2107
26.7076
0.958185
26.9549
0.948051
27.201
0.937054
27.4459
0.925187
27.6897
0.912449
27.9322
0.898836
28.1735
0.88435
28.4135
0.868989
28.6524
0.852757
28.8901
0.835654
29.1267
0.817686
29.3622
0.798856
29.5967
0.77917
29.8301
0.758633
30.0626
0.737253
30.2942
0.715036
30.525
0.691992
30.755
0.668129
30.9842
0.643456
31.2128
0.617985
31.4408
0.591726
31.6682
0.56469
31.8952
0.53689
32.1217
0.508337
32.3479
0.479047
32.5738
0.449031
32.7994
0.418304
33.0249
0.386882
33.2503
0.354779
33.4756
0.322011
33.7009
0.288594
33.9263
0.254546
34.1518
0.219882
34.3775
0.184621
34.6035
0.148781
34.8297
0.11238
35.0562
0.0754364
35.2832
0.0379701
35.5106
0
35.7385
-0.0384537
35.9669
-0.0773709
36.1959
-0.116731
36.4256
-0.156513
36.6559
-0.196696
36.8869
-0.237258
37.1187
-0.278178
37.3512
-0.319433
37.5846
-0.361002
37.8189
-0.402861
38.054
-0.444988
38.2901
-0.48736
38.5271
-0.529954
38.7652
-0.572746
39.0042
-0.615713
39.2443
-0.658831
39.4854
-0.702077
39.7276
-0.745425
39.971
-0.788853
40.2154
-0.832335
40.461
-0.875848
40.7078
-0.919367
40.9557
-0.962867
41.2048
-1.00632
41.455
-1.04971
41.7065
-1.09301
41.9592
-1.13619
42.2131
-1.17923
42.4682
-1.22211
42.7245
-1.26479
42.9821
-1.30726
43.2408
-1.34948
43.5007
-1.39145
43.7621
-1.43312
44.0238
-1.4745
44.2893
-1.51546
44.548
-1.55633
44.8326
-1.59598
-1.63784
45.0425
25.9967
1.03066
-25.7664
26.2266
1.02024
26.4555
1.00893
26.6834
0.996724
26.9102
0.983617
27.1359
0.969607
27.3605
0.954694
27.5841
0.938879
27.8066
0.922161
28.0281
0.904544
28.2486
0.88603
28.4681
0.866625
28.6868
0.846331
28.9045
0.825156
29.1215
0.803106
29.3376
0.780188
29.5531
0.756409
29.7678
0.73178
29.982
0.706309
30.1956
0.680006
30.4087
0.652882
30.6213
0.624948
30.8335
0.596217
31.0455
0.5667
31.2571
0.536412
31.4685
0.505365
31.6798
0.473575
31.891
0.441054
32.1021
0.40782
32.3132
0.373889
32.5244
0.339275
32.7357
0.303997
32.9472
0.268071
33.1589
0.231514
33.3709
0.194347
33.5833
0.156586
33.7959
0.118251
34.0091
0.0793621
34.2227
0.0399383
34.4368
0
34.6514
-0.0404322
34.8667
-0.081337
35.0827
-0.122694
35.2993
-0.16448
35.5166
-0.206674
35.7347
-0.249254
35.9536
-0.292197
36.1734
-0.335481
36.394
-0.379081
36.6155
-0.422975
36.838
-0.467139
37.0614
-0.51155
37.2858
-0.556183
37.5112
-0.601013
37.7377
-0.646018
37.9652
-0.691171
38.1938
-0.736448
38.4235
-0.781825
38.6543
-0.827277
38.8862
-0.872777
39.1194
-0.918301
39.3536
-0.963824
39.5891
-1.00932
39.8257
-1.05476
40.0636
-1.10013
40.3026
-1.14539
40.5428
-1.19053
40.7843
-1.23551
41.0269
-1.28031
41.2708
-1.3249
41.5159
-1.36926
41.7622
-1.41337
42.0097
-1.4572
42.2586
-1.50071
42.5079
-1.54392
42.7608
-1.58668
43.0074
-1.62934
43.2785
-1.67073
-1.71438
43.4791
25.5269
1.09313
-25.3139
25.7396
1.08154
25.9513
1.06903
26.1622
1.05559
26.372
1.04122
26.5809
1.02593
26.7889
1.0097
26.996
0.992543
27.2021
0.97446
27.4074
0.955453
27.6119
0.935524
27.8155
0.91468
28.0185
0.892925
28.2207
0.870265
28.4222
0.846707
28.6232
0.82226
28.8235
0.796931
29.0234
0.770729
29.2228
0.743665
29.4218
0.71575
29.6204
0.686993
29.8187
0.657407
30.0168
0.627005
30.2146
0.595799
30.4124
0.563803
30.61
0.531032
30.8076
0.4975
31.0052
0.463222
31.2029
0.428214
31.4006
0.392493
31.5986
0.356076
31.7968
0.318979
31.9952
0.281221
32.194
0.24282
32.3931
0.203796
32.5926
0.164166
32.7926
0.123951
32.9931
0.0831718
33.1941
0.0418477
33.3957
0
33.5979
-0.04235
33.8008
-0.0851805
34.0044
-0.128469
34.2087
-0.172195
34.4138
-0.216333
34.6198
-0.260863
34.8265
-0.305759
35.0342
-0.350999
35.2427
-0.396558
35.4522
-0.442413
35.6626
-0.488539
35.8741
-0.534912
36.0865
-0.581506
36.3
-0.628297
36.5145
-0.675259
36.7301
-0.722367
36.9468
-0.769595
37.1647
-0.816918
37.3836
-0.864309
37.6037
-0.911743
37.825
-0.959194
38.0474
-1.00664
38.271
-1.05404
38.4958
-1.10138
38.7218
-1.14864
38.949
-1.19578
39.1774
-1.24278
39.407
-1.28961
39.6379
-1.33625
39.8699
-1.38267
40.1031
-1.42884
40.3376
-1.47473
40.5732
-1.52034
40.8102
-1.5656
41.0477
-1.61055
41.2886
-1.65503
41.5236
-1.69938
41.7818
-1.74244
-1.78778
41.9735
25.0513
1.15481
-24.8545
25.2479
1.14203
25.4437
1.12829
25.6386
1.11361
25.8327
1.09797
26.0259
1.08137
26.2184
1.06382
26.4101
1.04532
26.601
1.02586
26.7912
1.00546
26.9808
0.984121
27.1697
0.96184
27.358
0.938627
27.5457
0.914489
27.7329
0.889433
27.9197
0.863467
28.106
0.8366
28.292
0.808842
28.4776
0.780203
28.663
0.750693
28.8481
0.720325
29.033
0.689111
29.2178
0.657063
29.4026
0.624196
29.5873
0.590523
29.772
0.556058
29.9568
0.520818
30.1417
0.484818
30.3267
0.448074
30.512
0.410603
30.6976
0.372423
30.8834
0.333552
31.0696
0.294007
31.2562
0.253809
31.4432
0.212975
31.6307
0.171527
31.8187
0.129485
32.0073
0.0868687
32.1965
0.0437
32.3863
0
32.5768
-0.0442091
32.768
-0.0889048
32.96
-0.134065
33.1528
-0.179666
33.3463
-0.225684
33.5407
-0.272096
33.736
-0.318879
33.9322
-0.366007
34.1294
-0.413455
34.3275
-0.4612
34.5265
-0.509216
34.7266
-0.557477
34.9277
-0.605958
35.1299
-0.654633
35.3332
-0.703477
35.5375
-0.752462
35.7429
-0.801562
35.9495
-0.850752
36.1572
-0.900005
36.3661
-0.949292
36.5761
-0.998589
36.7873
-1.04787
36.9997
-1.0971
37.2132
-1.14626
37.428
-1.19532
37.6439
-1.24426
37.8611
-1.29304
38.0794
-1.34164
38.299
-1.39003
38.5197
-1.43819
38.7417
-1.48608
38.9648
-1.53368
39.1891
-1.58098
39.4148
-1.62791
39.641
-1.67451
39.8705
-1.72062
40.0944
-1.76659
40.3403
-1.81123
-1.85816
40.5235
24.5714
1.21565
-24.3896
24.753
1.20165
24.9338
1.18668
25.1139
1.17074
25.2933
1.15381
25.472
1.13591
25.65
1.11703
25.8274
1.09718
26.0042
1.07635
26.1804
1.05456
26.356
1.03181
26.5312
1.00809
26.7059
0.983431
26.8801
0.957824
27.054
0.93128
27.2275
0.903809
27.4008
0.875419
27.5738
0.846121
27.7465
0.815925
27.9192
0.784843
28.0917
0.752886
28.2641
0.720068
28.4366
0.686402
28.609
0.651901
28.7815
0.61658
28.9542
0.580455
29.127
0.54354
29.3
0.505853
29.4733
0.467411
29.6468
0.42823
29.8207
0.388328
29.995
0.347724
30.1697
0.306437
30.3448
0.264487
30.5205
0.221893
30.6967
0.178676
30.8735
0.134857
31.0509
0.0904565
31.2289
0.0454967
31.4077
0
31.5871
-0.0460112
31.7674
-0.0925141
31.9484
-0.139485
32.1302
-0.1869
32.3129
-0.234737
32.4964
-0.282968
32.6809
-0.331572
32.8663
-0.380521
33.0526
-0.429792
33.24
-0.479359
33.4283
-0.529195
33.6177
-0.579274
33.8081
-0.629571
33.9996
-0.680058
34.1921
-0.73071
34.3858
-0.781499
34.5805
-0.832397
34.7764
-0.883379
34.9735
-0.934415
35.1716
-0.98548
35.371
-1.03654
35.5715
-1.08758
35.7732
-1.13856
35.9761
-1.18946
36.1801
-1.24025
36.3854
-1.2909
36.5918
-1.34138
36.7995
-1.39167
37.0083
-1.44174
37.2183
-1.49155
37.4295
-1.54109
37.6419
-1.59032
37.8554
-1.63922
38.0703
-1.68775
38.2857
-1.73592
38.5043
-1.78358
38.7177
-1.83108
38.9518
-1.87723
-1.92568
39.127
24.0884
1.27559
-23.9207
24.256
1.26038
24.4229
1.24416
24.5892
1.22695
24.7549
1.20873
24.9201
1.18952
25.0847
1.16931
25.2488
1.14811
25.4124
1.12591
25.5755
1.10273
25.7383
1.07857
25.9006
1.05344
26.0626
1.02733
26.2243
1.00027
26.3858
0.97225
26.547
0.943288
26.708
0.913392
26.8689
0.882572
27.0297
0.85084
27.1905
0.818207
27.3512
0.784685
27.512
0.750289
27.6729
0.71503
27.8338
0.678925
27.995
0.641987
28.1563
0.604233
28.3179
0.565679
28.4798
0.52634
28.642
0.486236
28.8046
0.445383
28.9675
0.4038
29.131
0.361506
29.2949
0.318521
29.4593
0.274864
29.6243
0.230556
29.7899
0.185618
29.9561
0.140071
30.123
0.0939377
30.2905
0.0472397
30.4588
0
30.6279
-0.0477583
30.7978
-0.0960116
30.9684
-0.144736
31.14
-0.193907
31.3124
-0.2435
31.4857
-0.293491
31.6599
-0.343853
31.8351
-0.394561
32.0113
-0.44559
32.1884
-0.496912
32.3666
-0.548501
32.5458
-0.600332
32.7261
-0.652376
32.9074
-0.704606
33.0899
-0.756996
33.2734
-0.809517
33.458
-0.862142
33.6438
-0.914843
33.8307
-0.967592
34.0188
-1.02036
34.208
-1.07312
34.3984
-1.12584
34.5899
-1.1785
34.7827
-1.23106
34.9766
-1.2835
35.1716
-1.33579
35.3679
-1.3879
35.5654
-1.4398
35.764
-1.49146
35.9638
-1.54286
36.1648
-1.59396
36.3669
-1.64474
36.5702
-1.69517
36.7748
-1.74522
36.9799
-1.79488
37.1881
-1.84402
37.3915
-1.89298
37.6144
-1.94056
-1.99043
37.7819
23.6035
1.33461
-23.449
23.7581
1.31816
23.9121
1.30069
24.0656
1.28221
24.2186
1.2627
24.3711
1.24218
24.5232
1.22064
24.675
1.19809
24.8263
1.17453
24.9773
1.14997
25.128
1.12441
25.2785
1.09786
25.4287
1.07033
25.5787
1.04182
25.7285
1.01234
25.8783
0.981907
26.028
0.950523
26.1776
0.918201
26.3272
0.884954
26.4769
0.850793
26.6267
0.815731
26.7765
0.779782
26.9266
0.74296
27.0768
0.705279
27.2273
0.666755
27.3781
0.627405
27.5292
0.587244
27.6806
0.54629
27.8324
0.504561
27.9847
0.462075
28.1375
0.418851
28.2907
0.374908
28.4445
0.330267
28.5988
0.284948
28.7538
0.238971
28.9094
0.192359
29.0657
0.145133
29.2227
0.0973161
29.3804
0.0489307
29.5388
0
29.6981
-0.0494521
29.8582
-0.0994015
30.0192
-0.149823
30.181
-0.200693
30.3437
-0.251986
30.5073
-0.303675
30.6719
-0.355736
30.8375
-0.408142
31.004
-0.460865
31.1715
-0.513881
31.3401
-0.56716
31.5097
-0.620677
31.6804
-0.674403
31.8522
-0.72831
32.025
-0.782371
32.1989
-0.836557
32.374
-0.89084
32.5502
-0.945191
32.7275
-0.999581
32.9059
-1.05398
33.0856
-1.10837
33.2663
-1.1627
33.4482
-1.21696
33.6313
-1.27112
33.8156
-1.32513
34.001
-1.37899
34.1876
-1.43265
34.3754
-1.48609
34.5643
-1.53928
34.7544
-1.59218
34.9456
-1.64478
35.138
-1.69704
35.3315
-1.74893
35.5263
-1.80041
35.7217
-1.8515
35.92
-1.90204
36.1138
-1.95239
36.326
-2.00133
-2.05255
36.4861
23.1179
1.39267
-22.9756
23.2603
1.37498
23.4023
1.35626
23.5439
1.3365
23.6851
1.3157
23.8259
1.29387
23.9664
1.27101
24.1066
1.24712
24.2466
1.2222
24.3863
1.19627
24.5258
1.16933
24.6652
1.14137
24.8044
1.11242
24.9435
1.08248
25.0826
1.05156
25.2216
1.01967
25.3607
0.986818
25.4998
0.953015
25.639
0.918275
25.7784
0.88261
25.9179
0.846033
26.0576
0.808559
26.1975
0.7702
26.3377