/*--------------------------------*- C++ -*----------------------------------*\
| =========                 |                                                 |
| \\      /  F ield         | OpenFOAM: The Open Source CFD Toolbox           |
|  \\    /   O peration     | Version:  2312                                  |
|   \\  /    A nd           | Website:  www.openfoam.com                      |
|    \\/     M anipulation  |                                                 |
\*---------------------------------------------------------------------------*/
FoamFile
{
    version     2.0;
    format      ascii;
    arch        "LSB;label=32;scalar=64";
    class       surfaceScalarField;
    location    "0.159";
    object      phi;
}
// * * * * * * * * * * * * * * * * * * * * * * * * * * * * * * * * * * * * * //

dimensions      [0 3 -1 0 0 0 0];

oriented        oriented;

internalField   nonuniform List<scalar> 
62015
(
74.5027
0.391948
-75.1477
73.8572
0.382587
73.2111
0.373075
72.5644
0.363419
71.917
0.353627
71.2688
0.343705
70.6198
0.333661
69.9696
0.323504
69.3181
0.313241
68.6651
0.302881
68.0102
0.292432
67.353
0.281902
66.6931
0.271301
66.0301
0.260637
65.3634
0.249919
64.6923
0.239156
64.0161
0.228359
63.334
0.217537
62.645
0.2067
61.9481
0.195858
61.2419
0.185022
60.5251
0.174204
59.796
0.163413
59.0528
0.152662
58.2931
0.141964
57.5145
0.131331
56.7137
0.120776
55.8872
0.110313
55.0305
0.0999589
54.138
0.0897285
53.2029
0.0796397
52.2162
0.0697115
51.1659
0.0599663
50.036
0.0504273
48.8066
0.041125
47.4456
0.0320974
45.8725
0.0233886
43.9008
0.0150436
41.2654
0.00716061
37.8698
0
34.0757
-0.00604722
30.5803
-0.0108097
27.918
-0.0146009
26.1806
-0.0179641
25.1672
-0.0212972
24.6285
-0.0247639
24.3787
-0.0283938
24.3035
-0.0321701
24.3371
-0.0360706
24.4419
-0.0400765
24.5961
-0.0441752
24.7863
-0.0483578
25.0043
-0.0526182
25.2445
-0.0569513
25.503
-0.0613532
25.7772
-0.0658202
26.0651
-0.0703495
26.3653
-0.0749378
26.6765
-0.0795821
26.998
-0.0842793
27.3291
-0.0890267
27.6692
-0.0938211
28.0178
-0.0986596
28.3747
-0.103539
28.7394
-0.108456
29.1119
-0.113408
29.4918
-0.118392
29.8791
-0.123404
30.2735
-0.12844
30.675
-0.133499
31.0835
-0.138576
31.4988
-0.143668
31.9209
-0.148773
32.3501
-0.153883
32.7845
-0.159005
33.2301
-0.164108
33.6684
-0.169275
34.1561
-0.174228
-0.179824
34.5184
72.0407
0.769647
-72.668
71.413
0.751229
70.7852
0.732518
70.1571
0.713529
69.5287
0.694275
68.8998
0.674772
68.2704
0.655034
67.6403
0.635077
67.0092
0.614916
66.3769
0.594567
65.7431
0.574047
65.1075
0.553372
64.4696
0.532558
63.829
0.511624
63.1851
0.490588
62.5373
0.469466
61.885
0.448278
61.2273
0.427043
60.5633
0.40578
59.8921
0.384509
59.2123
0.363251
58.5228
0.342028
57.8219
0.32086
57.1078
0.299772
56.3784
0.278786
55.6314
0.257929
54.8637
0.237224
54.072
0.216701
53.252
0.196389
52.3986
0.176318
51.5053
0.156524
50.564
0.137043
49.5633
0.117917
48.4886
0.0991933
47.3211
0.0809283
46.0324
0.0631959
44.5532
0.0460813
42.7187
0.0296751
40.2776
0.0141562
37.101
0
33.4745
-0.012038
30.0446
-0.0215561
27.3649
-0.0290841
25.5782
-0.0356829
24.5168
-0.0421774
23.9405
-0.0489281
23.6622
-0.0560063
23.5641
-0.0633803
23.5779
-0.0710029
23.6645
-0.0788349
23.8012
-0.0868492
23.9743
-0.0950271
24.1753
-0.103355
24.3983
-0.111823
24.6396
-0.120423
24.8965
-0.129149
25.1668
-0.137993
25.4492
-0.146949
25.7426
-0.156012
26.0459
-0.165176
26.3586
-0.174435
26.6801
-0.183784
27.0099
-0.193216
27.3477
-0.202725
27.6932
-0.212306
28.0462
-0.221951
28.4064
-0.231656
28.7736
-0.241414
29.1478
-0.251219
29.5289
-0.261063
29.9166
-0.270942
30.311
-0.280847
30.7118
-0.290774
31.1195
-0.300712
31.5322
-0.310669
31.9556
-0.320588
32.3723
-0.330625
32.8351
-0.340259
-0.351098
33.1831
69.6451
1.13339
-70.2553
69.035
1.10621
68.425
1.07861
67.8151
1.0506
67.2052
1.02221
66.5951
0.993464
65.9848
0.964374
65.3741
0.934966
64.7627
0.905263
64.1505
0.875288
63.5371
0.845066
62.9222
0.814619
62.3054
0.783973
61.6862
0.753154
61.0642
0.722187
60.4388
0.691097
59.8092
0.659914
59.1748
0.628663
58.5347
0.597374
57.8879
0.566075
57.2332
0.534798
56.5695
0.503572
55.8952
0.47243
55.2086
0.441406
54.5078
0.410533
53.7904
0.379848
53.0537
0.349389
52.2944
0.319196
51.5087
0.289311
50.6916
0.259781
49.8371
0.230655
48.9375
0.201987
47.9823
0.173838
46.9578
0.146276
45.8465
0.119382
44.6224
0.0932643
43.2246
0.0680461
41.5061
0.0438609
39.2311
0.0209597
36.2524
0
32.7949
-0.0179291
29.4533
-0.032165
26.785
-0.0433788
24.9714
-0.0531089
23.8761
-0.0626219
23.2706
-0.0724971
22.9687
-0.0828611
22.8509
-0.0936701
22.8471
-0.104851
22.9172
-0.116342
23.0379
-0.128102
23.1951
-0.1401
23.3802
-0.152316
23.5873
-0.164734
23.8125
-0.177341
24.053
-0.190129
24.3068
-0.203086
24.5725
-0.216204
24.8489
-0.229475
25.1352
-0.24289
25.4305
-0.25644
25.7344
-0.270117
26.0465
-0.283912
26.3663
-0.297817
26.6936
-0.311822
27.0281
-0.32592
27.3696
-0.3401
27.7179
-0.354355
28.073
-0.368674
28.4347
-0.383049
28.8028
-0.39747
29.1773
-0.411927
29.558
-0.426412
29.9454
-0.44091
30.3376
-0.455434
30.7398
-0.4699
31.1362
-0.484529
31.5754
-0.498587
-0.514341
31.9086
67.3212
1.48356
-67.9143
66.7283
1.44792
66.1358
1.41173
65.5437
1.37502
64.9518
1.33781
64.3601
1.30014
63.7684
1.26204
63.1766
1.22352
62.5844
1.18462
61.9916
1.14537
61.3979
1.10581
60.803
1.06595
60.2066
1.02584
59.6081
0.98551
59.0072
0.944989
58.4032
0.904312
57.7955
0.863515
57.1834
0.822633
56.566
0.781704
55.9425
0.740766
55.3118
0.699857
54.6726
0.659018
54.0236
0.61829
53.3631
0.577717
52.6892
0.537342
51.9998
0.497214
51.2923
0.457381
50.5636
0.417894
49.8099
0.37881
49.0267
0.340188
48.2083
0.302091
47.3475
0.26459
46.4344
0.227764
45.4561
0.191699
44.3961
0.156502
43.2305
0.122309
41.9046
0.0892813
40.2858
0.0575938
38.1534
0.0275611
35.3511
0
32.0571
-0.0236968
28.8172
-0.0425936
26.1818
-0.0574423
24.3604
-0.070215
23.244
-0.0826218
22.6172
-0.0954799
22.2967
-0.108982
22.1623
-0.123076
22.1432
-0.137662
22.1986
-0.152658
22.3048
-0.168003
22.4475
-0.183658
22.6179
-0.199592
22.8101
-0.215786
23.0202
-0.232223
23.2455
-0.248888
23.4839
-0.26577
23.7339
-0.282857
23.9943
-0.300136
24.2644
-0.317598
24.5434
-0.335231
24.8308
-0.353024
25.126
-0.370967
25.4289
-0.389047
25.7389
-0.407253
26.056
-0.425575
26.3798
-0.444
26.7103
-0.462516
27.0473
-0.481112
27.3906
-0.499776
27.7401
-0.518496
28.0958
-0.537259
28.4575
-0.556055
28.8256
-0.574862
29.1984
-0.593698
29.5806
-0.612458
29.9577
-0.631419
30.3746
-0.649656
-0.670026
30.6932
65.0703
1.82058
-65.6466
64.4944
1.77677
63.9192
1.73229
63.3446
1.68718
62.7704
1.64148
62.1967
1.59521
61.6232
1.54841
61.0497
1.50111
60.4762
1.45336
59.9024
1.40518
59.3279
1.35662
58.7525
1.30772
58.1758
1.2585
57.5974
1.20902
57.0168
1.1593
56.4335
1.10941
55.8469
1.05937
55.2562
1.00923
54.6608
0.959031
54.0597
0.908827
53.4519
0.858662
52.8363
0.808585
52.2114
0.758645
51.5759
0.708896
50.9278
0.659392
50.2651
0.61019
49.5854
0.561349
48.8857
0.512933
48.1624
0.465008
47.4114
0.417647
46.6271
0.370927
45.8028
0.324934
44.9293
0.279762
43.9943
0.235519
42.9823
0.192331
41.871
0.150363
40.6109
0.109809
39.0816
0.0708854
37.0768
0.0339641
34.4359
0
31.2989
-0.0293391
28.1657
-0.0528374
25.5742
-0.0712727
23.7554
-0.0870071
22.6254
-0.102192
21.982
-0.117898
21.6457
-0.134397
21.4969
-0.151632
21.4641
-0.16948
21.5061
-0.187832
21.599
-0.206611
21.7282
-0.225766
21.885
-0.245259
22.0633
-0.265064
22.2594
-0.28516
22.4703
-0.30553
22.6941
-0.326157
22.9293
-0.347028
23.1748
-0.368128
23.4297
-0.389445
23.6932
-0.410964
23.9649
-0.432673
24.2443
-0.454558
24.5311
-0.476605
24.8248
-0.498801
25.1254
-0.52113
25.4325
-0.543581
25.746
-0.566137
26.0658
-0.588786
26.3918
-0.611511
26.7237
-0.6343
27.0616
-0.657135
27.4052
-0.680006
27.755
-0.702886
28.1093
-0.725796
28.4727
-0.748609
28.8312
-0.771657
29.2273
-0.793839
-0.818547
29.5316
62.8919
2.14489
-63.4517
62.3329
2.09319
61.7747
2.04072
61.2173
1.98751
60.6606
1.93361
60.1044
1.87905
59.5487
1.82388
58.9934
1.76814
58.4381
1.71186
57.8827
1.65509
57.3269
1.59787
56.7704
1.54025
56.2129
1.48228
55.654
1.42399
55.0931
1.36544
54.5299
1.30668
53.9637
1.24776
53.3939
1.18872
52.8196
1.12962
52.2401
1.07051
51.6545
1.01145
51.0615
0.952494
50.4599
0.893704
49.8483
0.83514
49.2249
0.776864
48.5879
0.718944
47.9347
0.661448
47.2628
0.604451
46.5687
0.548031
45.8483
0.492272
45.0966
0.437263
44.307
0.383105
43.471
0.329909
42.5771
0.277797
41.6105
0.226919
40.5505
0.177463
39.3519
0.129656
37.9051
0.0837522
36.0178
0.040176
33.5275
0
30.5416
-0.0348602
27.5163
-0.0629039
24.9743
-0.0848837
23.1635
-0.103505
22.0237
-0.121356
21.366
-0.13978
21.0158
-0.159138
20.8538
-0.179376
20.8085
-0.200344
20.8381
-0.22191
20.9185
-0.243979
21.0352
-0.266486
21.1792
-0.289385
21.3445
-0.312644
21.5273
-0.336237
21.7248
-0.360145
21.9349
-0.384347
22.1562
-0.408828
22.3875
-0.433571
22.628
-0.458559
22.877
-0.483779
23.1339
-0.509213
23.3982
-0.534846
23.6697
-0.560662
23.9481
-0.586646
24.233
-0.61278
24.5243
-0.639049
24.8217
-0.665435
25.1253
-0.691923
25.4347
-0.718494
25.7499
-0.745133
26.0709
-0.771821
26.3974
-0.798544
26.7298
-0.825273
27.0666
-0.852029
27.412
-0.87867
27.7531
-0.905571
28.1293
-0.931479
-0.96026
28.4198
60.7847
2.45689
-61.3281
60.2423
2.39759
59.7008
2.33741
59.1604
2.2764
58.6208
2.21461
58.0819
2.15207
57.5437
2.08884
57.006
2.02496
56.4685
1.96047
55.9312
1.89543
55.3936
1.82989
54.8556
1.7639
54.3167
1.6975
53.7767
1.63075
53.2351
1.56371
52.6913
1.49643
52.1449
1.42896
51.5951
1.36137
51.0414
1.29371
50.4828
1.22605
49.9185
1.15845
49.3474
1.09096
48.7682
1.02367
48.1797
0.956637
47.5802
0.889935
46.9677
0.823639
46.3401
0.757829
45.6948
0.692588
45.0286
0.628004
44.3376
0.564173
43.617
0.501197
42.8607
0.43919
42.0606
0.378276
41.2057
0.318594
40.2824
0.260314
39.271
0.203647
38.1305
0.148849
36.761
0.0962105
34.9833
0.0462038
32.6353
0
29.7951
-0.0402644
26.8776
-0.0728019
24.3878
-0.0982908
22.588
-0.119731
21.4404
-0.140141
20.7699
-0.161155
20.4067
-0.183239
20.2325
-0.206345
20.1754
-0.230298
20.1934
-0.254941
20.2622
-0.28016
20.3671
-0.305875
20.499
-0.332034
20.6521
-0.358597
20.8224
-0.385534
21.0072
-0.412821
21.2044
-0.440437
21.4125
-0.468362
21.6304
-0.496577
21.8573
-0.525065
22.0925
-0.553807
22.3354
-0.582785
22.5856
-0.611983
22.8427
-0.641381
23.1064
-0.670962
23.3765
-0.700707
23.6527
-0.730598
23.935
-0.760615
24.2231
-0.79074
24.5169
-0.820954
24.8163
-0.851237
25.1212
-0.881569
25.4314
-0.911934
25.7473
-0.942299
26.0675
-0.972687
26.3958
-1.00294
26.7203
-1.03348
27.0778
-1.0629
-1.09551
27.355
58.7468
2.757
-59.274
58.2207
2.69037
57.6958
2.62277
57.172
2.55424
56.6491
2.48485
56.1272
2.41463
55.6061
2.34364
55.0857
2.27194
54.5656
2.19956
54.0459
2.12657
53.5261
2.05302
53.006
1.97897
52.4854
1.90448
51.9637
1.8296
51.4407
1.75439
50.9159
1.67892
50.3886
1.60325
49.8584
1.52744
49.3244
1.45156
48.7861
1.37568
48.2424
1.29987
47.6924
1.2242
47.1349
1.14874
46.5686
1.07357
45.992
0.998773
45.4032
0.924432
44.8003
0.850634
44.1806
0.777471
43.5411
0.705044
42.8783
0.633456
42.1875
0.562822
41.4631
0.493267
40.6972
0.42493
39.8798
0.357967
38.9978
0.292562
38.0328
0.228949
36.9473
0.167412
35.6506
0.108276
33.9759
0.0520534
31.7627
0
29.0634
-0.0455548
26.2528
-0.0825388
23.817
-0.111507
22.0302
-0.135705
20.8762
-0.158574
20.1937
-0.182054
19.8181
-0.206733
19.6322
-0.232574
19.564
-0.259381
19.5711
-0.286969
19.6289
-0.315203
19.7227
-0.343992
19.8433
-0.37327
19.9849
-0.402994
20.1434
-0.433128
20.3161
-0.463645
20.5011
-0.49452
20.6968
-0.525731
20.9021
-0.557257
21.1161
-0.589079
21.3383
-0.621175
21.5679
-0.653527
21.8046
-0.686114
22.0481
-0.718917
22.2979
-0.751915
22.554
-0.785087
22.816
-0.818414
23.0838
-0.851874
23.3573
-0.885445
23.6363
-0.919108
23.9206
-0.95284
24.2103
-0.986619
24.5051
-1.02043
24.8054
-1.05423
25.1098
-1.08805
25.4219
-1.12171
25.7306
-1.15567
26.0703
-1.18842
-1.22461
26.3349
56.7762
3.0456
-57.2875
56.2662
2.97191
55.7575
2.89717
55.25
2.82142
54.7437
2.74471
54.2384
2.6671
53.734
2.58865
53.2304
2.50942
52.7274
2.42945
52.2248
2.34882
51.7223
2.26757
51.2197
2.18578
50.7167
2.10351
50.213
2.02081
49.7081
1.93776
49.2015
1.85443
48.6929
1.77088
48.1815
1.68718
47.6668
1.6034
47.148
1.51963
46.6242
1.43593
46.0946
1.35239
45.558
1.26909
45.0132
1.18611
44.4586
1.10354
43.8927
1.02147
43.3134
0.939997
42.7183
0.859225
42.1046
0.77926
41.4688
0.700218
40.8067
0.622223
40.1127
0.545412
39.3797
0.469937
38.598
0.395967
37.7554
0.323704
36.8347
0.253401
35.8016
0.185368
34.5735
0.119961
32.9959
0.0577307
30.9107
0
28.3475
-0.050734
25.6429
-0.0921189
23.2625
-0.124544
21.4903
-0.151446
20.3307
-0.176678
19.6369
-0.202504
19.2494
-0.229649
19.0524
-0.258098
18.9735
-0.287631
18.9702
-0.318037
19.0177
-0.349159
19.101
-0.380889
19.211
-0.413154
19.3417
-0.445902
19.4891
-0.479094
19.6505
-0.512697
19.8239
-0.546684
20.0079
-0.581032
20.2012
-0.615716
20.4031
-0.650715
20.6129
-0.686007
20.83
-0.721569
21.054
-0.757381
21.2845
-0.79342
21.5212
-0.829663
21.764
-0.86609
22.0125
-0.902676
22.2666
-0.9394
22.5262
-0.976238
22.7911
-1.01317
23.0612
-1.05016
23.3365
-1.0872
23.6166
-1.12427
23.902
-1.16131
24.1915
-1.19837
24.4882
-1.23525
24.7819
-1.27244
25.1047
-1.30833
-1.34788
25.3573
54.871
3.3231
-55.3665
54.3768
3.24262
53.884
3.16099
53.3925
3.07828
52.9023
2.99454
52.4132
2.90983
51.9252
2.82421
51.438
2.73774
50.9516
2.65048
50.4657
2.5625
49.9801
2.47386
49.4946
2.38463
49.0088
2.29488
48.5224
2.20468
48.035
2.1141
47.5462
2.02321
47.0556
1.93208
46.5625
1.84081
46.0664
1.74945
45.5665
1.6581
45.062
1.56683
44.5521
1.47574
44.0356
1.3849
43.5115
1.29442
42.9782
1.20438
42.4342
1.11489
41.8777
1.02605
41.3063
0.937965
40.7173
0.850759
40.1075
0.764554
39.4728
0.679484
38.808
0.595697
38.1065
0.513356
37.359
0.432646
36.5541
0.353781
35.6756
0.277034
34.6922
0.202738
33.5289
0.131278
32.0427
0.0632403
30.0791
0
27.6473
-0.0558032
25.0476
-0.101545
22.7238
-0.137409
20.9677
-0.16697
19.8037
-0.194476
19.0989
-0.222532
18.7
-0.25202
18.4922
-0.282951
18.4032
-0.315087
18.3901
-0.348188
18.4278
-0.382073
18.5012
-0.41662
18.6011
-0.451745
18.7215
-0.487387
18.8585
-0.523502
19.0092
-0.560055
19.1717
-0.597016
19.3446
-0.634358
19.5266
-0.672055
19.717
-0.710083
19.9151
-0.748418
20.1203
-0.787037
20.3323
-0.825916
20.5505
-0.865031
20.7749
-0.904359
21.005
-0.943875
21.2407
-0.983555
21.4819
-1.02337
21.7283
-1.06331
21.9799
-1.10333
22.2364
-1.14342
22.498
-1.18354
22.7643
-1.22368
23.0355
-1.26379
23.3108
-1.30391
23.5929
-1.34383
23.8723
-1.38406
24.1791
-1.42291
-1.46561
24.4203
53.0292
3.58985
-53.5093
52.5504
3.50284
52.0732
3.4146
51.5974
3.32521
51.1229
3.2347
50.6497
3.14316
50.1776
3.05065
49.7066
2.95722
49.2363
2.86295
48.7667
2.76791
48.2975
2.67217
47.8285
2.5758
47.3594
2.47887
46.8898
2.38146
46.4195
2.28365
45.948
2.1855
45.4748
2.08711
44.9994
1.98856
44.5212
1.88992
44.0396
1.79129
43.5537
1.69276
43.0628
1.59441
42.5658
1.49634
42.0616
1.39866
41.5488
1.30145
41.026
1.20483
40.4913
1.10891
39.9427
1.0138
39.3775
0.919642
38.7926
0.826553
38.1842
0.734683
37.5474
0.644189
36.876
0.555246
36.1612
0.46805
35.3923
0.382831
34.5541
0.299877
33.618
0.219542
32.5159
0.14224
31.1158
0.068587
29.2674
0
26.9625
-0.0607636
24.4663
-0.110819
22.2004
-0.150109
20.4619
-0.18229
19.2943
-0.211988
18.5792
-0.242163
18.1692
-0.273872
17.9511
-0.307165
17.8524
-0.341784
17.83
-0.377461
17.8584
-0.413991
17.9225
-0.451236
18.0129
-0.489097
18.1236
-0.527509
18.2507
-0.566422
18.3913
-0.605795
18.5435
-0.645597
18.7059
-0.685797
18.8772
-0.726369
19.0567
-0.767285
19.2438
-0.80852
19.4377
-0.85005
19.6382
-0.891847
19.8449
-0.933888
20.0575
-0.976147
20.2757
-1.0186
20.4993
-1.06121
20.7281
-1.10397
20.9621
-1.14683
21.201
-1.18979
21.4447
-1.2328
21.6932
-1.27584
21.9463
-1.31889
22.2043
-1.3619
22.466
-1.4049
22.7343
-1.44769
23.0002
-1.49079
23.2918
-1.53243
-1.57809
23.5221
51.2488
3.84624
-51.7138
50.7852
3.75295
50.3233
3.65836
49.8628
3.56253
49.4037
3.46553
48.946
3.36743
48.4894
3.26829
48.034
3.16819
47.5795
3.06719
47.1257
2.96537
46.6725
2.86281
46.2196
2.75958
45.7666
2.65576
45.3134
2.55143
44.8596
2.44667
44.4048
2.34156
43.9485
2.23619
43.4902
2.13065
43.0294
2.02503
42.5654
1.91941
42.0975
1.8139
41.6249
1.70859
41.1467
1.60358
40.6617
1.49897
40.1687
1.39488
39.6662
1.29142
39.1526
1.1887
38.6258
1.08685
38.0834
0.986005
37.5224
0.886302
36.9393
0.787896
36.3294
0.690955
35.6867
0.595662
35.0033
0.502226
34.2687
0.410889
33.4689
0.321956
32.5777
0.235799
31.5334
0.152857
30.2143
0.0737755
28.4752
0
26.2924
-0.0656161
23.8984
-0.119941
21.6915
-0.162647
19.9722
-0.197419
18.802
-0.229234
18.077
-0.261421
17.6563
-0.295234
17.4282
-0.33077
17.3203
-0.367757
17.289
-0.405895
17.3086
-0.444956
17.3639
-0.484783
17.4453
-0.525265
17.5469
-0.566328
17.6646
-0.607917
17.7957
-0.649987
17.9382
-0.692504
18.0907
-0.735434
18.2519
-0.778749
18.4212
-0.822419
18.5977
-0.866419
18.781
-0.91072
18.9707
-0.955296
19.1664
-1.00012
19.3678
-1.04516
19.5747
-1.0904
19.7868
-1.1358
20.004
-1.18134
20.2261
-1.22699
20.453
-1.27272
20.6846
-1.3185
20.9208
-1.3643
21.1614
-1.4101
21.4066
-1.45585
21.6555
-1.50158
21.9107
-1.54707
22.1637
-1.59288
22.4409
-1.63716
-1.68558
22.6608
49.528
4.09263
-49.9783
49.0793
3.9933
48.6322
3.8926
48.1867
3.7906
47.7427
3.68736
47.3
3.58296
46.8587
3.47746
46.4184
3.37094
45.9792
3.26348
45.5409
3.15516
45.1031
3.04605
44.6658
2.93623
44.2286
2.8258
43.7912
2.71482
43.3534
2.60339
42.9147
2.4916
42.4748
2.37954
42.033
2.2673
41.589
2.15496
41.1421
2.04264
40.6916
1.93044
40.2367
1.81844
39.7765
1.70676
39.31
1.59552
38.836
1.48482
38.3531
1.37478
37.8597
1.26554
37.3539
1.15721
36.8334
1.04994
36.2954
0.943884
35.7365
0.839197
35.1523
0.736056
34.5372
0.634657
33.8837
0.535217
33.182
0.437992
32.4188
0.343298
31.5704
0.251526
30.5806
0.163141
29.3377
0.0788097
27.7019
0
25.6366
-0.0703613
23.3433
-0.128912
21.1964
-0.175029
19.4979
-0.212369
18.3262
-0.246233
17.5918
-0.280331
17.1607
-0.316133
16.923
-0.353796
16.8063
-0.393037
16.7665
-0.433526
16.7778
-0.475009
16.8247
-0.517307
16.8977
-0.560298
16.9906
-0.6039
17.0995
-0.648049
17.2216
-0.6927
17.355
-0.737811
17.498
-0.783349
17.6497
-0.829282
17.8092
-0.87558
17.9759
-0.922215
18.1492
-0.969156
18.3286
-1.01638
18.5139
-1.06385
18.7047
-1.11154
18.9008
-1.15942
19.1021
-1.20747
19.3082
-1.25565
19.5191
-1.30393
19.7346
-1.35229
19.9546
-1.40069
20.1791
-1.44911
20.4079
-1.49751
20.641
-1.54585
20.8778
-1.59415
21.1205
-1.6422
21.3613
-1.69055
21.6248
-1.73732
-1.78834
21.8349
47.8651
4.32936
-48.3009
47.4308
4.22424
46.9983
4.11768
46.5674
4.00975
46.1379
3.90051
45.71
3.79006
45.2834
3.67845
44.858
3.56578
44.4337
3.45212
44.0103
3.33755
43.5876
3.22216
43.1654
3.10602
42.7434
2.98924
42.3214
2.87189
41.8991
2.75407
41.476
2.63586
41.0519
2.51737
40.6261
2.39869
40.1983
2.27993
39.7679
2.16117
39.3341
2.04254
38.8963
1.92413
38.4535
1.80605
38.0048
1.68843
37.5491
1.57139
37.0851
1.45504
36.6112
1.33953
36.1256
1.22498
35.6261
1.11154
35.1101
0.99938
34.5744
0.888656
34.0148
0.779555
33.4261
0.672283
32.8011
0.567066
32.1308
0.464172
31.4027
0.363928
30.5948
0.266744
29.6565
0.173102
28.4852
0.0836944
26.9471
0
24.9946
-0.0750003
22.8003
-0.137732
20.7143
-0.187256
19.0382
-0.22715
17.8661
-0.263002
17.1229
-0.298914
16.6818
-0.336594
16.4348
-0.376273
16.3095
-0.417658
16.2617
-0.460391
16.2651
-0.504188
16.3042
-0.548852
16.3691
-0.594246
16.4539
-0.640278
16.5545
-0.686878
16.6682
-0.733996
16.7928
-0.781588
16.927
-0.829618
17.0697
-0.878051
17.22
-0.926856
17.3773
-0.976003
17.541
-1.02546
17.7107
-1.0752
17.8862
-1.12519
18.067
-1.1754
18.2529
-1.2258
18.4438
-1.27635
18.6395
-1.32704
18.8397
-1.37783
19.0445
-1.42868
19.2536
-1.47956
19.4669
-1.53044
19.6844
-1.5813
19.9061
-1.63209
20.1313
-1.68282
20.3622
-1.73328
20.5914
-1.78403
20.8419
-1.83316
-1.8866
21.0426
46.258
4.55678
-46.6797
45.838
4.4461
45.4196
4.33391
45.0029
4.22029
44.5877
4.1053
44.1741
3.98904
43.7618
3.87158
43.3508
3.753
42.941
3.63339
42.5321
3.51283
42.124
3.3914
41.7164
3.26921
41.3093
3.14633
40.9021
3.02287
40.4948
2.89891
40.0869
2.77455
39.678
2.64989
39.2678
2.52504
38.8556
2.4001
38.441
2.27517
38.0234
2.15037
37.602
2.0258
37.176
1.90159
36.7445
1.77785
36.3064
1.65472
35.8605
1.53231
35.4053
1.41078
34.9391
1.29025
34.4598
1.1709
33.9649
1.05287
33.4514
0.93634
32.9155
0.82151
32.352
0.708589
31.7544
0.597814
31.114
0.489462
30.4193
0.383872
29.6499
0.281467
28.7603
0.18275
27.6562
0.0884334
26.2104
0
24.3661
-0.0795336
22.269
-0.1464
20.2448
-0.199333
18.5927
-0.241771
17.4212
-0.279559
16.6698
-0.317194
16.219
-0.356643
15.963
-0.398227
15.8295
-0.441649
15.774
-0.486522
15.77
-0.532532
15.8015
-0.57946
15.8589
-0.627154
15.9361
-0.675512
16.0288
-0.724459
16.1344
-0.773937
16.2508
-0.823901
16.3767
-0.874312
16.5108
-0.925133
16.6524
-0.976332
16.8009
-1.02787
16.9556
-1.07973
17.1161
-1.13186
17.2822
-1.18425
17.4536
-1.23685
17.6299
-1.28964
17.811
-1.34259
17.9967
-1.39565
18.1868
-1.44881
18.3813
-1.50202
18.58
-1.55525
18.7829
-1.60848
18.9897
-1.66166
19.2005
-1.71475
19.4148
-1.76778
19.6344
-1.82052
19.8526
-1.87353
20.0908
-1.92488
-1.98059
20.2826
44.7052
4.77522
-45.1131
44.2989
4.6592
43.8944
4.54162
43.4915
4.42253
43.0902
4.30204
42.6905
4.1802
42.2922
4.05712
41.8952
3.93288
41.4994
3.80756
41.1046
3.68125
40.7106
3.55404
40.3173
3.42603
39.9244
3.29731
39.5317
3.16798
39.1389
3.03813
38.7456
2.90788
38.3515
2.77731
37.9562
2.64653
37.5592
2.51567
37.1599
2.38482
36.7579
2.25409
36.3523
2.12362
35.9425
1.99352
35.5275
1.86391
35.1064
1.73493
34.6779
1.60671
34.2407
1.47939
33.7931
1.35313
33.3331
1.22808
32.8585
1.10442
32.3664
0.982315
31.853
0.861978
31.3137
0.743624
30.7422
0.627501
30.1305
0.513894
29.4675
0.403153
28.7348
0.295713
27.8911
0.192097
26.8502
0.093031
25.4914
-1.79084e-07
23.7507
-0.0839622
21.7489
-0.154918
19.7871
-0.21126
18.1605
-0.256241
16.9908
-0.29592
16.2319
-0.335191
15.7717
-0.376305
15.5069
-0.419686
15.3656
-0.46504
15.3027
-0.511952
15.2916
-0.560076
15.3161
-0.60917
15.3664
-0.659067
15.4363
-0.709652
15.5216
-0.760844
15.6196
-0.812582
15.7283
-0.864815
15.8462
-0.917502
15.9723
-0.970604
16.1057
-1.02409
16.2457
-1.07791
16.3919
-1.13205
16.5438
-1.18647
16.7011
-1.24114
16.8634
-1.29602
17.0306
-1.35108
17.2024
-1.40629
17.3787
-1.46162
17.5593
-1.51702
17.744
-1.57247
17.9329
-1.62793
18.1257
-1.68337
18.3224
-1.73875
18.5229
-1.79402
18.7268
-1.84922
18.9358
-1.9041
19.1435
-1.95925
19.37
-2.01269
-2.07053
19.5532
43.2049
4.98501
-43.5994
42.812
4.86388
42.4209
4.74111
42.0315
4.61679
41.6438
4.491
41.2575
4.36383
40.8728
4.23536
40.4893
4.10569
40.1071
3.97489
39.726
3.84307
39.3458
3.71032
38.9662
3.57673
38.5872
3.44241
38.2084
3.30745
37.8296
3.17196
37.4505
3.03604
37.0707
2.8998
36.6898
2.76335
36.3074
2.6268
35.9229
2.49027
35.5359
2.35387
35.1456
2.21773
34.7514
2.08197
34.3523
1.94673
33.9475
1.81214
33.5357
1.67834
33.1158
1.54547
32.6861
1.4137
32.2447
1.28319
31.7896
1.1541
31.3178
1.02664
30.8261
0.901012
30.3099
0.777433
29.7634
0.656164
29.1789
0.537498
28.5463
0.421794
27.8485
0.309498
27.0481
0.20115
26.0666
0.0974912
24.7898
0
23.1481
-0.0882874
21.2395
-0.163284
19.3407
-0.223039
17.7413
-0.270568
16.5746
-0.3121
15.8086
-0.352928
15.3393
-0.395605
15.0661
-0.440677
14.9171
-0.487861
14.8473
-0.536712
14.8294
-0.586855
14.8472
-0.638021
14.8908
-0.690026
14.9538
-0.742744
15.0322
-0.796086
15.123
-0.849986
15.2244
-0.90439
15.3349
-0.959252
15.4533
-1.01453
15.5789
-1.0702
15.711
-1.1262
15.8491
-1.18252
15.9928
-1.23912
16.1416
-1.29596
16.2955
-1.35301
16.454
-1.41023
16.617
-1.46759
16.7844
-1.52506
16.9559
-1.58259
17.1314
-1.64016
17.3109
-1.69773
17.4943
-1.75526
17.6813
-1.81273
17.8721
-1.87006
18.0661
-1.9273
18.2649
-1.98421
18.4628
-2.04137
18.6781
-2.09679
-2.15662
18.8532
41.7554
5.18647
-42.1368
41.3756
5.06042
40.9976
4.93269
40.6213
4.80336
40.2466
4.6725
39.8735
4.54021
39.5019
4.40657
39.1316
4.27168
38.7626
4.13564
38.3947
3.99854
38.0278
3.86047
37.6616
3.72154
37.296
3.58185
36.9307
3.44149
36.5655
3.30059
36.2
3.15924
35.834
3.01756
35.467
2.87567
35.0987
2.73367
34.7285
2.59169
34.356
2.44984
33.9804
2.30827
33.6011
2.16709
33.2174
2.02644
32.8282
1.88646
32.4326
1.7473
32.0292
1.60911
31.6167
1.47205
31.1932
1.33628
30.7567
1.202
30.3045
1.06939
29.8335
0.938665
29.3394
0.810062
28.8168
0.683841
28.2584
0.560303
27.6547
0.439817
26.9901
0.322838
26.2306
0.20992
25.3049
0.101818
24.1053
0
22.5581
-0.0925093
20.7405
-0.171498
18.9051
-0.234668
17.3343
-0.284758
16.1718
-0.328115
15.3995
-0.370425
14.9214
-0.414566
14.6399
-0.461225
14.4836
-0.510139
14.4071
-0.560834
14.3828
-0.612902
14.3943
-0.666049
14.4315
-0.720071
14.488
-0.774832
14.5598
-0.830233
14.6439
-0.886202
14.7384
-0.942682
14.8418
-0.999626
14.953
-1.05699
15.0712
-1.11473
15.1958
-1.17282
15.3263
-1.23122
15.4621
-1.28989
15.6031
-1.3488
15.7489
-1.40791
15.8992
-1.46718
16.0539
-1.52659
16.2127
-1.58609
16.3756
-1.64565
16.5425
-1.70523
16.7131
-1.7648
16.8874
-1.82431
17.0653
-1.88374
17.2468
-1.94303
17.4314
-2.0022
17.6207
-2.06103
17.8091
-2.12007
18.0139
-2.17737
-2.23905
18.1813
40.355
5.37989
-40.7237
39.9879
5.24914
39.6226
5.11666
39.2591
4.98251
38.8971
4.84679
38.5368
4.70959
38.1779
4.57101
37.8204
4.43113
37.4642
4.29006
37.1092
4.14789
36.7551
4.00473
36.4019
3.86067
36.0492
3.71583
35.697
3.57031
35.3448
3.42422
34.9926
3.27767
34.6399
3.13078
34.2863
2.98366
33.9316
2.83643
33.5752
2.68922
33.2166
2.54216
32.8552
2.39537
32.4904
2.24898
32.1214
2.10315
31.7473
1.958
31.3671
1.8137
30.9797
1.67039
30.5837
1.52825
30.1773
1.38745
29.7586
1.24817
29.3252
1.11061
28.874
0.974989
28.4011
0.841552
27.9013
0.710565
27.3679
0.582338
26.7918
0.457243
26.1586
0.335747
25.4378
0.218416
24.5644
0.106015
23.4375
0
21.9804
-0.0966296
20.2514
-0.179559
18.4798
-0.24615
16.939
-0.298816
15.782
-0.343977
15.004
-0.3877
14.5175
-0.43321
14.2279
-0.481356
14.0645
-0.531901
13.9815
-0.584346
13.9511
-0.63825
13.9566
-0.693289
13.9878
-0.749242
14.0383
-0.805958
14.1038
-0.86333
14.1815
-0.92128
14.2695
-0.979748
14.3662
-1.03868
14.4706
-1.09804
14.5819
-1.15777
14.6994
-1.21785
14.8226
-1.27823
14.9511
-1.33887
15.0845
-1.39975
15.2227
-1.46082
15.3652
-1.52205
15.512
-1.5834
15.6628
-1.64484
15.8176
-1.70632
15.9761
-1.7678
16.1383
-1.82926
16.3041
-1.89065
16.4733
-1.95194
16.646
-2.01308
16.8217
-2.07407
17.0018
-2.1347
17.1813
-2.19553
17.3761
-2.25459
-2.31801
17.5361
39.0022
5.56558
-39.3586
38.6475
5.43033
38.2946
5.29328
37.9433
5.15453
37.5938
5.01416
37.2458
4.87226
36.8993
4.72893
36.5542
4.58427
36.2104
4.43838
35.8678
4.29136
35.5261
4.14332
35.1854
3.99435
34.8453
3.84458
34.5056
3.6941
34.1662
3.54304
33.8267
3.3915
33.4868
3.23961
33.1463
3.08748
32.8046
2.93525
32.4615
2.78303
32.1163
2.63095
31.7686
2.47916
31.4177
2.32779
31.0628
2.17698
30.7033
2.02687
30.338
1.87763
29.9659
1.72942
29.5857
1.5824
29.1957
1.43675
28.7942
1.29267
28.3788
1.15035
27.9466
1.01003
27.4939
0.871946
27.0159
0.736373
26.5062
0.603629
25.9564
0.474094
25.3532
0.34824
24.669
0.226646
23.8447
0.110087
22.786
0
21.4147
-0.100649
19.772
-0.187466
18.0642
-0.257481
16.555
-0.312747
15.4047
-0.3597
14.6216
-0.404774
14.127
-0.451562
13.8296
-0.501095
13.6593
-0.553173
13.5701
-0.607276
13.5339
-0.662928
13.5337
-0.719774
13.5592
-0.777574
13.6039
-0.836162
13.6636
-0.895422
13.7353
-0.955269
13.8171
-1.01564
13.9075
-1.07648
14.0055
-1.13773
14.1102
-1.19937
14.2209
-1.26134
14.3373
-1.32361
14.4588
-1.38615
14.5851
-1.4489
14.716
-1.51184
14.8512
-1.57493
14.9904
-1.63813
15.1337
-1.70139
15.2807
-1.7647
15.4313
-1.82799
15.5856
-1.89125
15.7432
-1.95441
15.9042
-2.01746
16.0686
-2.08034
16.2358
-2.14305
16.4073
-2.20539
16.5782
-2.2679
16.7636
-2.32862
-2.39366
16.9166
37.6954
5.74382
-38.0398
37.3527
5.60425
37.0118
5.46285
36.6726
5.31968
36.335
5.17485
35.999
5.02845
35.6645
4.88058
35.3314
4.73134
34.9996
4.58084
34.669
4.42917
34.3394
4.27645
34.0107
4.12278
33.6828
3.96828
33.3553
3.81306
33.0281
3.65723
32.7009
3.50091
32.3735
3.34423
32.0454
3.1873
31.7164
3.03027
31.386
2.87324
31.0538
2.71637
30.7192
2.55978
30.3817
2.40362
30.0405
2.24803
29.6949
2.09317
29.3439
1.93919
28.9865
1.78627
28.6215
1.63456
28.2473
1.48427
27.8622
1.33557
27.464
1.18868
27.05
1.04384
26.6167
0.901282
26.1595
0.761296
25.6725
0.624203
25.1478
0.490388
24.5731
0.360331
23.9234
0.234619
23.1453
0.114036
22.1507
-1.80318e-07
20.8608
-0.104569
19.3018
-0.195218
17.6578
-0.268661
16.1816
-0.326554
15.0393
-0.375294
14.2519
-0.421665
13.7495
-0.469643
13.4445
-0.520465
13.2675
-0.573981
13.1724
-0.629653
13.1306
-0.686966
13.125
-0.745538
13.1451
-0.805104
13.1844
-0.865483
13.2385
-0.92655
13.3045
-0.988214
13.3805
-1.0504
13.4649
-1.11306
13.5568
-1.17614
13.6553
-1.23959
13.7597
-1.30338
13.8696
-1.36745
13.9845
-1.43178
14.104
-1.49633
14.2281
-1.56105
14.3562
-1.6259
14.4884
-1.69086
14.6244
-1.75587
14.7641
-1.8209
14.9073
-1.88591
15.0539
-1.95086
15.2039
-2.01572
15.3571
-2.08043
15.5135
-2.14495
15.6727
-2.2093
15.836
-2.27324
15.9988
-2.33733
16.1752
-2.39963
-2.46618
16.3215
36.4331
5.91489
-36.7658
36.1021
5.7712
35.7728
5.62561
35.4452
5.47823
35.1192
5.32913
34.7948
5.17842
34.472
5.0262
34.1505
4.87258
33.8303
4.71765
33.5113
4.56154
33.1934
4.40434
32.8764
4.24616
32.5602
4.08713
32.2445
3.92736
31.9291
3.76697
31.6138
3.60607
31.2983
3.4448
30.9824
3.28327
30.6655
3.12163
30.3475
2.96
30.0278
2.79852
29.7058
2.63733
29.3812
2.47658
29.0531
2.31642
28.7209
2.15699
28.3836
1.99847
28.0404
1.84102
27.6899
1.68482
27.3309
1.53006
26.9615
1.37693
26.5798
1.22565
26.1832
1.07646
25.7684
0.929599
25.3311
0.785366
24.8658
0.644085
24.365
0.506145
23.8174
0.372033
23.2004
0.242344
22.4655
0.117867
21.5312
0
20.3186
-0.10839
18.8407
-0.202815
17.2604
-0.279686
15.8183
-0.340237
14.6854
-0.39077
13.8944
-0.43839
13.3845
-0.487475
13.0722
-0.53949
12.8886
-0.594351
12.7877
-0.651501
12.7406
-0.710393
12.7299
-0.770611
12.745
-0.831864
12.7791
-0.893958
12.8279
-0.956756
12.8886
-1.02016
12.959
-1.08409
13.0379
-1.14849
13.124
-1.21331
13.2166