/*--------------------------------*- C++ -*----------------------------------*\
| =========                 |                                                 |
| \\      /  F ield         | OpenFOAM: The Open Source CFD Toolbox           |
|  \\    /   O peration     | Version:  2312                                  |
|   \\  /    A nd           | Website:  www.openfoam.com                      |
|    \\/     M anipulation  |                                                 |
\*---------------------------------------------------------------------------*/
FoamFile
{
    version     2.0;
    format      ascii;
    arch        "LSB;label=32;scalar=64";
    class       volVectorField;
    location    "0.796";
    object      U;
}
// * * * * * * * * * * * * * * * * * * * * * * * * * * * * * * * * * * * * * //

dimensions      [0 1 -1 0 0 0 0];

internalField   nonuniform List<vector> 
31205
(
(131.021 0 0)
(127.693 0 0)
(124.372 0 0)
(121.09 0 0)
(117.888 0 0)
(114.817 0 0)
(111.938 0 0)
(109.317 0 0)
(107.014 0 0)
(105.08 0 0)
(103.542 0 0)
(102.41 0 0)
(101.672 0 0)
(101.299 0 0)
(101.256 0 0)
(101.502 0 0)
(101.996 0 0)
(102.699 0 0)
(103.579 0 0)
(104.605 0 0)
(105.751 0 0)
(106.998 0 0)
(108.326 0 0)
(109.721 0 0)
(111.171 0 0)
(112.665 0 0)
(114.195 0 0)
(115.754 0 0)
(117.337 0 0)
(118.937 0 0)
(120.552 0 0)
(122.178 0 0)
(123.811 0 0)
(125.45 0 0)
(127.092 0 0)
(128.736 0 0)
(130.38 0 0)
(132.023 0 0)
(133.663 0 0)
(135.301 0 0)
(136.934 0 0)
(138.563 0 0)
(140.186 0 0)
(141.804 0 0)
(143.415 0 0)
(145.02 0 0)
(146.619 0 0)
(148.21 0 0)
(149.793 0 0)
(151.369 0 0)
(152.938 0 0)
(154.499 0 0)
(156.051 0 0)
(157.596 0 0)
(159.133 0 0)
(160.661 0 0)
(162.181 0 0)
(163.693 0 0)
(165.196 0 0)
(166.692 0 0)
(168.179 0 0)
(169.657 0 0)
(171.128 0 0)
(172.589 0 0)
(174.043 0 0)
(175.489 0 0)
(176.926 0 0)
(178.354 0 0)
(179.775 0 0)
(181.188 0 0)
(182.592 0 0)
(183.988 0 0)
(185.376 0 0)
(186.754 0 0)
(188.132 0 0)
(189.479 0 0)
(190.884 0 0)
(192.082 0 0)
(193.881 0 0)
(128.004 0 0)
(124.768 0 0)
(121.563 0 0)
(118.426 0 0)
(115.404 0 0)
(112.55 0 0)
(109.926 0 0)
(107.591 0 0)
(105.593 0 0)
(103.967 0 0)
(102.727 0 0)
(101.867 0 0)
(101.368 0 0)
(101.198 0 0)
(101.319 0 0)
(101.694 0 0)
(102.286 0 0)
(103.061 0 0)
(103.99 0 0)
(105.046 0 0)
(106.208 0 0)
(107.457 0 0)
(108.779 0 0)
(110.159 0 0)
(111.589 0 0)
(113.058 0 0)
(114.559 0 0)
(116.086 0 0)
(117.634 0 0)
(119.198 0 0)
(120.775 0 0)
(122.362 0 0)
(123.956 0 0)
(125.555 0 0)
(127.157 0 0)
(128.76 0 0)
(130.364 0 0)
(131.966 0 0)
(133.566 0 0)
(135.163 0 0)
(136.756 0 0)
(138.345 0 0)
(139.929 0 0)
(141.507 0 0)
(143.08 0 0)
(144.646 0 0)
(146.206 0 0)
(147.759 0 0)
(149.305 0 0)
(150.844 0 0)
(152.375 0 0)
(153.899 0 0)
(155.416 0 0)
(156.924 0 0)
(158.425 0 0)
(159.918 0 0)
(161.404 0 0)
(162.881 0 0)
(164.35 0 0)
(165.812 0 0)
(167.265 0 0)
(168.71 0 0)
(170.148 0 0)
(171.577 0 0)
(172.998 0 0)
(174.412 0 0)
(175.817 0 0)
(177.214 0 0)
(178.604 0 0)
(179.985 0 0)
(181.359 0 0)
(182.724 0 0)
(184.083 0 0)
(185.431 0 0)
(186.778 0 0)
(188.098 0 0)
(189.471 0 0)
(190.647 0 0)
(192.396 0 0)
(124.926 0 0)
(121.806 0 0)
(118.746 0 0)
(115.789 0 0)
(112.984 0 0)
(110.385 0 0)
(108.049 0 0)
(106.024 0 0)
(104.345 0 0)
(103.03 0 0)
(102.08 0 0)
(101.479 0 0)
(101.202 0 0)
(101.216 0 0)
(101.485 0 0)
(101.974 0 0)
(102.652 0 0)
(103.488 0 0)
(104.457 0 0)
(105.537 0 0)
(106.71 0 0)
(107.958 0 0)
(109.271 0 0)
(110.635 0 0)
(112.043 0 0)
(113.485 0 0)
(114.957 0 0)
(116.452 0 0)
(117.965 0 0)
(119.494 0 0)
(121.034 0 0)
(122.582 0 0)
(124.137 0 0)
(125.697 0 0)
(127.259 0 0)
(128.823 0 0)
(130.386 0 0)
(131.948 0 0)
(133.508 0 0)
(135.066 0 0)
(136.62 0 0)
(138.169 0 0)
(139.714 0 0)
(141.254 0 0)
(142.788 0 0)
(144.316 0 0)
(145.838 0 0)
(147.354 0 0)
(148.863 0 0)
(150.365 0 0)
(151.861 0 0)
(153.349 0 0)
(154.83 0 0)
(156.303 0 0)
(157.769 0 0)
(159.228 0 0)
(160.679 0 0)
(162.122 0 0)
(163.558 0 0)
(164.986 0 0)
(166.407 0 0)
(167.819 0 0)
(169.224 0 0)
(170.622 0 0)
(172.011 0 0)
(173.393 0 0)
(174.767 0 0)
(176.134 0 0)
(177.493 0 0)
(178.844 0 0)
(180.187 0 0)
(181.523 0 0)
(182.852 0 0)
(184.171 0 0)
(185.489 0 0)
(186.78 0 0)
(188.123 0 0)
(189.276 0 0)
(190.979 0 0)
(121.896 0 0)
(118.917 0 0)
(116.032 0 0)
(113.285 0 0)
(110.727 0 0)
(108.41 0 0)
(106.38 0 0)
(104.671 0 0)
(103.306 0 0)
(102.288 0 0)
(101.607 0 0)
(101.241 0 0)
(101.162 0 0)
(101.337 0 0)
(101.735 0 0)
(102.323 0 0)
(103.073 0 0)
(103.96 0 0)
(104.962 0 0)
(106.06 0 0)
(107.239 0 0)
(108.485 0 0)
(109.786 0 0)
(111.133 0 0)
(112.518 0 0)
(113.935 0 0)
(115.377 0 0)
(116.84 0 0)
(118.32 0 0)
(119.813 0 0)
(121.316 0 0)
(122.828 0 0)
(124.345 0 0)
(125.866 0 0)
(127.39 0 0)
(128.914 0 0)
(130.439 0 0)
(131.962 0 0)
(133.484 0 0)
(135.002 0 0)
(136.518 0 0)
(138.029 0 0)
(139.536 0 0)
(141.038 0 0)
(142.535 0 0)
(144.026 0 0)
(145.512 0 0)
(146.991 0 0)
(148.464 0 0)
(149.93 0 0)
(151.39 0 0)
(152.843 0 0)
(154.289 0 0)
(155.728 0 0)
(157.16 0 0)
(158.585 0 0)
(160.003 0 0)
(161.413 0 0)
(162.816 0 0)
(164.211 0 0)
(165.599 0 0)
(166.98 0 0)
(168.353 0 0)
(169.719 0 0)
(171.078 0 0)
(172.429 0 0)
(173.772 0 0)
(175.109 0 0)
(176.437 0 0)
(177.759 0 0)
(179.073 0 0)
(180.379 0 0)
(181.679 0 0)
(182.969 0 0)
(184.258 0 0)
(185.521 0 0)
(186.834 0 0)
(187.965 0 0)
(189.624 0 0)
(118.982 0 0)
(116.171 0 0)
(113.488 0 0)
(110.98 0 0)
(108.693 0 0)
(106.672 0 0)
(104.952 0 0)
(103.554 0 0)
(102.485 0 0)
(101.74 0 0)
(101.3 0 0)
(101.141 0 0)
(101.233 0 0)
(101.547 0 0)
(102.052 0 0)
(102.722 0 0)
(103.532 0 0)
(104.46 0 0)
(105.487 0 0)
(106.598 0 0)
(107.779 0 0)
(109.018 0 0)
(110.307 0 0)
(111.636 0 0)
(112.998 0 0)
(114.388 0 0)
(115.801 0 0)
(117.233 0 0)
(118.68 0 0)
(120.139 0 0)
(121.607 0 0)
(123.082 0 0)
(124.562 0 0)
(126.046 0 0)
(127.532 0 0)
(129.019 0 0)
(130.506 0 0)
(131.992 0 0)
(133.476 0 0)
(134.957 0 0)
(136.435 0 0)
(137.909 0 0)
(139.379 0 0)
(140.845 0 0)
(142.305 0 0)
(143.76 0 0)
(145.21 0 0)
(146.654 0 0)
(148.092 0 0)
(149.523 0 0)
(150.948 0 0)
(152.367 0 0)
(153.779 0 0)
(155.185 0 0)
(156.583 0 0)
(157.975 0 0)
(159.36 0 0)
(160.738 0 0)
(162.108 0 0)
(163.472 0 0)
(164.828 0 0)
(166.178 0 0)
(167.52 0 0)
(168.855 0 0)
(170.183 0 0)
(171.504 0 0)
(172.817 0 0)
(174.124 0 0)
(175.423 0 0)
(176.715 0 0)
(178 0 0)
(179.277 0 0)
(180.548 0 0)
(181.81 0 0)
(183.071 0 0)
(184.307 0 0)
(185.591 0 0)
(186.698 0 0)
(188.317 0 0)
(116.228 0 0)
(113.613 0 0)
(111.159 0 0)
(108.912 0 0)
(106.911 0 0)
(105.191 0 0)
(103.774 0 0)
(102.669 0 0)
(101.872 0 0)
(101.37 0 0)
(101.142 0 0)
(101.161 0 0)
(101.399 0 0)
(101.829 0 0)
(102.424 0 0)
(103.16 0 0)
(104.018 0 0)
(104.977 0 0)
(106.023 0 0)
(107.141 0 0)
(108.321 0 0)
(109.551 0 0)
(110.825 0 0)
(112.134 0 0)
(113.473 0 0)
(114.837 0 0)
(116.222 0 0)
(117.623 0 0)
(119.037 0 0)
(120.462 0 0)
(121.896 0 0)
(123.336 0 0)
(124.78 0 0)
(126.228 0 0)
(127.678 0 0)
(129.128 0 0)
(130.579 0 0)
(132.028 0 0)
(133.475 0 0)
(134.92 0 0)
(136.362 0 0)
(137.8 0 0)
(139.234 0 0)
(140.664 0 0)
(142.089 0 0)
(143.509 0 0)
(144.924 0 0)
(146.333 0 0)
(147.737 0 0)
(149.134 0 0)
(150.526 0 0)
(151.911 0 0)
(153.29 0 0)
(154.663 0 0)
(156.029 0 0)
(157.388 0 0)
(158.741 0 0)
(160.087 0 0)
(161.427 0 0)
(162.759 0 0)
(164.085 0 0)
(165.404 0 0)
(166.715 0 0)
(168.02 0 0)
(169.318 0 0)
(170.609 0 0)
(171.893 0 0)
(173.171 0 0)
(174.441 0 0)
(175.704 0 0)
(176.96 0 0)
(178.209 0 0)
(179.452 0 0)
(180.686 0 0)
(181.919 0 0)
(183.128 0 0)
(184.383 0 0)
(185.467 0 0)
(187.048 0 0)
(113.67 0 0)
(111.275 0 0)
(109.073 0 0)
(107.101 0 0)
(105.392 0 0)
(103.966 0 0)
(102.836 0 0)
(102 0 0)
(101.448 0 0)
(101.16 0 0)
(101.114 0 0)
(101.284 0 0)
(101.644 0 0)
(102.17 0 0)
(102.838 0 0)
(103.628 0 0)
(104.523 0 0)
(105.506 0 0)
(106.563 0 0)
(107.685 0 0)
(108.859 0 0)
(110.079 0 0)
(111.336 0 0)
(112.625 0 0)
(113.94 0 0)
(115.278 0 0)
(116.634 0 0)
(118.004 0 0)
(119.387 0 0)
(120.779 0 0)
(122.179 0 0)
(123.585 0 0)
(124.995 0 0)
(126.407 0 0)
(127.822 0 0)
(129.237 0 0)
(130.652 0 0)
(132.065 0 0)
(133.477 0 0)
(134.887 0 0)
(136.293 0 0)
(137.697 0 0)
(139.096 0 0)
(140.491 0 0)
(141.882 0 0)
(143.268 0 0)
(144.649 0 0)
(146.025 0 0)
(147.395 0 0)
(148.76 0 0)
(150.118 0 0)
(151.471 0 0)
(152.818 0 0)
(154.159 0 0)
(155.493 0 0)
(156.821 0 0)
(158.143 0 0)
(159.458 0 0)
(160.766 0 0)
(162.068 0 0)
(163.364 0 0)
(164.653 0 0)
(165.935 0 0)
(167.21 0 0)
(168.479 0 0)
(169.741 0 0)
(170.996 0 0)
(172.245 0 0)
(173.486 0 0)
(174.721 0 0)
(175.95 0 0)
(177.171 0 0)
(178.386 0 0)
(179.593 0 0)
(180.799 0 0)
(181.98 0 0)
(183.208 0 0)
(184.269 0 0)
(185.811 0 0)
(111.333 0 0)
(109.181 0 0)
(107.245 0 0)
(105.554 0 0)
(104.131 0 0)
(102.986 0 0)
(102.122 0 0)
(101.528 0 0)
(101.191 0 0)
(101.088 0 0)
(101.197 0 0)
(101.494 0 0)
(101.955 0 0)
(102.559 0 0)
(103.286 0 0)
(104.118 0 0)
(105.041 0 0)
(106.04 0 0)
(107.105 0 0)
(108.225 0 0)
(109.392 0 0)
(110.598 0 0)
(111.838 0 0)
(113.106 0 0)
(114.397 0 0)
(115.708 0 0)
(117.035 0 0)
(118.376 0 0)
(119.728 0 0)
(121.088 0 0)
(122.455 0 0)
(123.827 0 0)
(125.204 0 0)
(126.582 0 0)
(127.962 0 0)
(129.343 0 0)
(130.723 0 0)
(132.103 0 0)
(133.48 0 0)
(134.856 0 0)
(136.228 0 0)
(137.598 0 0)
(138.963 0 0)
(140.325 0 0)
(141.682 0 0)
(143.035 0 0)
(144.383 0 0)
(145.726 0 0)
(147.064 0 0)
(148.397 0 0)
(149.723 0 0)
(151.045 0 0)
(152.36 0 0)
(153.669 0 0)
(154.973 0 0)
(156.27 0 0)
(157.561 0 0)
(158.846 0 0)
(160.125 0 0)
(161.397 0 0)
(162.663 0 0)
(163.923 0 0)
(165.176 0 0)
(166.423 0 0)
(167.663 0 0)
(168.896 0 0)
(170.123 0 0)
(171.344 0 0)
(172.558 0 0)
(173.765 0 0)
(174.966 0 0)
(176.16 0 0)
(177.348 0 0)
(178.528 0 0)
(179.707 0 0)
(180.863 0 0)
(182.062 0 0)
(183.101 0 0)
(184.607 0 0)
(109.237 0 0)
(107.342 0 0)
(105.678 0 0)
(104.265 0 0)
(103.116 0 0)
(102.232 0 0)
(101.607 0 0)
(101.228 0 0)
(101.077 0 0)
(101.132 0 0)
(101.372 0 0)
(101.774 0 0)
(102.318 0 0)
(102.986 0 0)
(103.76 0 0)
(104.625 0 0)
(105.568 0 0)
(106.578 0 0)
(107.645 0 0)
(108.761 0 0)
(109.917 0 0)
(111.109 0 0)
(112.33 0 0)
(113.576 0 0)
(114.843 0 0)
(116.128 0 0)
(117.427 0 0)
(118.738 0 0)
(120.06 0 0)
(121.389 0 0)
(122.724 0 0)
(124.064 0 0)
(125.407 0 0)
(126.752 0 0)
(128.099 0 0)
(129.447 0 0)
(130.794 0 0)
(132.139 0 0)
(133.484 0 0)
(134.826 0 0)
(136.165 0 0)
(137.502 0 0)
(138.835 0 0)
(140.164 0 0)
(141.489 0 0)
(142.809 0 0)
(144.125 0 0)
(145.437 0 0)
(146.743 0 0)
(148.044 0 0)
(149.34 0 0)
(150.63 0 0)
(151.915 0 0)
(153.194 0 0)
(154.468 0 0)
(155.735 0 0)
(156.997 0 0)
(158.252 0 0)
(159.502 0 0)
(160.745 0 0)
(161.982 0 0)
(163.213 0 0)
(164.438 0 0)
(165.656 0 0)
(166.869 0 0)
(168.074 0 0)
(169.274 0 0)
(170.467 0 0)
(171.654 0 0)
(172.834 0 0)
(174.008 0 0)
(175.176 0 0)
(176.338 0 0)
(177.491 0 0)
(178.643 0 0)
(179.774 0 0)
(180.946 0 0)
(181.963 0 0)
(183.432 0 0)
(107.396 0 0)
(105.765 0 0)
(104.37 0 0)
(103.224 0 0)
(102.33 0 0)
(101.682 0 0)
(101.27 0 0)
(101.078 0 0)
(101.086 0 0)
(101.275 0 0)
(101.623 0 0)
(102.113 0 0)
(102.725 0 0)
(103.443 0 0)
(104.254 0 0)
(105.143 0 0)
(106.101 0 0)
(107.116 0 0)
(108.182 0 0)
(109.29 0 0)
(110.435 0 0)
(111.61 0 0)
(112.812 0 0)
(114.036 0 0)
(115.278 0 0)
(116.537 0 0)
(117.808 0 0)
(119.091 0 0)
(120.382 0 0)
(121.681 0 0)
(122.985 0 0)
(124.293 0 0)
(125.604 0 0)
(126.918 0 0)
(128.232 0 0)
(129.547 0 0)
(130.862 0 0)
(132.175 0 0)
(133.487 0 0)
(134.797 0 0)
(136.104 0 0)
(137.409 0 0)
(138.71 0 0)
(140.007 0 0)
(141.301 0 0)
(142.59 0 0)
(143.875 0 0)
(145.156 0 0)
(146.432 0 0)
(147.702 0 0)
(148.968 0 0)
(150.228 0 0)
(151.483 0 0)
(152.733 0 0)
(153.977 0 0)
(155.215 0 0)
(156.448 0 0)
(157.675 0 0)
(158.896 0 0)
(160.111 0 0)
(161.32 0 0)
(162.523 0 0)
(163.72 0 0)
(164.911 0 0)
(166.096 0 0)
(167.275 0 0)
(168.447 0 0)
(169.614 0 0)
(170.774 0 0)
(171.928 0 0)
(173.076 0 0)
(174.217 0 0)
(175.353 0 0)
(176.481 0 0)
(177.608 0 0)
(178.713 0 0)
(179.858 0 0)
(180.853 0 0)
(182.287 0 0)
(105.813 0 0)
(104.444 0 0)
(103.309 0 0)
(102.412 0 0)
(101.75 0 0)
(101.313 0 0)
(101.087 0 0)
(101.055 0 0)
(101.198 0 0)
(101.499 0 0)
(101.937 0 0)
(102.498 0 0)
(103.165 0 0)
(103.923 0 0)
(104.762 0 0)
(105.669 0 0)
(106.635 0 0)
(107.653 0 0)
(108.714 0 0)
(109.812 0 0)
(110.943 0 0)
(112.101 0 0)
(113.283 0 0)
(114.485 0 0)
(115.703 0 0)
(116.935 0 0)
(118.18 0 0)
(119.434 0 0)
(120.696 0 0)
(121.965 0 0)
(123.238 0 0)
(124.516 0 0)
(125.796 0 0)
(127.078 0 0)
(128.362 0 0)
(129.645 0 0)
(130.928 0 0)
(132.21 0 0)
(133.491 0 0)
(134.769 0 0)
(136.045 0 0)
(137.319 0 0)
(138.589 0 0)
(139.856 0 0)
(141.119 0 0)
(142.378 0 0)
(143.633 0 0)
(144.883 0 0)
(146.129 0 0)
(147.37 0 0)
(148.607 0 0)
(149.838 0 0)
(151.064 0 0)
(152.285 0 0)
(153.5 0 0)
(154.71 0 0)
(155.915 0 0)
(157.114 0 0)
(158.307 0 0)
(159.495 0 0)
(160.676 0 0)
(161.852 0 0)
(163.022 0 0)
(164.187 0 0)
(165.345 0 0)
(166.497 0 0)
(167.643 0 0)
(168.784 0 0)
(169.918 0 0)
(171.046 0 0)
(172.168 0 0)
(173.284 0 0)
(174.394 0 0)
(175.497 0 0)
(176.598 0 0)
(177.679 0 0)
(178.799 0 0)
(179.773 0 0)
(181.172 0 0)
(104.487 0 0)
(103.369 0 0)
(102.477 0 0)
(101.807 0 0)
(101.352 0 0)
(101.1 0 0)
(101.034 0 0)
(101.139 0 0)
(101.396 0 0)
(101.789 0 0)
(102.302 0 0)
(102.921 0 0)
(103.631 0 0)
(104.421 0 0)
(105.28 0 0)
(106.199 0 0)
(107.17 0 0)
(108.185 0 0)
(109.239 0 0)
(110.327 0 0)
(111.442 0 0)
(112.583 0 0)
(113.744 0 0)
(114.923 0 0)
(116.117 0 0)
(117.324 0 0)
(118.541 0 0)
(119.767 0 0)
(121.001 0 0)
(122.241 0 0)
(123.485 0 0)
(124.732 0 0)
(125.983 0 0)
(127.234 0 0)
(128.487 0 0)
(129.74 0 0)
(130.993 0 0)
(132.244 0 0)
(133.494 0 0)
(134.742 0 0)
(135.988 0 0)
(137.232 0 0)
(138.472 0 0)
(139.709 0 0)
(140.942 0 0)
(142.172 0 0)
(143.397 0 0)
(144.619 0 0)
(145.836 0 0)
(147.048 0 0)
(148.256 0 0)
(149.459 0 0)
(150.657 0 0)
(151.849 0 0)
(153.037 0 0)
(154.22 0 0)
(155.397 0 0)
(156.569 0 0)
(157.735 0 0)
(158.895 0 0)
(160.051 0 0)
(161.2 0 0)
(162.344 0 0)
(163.482 0 0)
(164.614 0 0)
(165.74 0 0)
(166.861 0 0)
(167.976 0 0)
(169.085 0 0)
(170.188 0 0)
(171.285 0 0)
(172.376 0 0)
(173.461 0 0)
(174.539 0 0)
(175.616 0 0)
(176.672 0 0)
(177.767 0 0)
(178.72 0 0)
(180.085 0 0)
(103.405 0 0)
(102.524 0 0)
(101.854 0 0)
(101.388 0 0)
(101.115 0 0)
(101.022 0 0)
(101.093 0 0)
(101.313 0 0)
(101.665 0 0)
(102.134 0 0)
(102.708 0 0)
(103.373 0 0)
(104.117 0 0)
(104.93 0 0)
(105.804 0 0)
(106.73 0 0)
(107.702 0 0)
(108.713 0 0)
(109.758 0 0)
(110.832 0 0)
(111.932 0 0)
(113.054 0 0)
(114.194 0 0)
(115.35 0 0)
(116.52 0 0)
(117.702 0 0)
(118.893 0 0)
(120.092 0 0)
(121.298 0 0)
(122.509 0 0)
(123.724 0 0)
(124.943 0 0)
(126.164 0 0)
(127.386 0 0)
(128.609 0 0)
(129.833 0 0)
(131.055 0 0)
(132.277 0 0)
(133.498 0 0)
(134.717 0 0)
(135.933 0 0)
(137.147 0 0)
(138.358 0 0)
(139.566 0 0)
(140.771 0 0)
(141.972 0 0)
(143.169 0 0)
(144.362 0 0)
(145.551 0 0)
(146.735 0 0)
(147.915 0 0)
(149.091 0 0)
(150.261 0 0)
(151.427 0 0)
(152.587 0 0)
(153.743 0 0)
(154.894 0 0)
(156.039 0 0)
(157.179 0 0)
(158.313 0 0)
(159.442 0 0)
(160.566 0 0)
(161.684 0 0)
(162.796 0 0)
(163.903 0 0)
(165.005 0 0)
(166.1 0 0)
(167.19 0 0)
(168.274 0 0)
(169.352 0 0)
(170.425 0 0)
(171.491 0 0)
(172.553 0 0)
(173.607 0 0)
(174.659 0 0)
(175.692 0 0)
(176.762 0 0)
(177.694 0 0)
(179.026 0 0)
(102.553 0 0)
(101.888 0 0)
(101.417 0 0)
(101.13 0 0)
(101.015 0 0)
(101.058 0 0)
(101.245 0 0)
(101.56 0 0)
(101.991 0 0)
(102.523 0 0)
(103.146 0 0)
(103.847 0 0)
(104.617 0 0)
(105.448 0 0)
(106.331 0 0)
(107.261 0 0)
(108.23 0 0)
(109.234 0 0)
(110.268 0 0)
(111.329 0 0)
(112.412 0 0)
(113.514 0 0)
(114.633 0 0)
(115.767 0 0)
(116.913 0 0)
(118.07 0 0)
(119.235 0 0)
(120.408 0 0)
(121.586 0 0)
(122.77 0 0)
(123.957 0 0)
(125.147 0 0)
(126.34 0 0)
(127.533 0 0)
(128.728 0 0)
(129.923 0 0)
(131.117 0 0)
(132.31 0 0)
(133.502 0 0)
(134.692 0 0)
(135.88 0 0)
(137.065 0 0)
(138.248 0 0)
(139.428 0 0)
(140.605 0 0)
(141.778 0 0)
(142.947 0 0)
(144.113 0 0)
(145.274 0 0)
(146.432 0 0)
(147.585 0 0)
(148.733 0 0)
(149.877 0 0)
(151.016 0 0)
(152.151 0 0)
(153.28 0 0)
(154.405 0 0)
(155.524 0 0)
(156.638 0 0)
(157.747 0 0)
(158.851 0 0)
(159.95 0 0)
(161.043 0 0)
(162.13 0 0)
(163.212 0 0)
(164.289 0 0)
(165.36 0 0)
(166.425 0 0)
(167.485 0 0)
(168.54 0 0)
(169.588 0 0)
(170.631 0 0)
(171.668 0 0)
(172.699 0 0)
(173.728 0 0)
(174.738 0 0)
(175.783 0 0)
(176.695 0 0)
(177.994 0 0)
(101.909 0 0)
(101.439 0 0)
(101.143 0 0)
(101.012 0 0)
(101.032 0 0)
(101.191 0 0)
(101.474 0 0)
(101.869 0 0)
(102.364 0 0)
(102.947 0 0)
(103.608 0 0)
(104.338 0 0)
(105.127 0 0)
(105.97 0 0)
(106.859 0 0)
(107.788 0 0)
(108.753 0 0)
(109.748 0 0)
(110.77 0 0)
(111.815 0 0)
(112.881 0 0)
(113.964 0 0)
(115.062 0 0)
(116.173 0 0)
(117.296 0 0)
(118.428 0 0)
(119.568 0 0)
(120.714 0 0)
(121.867 0 0)
(123.023 0 0)
(124.183 0 0)
(125.346 0 0)
(126.511 0 0)
(127.677 0 0)
(128.843 0 0)
(130.01 0 0)
(131.176 0 0)
(132.342 0 0)
(133.506 0 0)
(134.668 0 0)
(135.828 0 0)
(136.986 0 0)
(138.142 0 0)
(139.294 0 0)
(140.444 0 0)
(141.59 0 0)
(142.733 0 0)
(143.871 0 0)
(145.006 0 0)
(146.137 0 0)
(147.264 0 0)
(148.387 0 0)
(149.505 0 0)
(150.618 0 0)
(151.727 0 0)
(152.831 0 0)
(153.93 0 0)
(155.024 0 0)
(156.113 0 0)
(157.198 0 0)
(158.277 0 0)
(159.351 0 0)
(160.419 0 0)
(161.483 0 0)
(162.54 0 0)
(163.593 0 0)
(164.64 0 0)
(165.682 0 0)
(166.718 0 0)
(167.749 0 0)
(168.774 0 0)
(169.794 0 0)
(170.808 0 0)
(171.815 0 0)
(172.821 0 0)
(173.808 0 0)
(174.83 0 0)
(175.723 0 0)
(176.99 0 0)
(101.452 0 0)
(101.153 0 0)
(101.011 0 0)
(101.013 0 0)
(101.148 0 0)
(101.403 0 0)
(101.766 0 0)
(102.227 0 0)
(102.774 0 0)
(103.398 0 0)
(104.089 0 0)
(104.84 0 0)
(105.644 0 0)
(106.494 0 0)
(107.385 0 0)
(108.311 0 0)
(109.269 0 0)
(110.253 0 0)
(111.262 0 0)
(112.292 0 0)
(113.34 0 0)
(114.403 0 0)
(115.48 0 0)
(116.569 0 0)
(117.669 0 0)
(118.776 0 0)
(119.892 0 0)
(121.013 0 0)
(122.139 0 0)
(123.269 0 0)
(124.403 0 0)
(125.539 0 0)
(126.677 0 0)
(127.816 0 0)
(128.955 0 0)
(130.095 0 0)
(131.234 0 0)
(132.373 0 0)
(133.51 0 0)
(134.645 0 0)
(135.779 0 0)
(136.91 0 0)
(138.039 0 0)
(139.165 0 0)
(140.288 0 0)
(141.408 0 0)
(142.524 0 0)
(143.637 0 0)
(144.746 0 0)
(145.852 0 0)
(146.953 0 0)
(148.05 0 0)
(149.143 0 0)
(150.231 0 0)
(151.315 0 0)
(152.394 0 0)
(153.469 0 0)
(154.539 0 0)
(155.604 0 0)
(156.663 0 0)
(157.718 0 0)
(158.768 0 0)
(159.813 0 0)
(160.853 0 0)
(161.887 0 0)
(162.917 0 0)
(163.94 0 0)
(164.959 0 0)
(165.972 0 0)
(166.98 0 0)
(167.982 0 0)
(168.979 0 0)
(169.971 0 0)
(170.955 0 0)
(171.939 0 0)
(172.904 0 0)
(173.902 0 0)
(174.776 0 0)
(176.012 0 0)
(101.159 0 0)
(101.01 0 0)
(100.998 0 0)
(101.113 0 0)
(101.345 0 0)
(101.68 0 0)
(102.11 0 0)
(102.624 0 0)
(103.214 0 0)
(103.869 0 0)
(104.584 0 0)
(105.351 0 0)
(106.164 0 0)
(107.018 0 0)
(107.907 0 0)
(108.828 0 0)
(109.777 0 0)
(110.75 0 0)
(111.745 0 0)
(112.758 0 0)
(113.788 0 0)
(114.832 0 0)
(115.888 0 0)
(116.955 0 0)
(118.031 0 0)
(119.115 0 0)
(120.206 0 0)
(121.303 0 0)
(122.404 0 0)
(123.509 0 0)
(124.617 0 0)
(125.727 0 0)
(126.838 0 0)
(127.951 0 0)
(129.065 0 0)
(130.178 0 0)
(131.291 0 0)
(132.403 0 0)
(133.514 0 0)
(134.623 0 0)
(135.731 0 0)
(136.836 0 0)
(137.939 0 0)
(139.039 0 0)
(140.137 0 0)
(141.231 0 0)
(142.322 0 0)
(143.41 0 0)
(144.494 0 0)
(145.574 0 0)
(146.651 0 0)
(147.723 0 0)
(148.792 0 0)
(149.856 0 0)
(150.915 0 0)
(151.97 0 0)
(153.021 0 0)
(154.067 0 0)
(155.108 0 0)
(156.145 0 0)
(157.176 0 0)
(158.203 0 0)
(159.224 0 0)
(160.241 0 0)
(161.252 0 0)
(162.259 0 0)
(163.26 0 0)
(164.256 0 0)
(165.247 0 0)
(166.232 0 0)
(167.212 0 0)
(168.186 0 0)
(169.156 0 0)
(170.119 0 0)
(171.08 0 0)
(172.024 0 0)
(172.999 0 0)
(173.854 0 0)
(175.059 0 0)
(101.008 0 0)
(100.987 0 0)
(101.087 0 0)
(101.298 0 0)
(101.609 0 0)
(102.011 0 0)
(102.496 0 0)
(103.053 0 0)
(103.675 0 0)
(104.356 0 0)
(105.088 0 0)
(105.866 0 0)
(106.684 0 0)
(107.539 0 0)
(108.425 0 0)
(109.339 0 0)
(110.277 0 0)
(111.238 0 0)
(112.218 0 0)
(113.214 0 0)
(114.225 0 0)
(115.25 0 0)
(116.285 0 0)
(117.331 0 0)
(118.384 0 0)
(119.445 0 0)
(120.512 0 0)
(121.585 0 0)
(122.661 0 0)
(123.741 0 0)
(124.824 0 0)
(125.909 0 0)
(126.995 0 0)
(128.083 0 0)
(129.171 0 0)
(130.258 0 0)
(131.346 0 0)
(132.432 0 0)
(133.518 0 0)
(134.602 0 0)
(135.684 0 0)
(136.764 0 0)
(137.842 0 0)
(138.918 0 0)
(139.99 0 0)
(141.06 0 0)
(142.126 0 0)
(143.19 0 0)
(144.249 0 0)
(145.305 0 0)
(146.358 0 0)
(147.406 0 0)
(148.451 0 0)
(149.491 0 0)
(150.527 0 0)
(151.559 0 0)
(152.586 0 0)
(153.609 0 0)
(154.627 0 0)
(155.64 0 0)
(156.649 0 0)
(157.653 0 0)
(158.652 0 0)
(159.646 0 0)
(160.635 0 0)
(161.619 0 0)
(162.598 0 0)
(163.572 0 0)
(164.541 0 0)
(165.504 0 0)
(166.463 0 0)
(167.415 0 0)
(168.363 0 0)
(169.305 0 0)
(170.244 0 0)
(171.167 0 0)
(172.12 0 0)
(172.957 0 0)
(174.132 0 0)
(100.978 0 0)
(101.066 0 0)
(101.26 0 0)
(101.551 0 0)
(101.929 0 0)
(102.386 0 0)
(102.914 0 0)
(103.505 0 0)
(104.154 0 0)
(104.853 0 0)
(105.598 0 0)
(106.383 0 0)
(107.203 0 0)
(108.055 0 0)
(108.936 0 0)
(109.841 0 0)
(110.769 0 0)
(111.716 0 0)
(112.68 0 0)
(113.66 0 0)
(114.653 0 0)
(115.657 0 0)
(116.672 0 0)
(117.696 0 0)
(118.728 0 0)
(119.766 0 0)
(120.81 0 0)
(121.859 0 0)
(122.911 0 0)
(123.967 0 0)
(125.026 0 0)
(126.086 0 0)
(127.148 0 0)
(128.21 0 0)
(129.274 0 0)
(130.337 0 0)
(131.399 0 0)
(132.461 0 0)
(133.522 0 0)
(134.581 0 0)
(135.639 0 0)
(136.695 0 0)
(137.749 0 0)
(138.8 0 0)
(139.848 0 0)
(140.894 0 0)
(141.936 0 0)
(142.976 0 0)
(144.012 0 0)
(145.045 0 0)
(146.073 0 0)
(147.099 0 0)
(148.12 0 0)
(149.137 0 0)
(150.15 0 0)
(151.159 0 0)
(152.164 0 0)
(153.164 0 0)
(154.16 0 0)
(155.151 0 0)
(156.137 0 0)
(157.119 0 0)
(158.096 0 0)
(159.068 0 0)
(160.036 0 0)
(160.998 0 0)
(161.955 0 0)
(162.908 0 0)
(163.855 0 0)
(164.797 0 0)
(165.734 0 0)
(166.666 0 0)
(167.592 0 0)
(168.513 0 0)
(169.431 0 0)
(170.334 0 0)
(171.265 0 0)
(172.084 0 0)
(173.23 0 0)
(101.051 0 0)
(101.231 0 0)
(101.504 0 0)
(101.86 0 0)
(102.293 0 0)
(102.794 0 0)
(103.357 0 0)
(103.976 0 0)
(104.645 0 0)
(105.358 0 0)
(106.11 0 0)
(106.898 0 0)
(107.718 0 0)
(108.566 0 0)
(109.44 0 0)
(110.335 0 0)
(111.251 0 0)
(112.184 0 0)
(113.132 0 0)
(114.094 0 0)
(115.069 0 0)
(116.054 0 0)
(117.049 0 0)
(118.052 0 0)
(119.062 0 0)
(120.078 0 0)
(121.099 0 0)
(122.125 0 0)
(123.154 0 0)
(124.187 0 0)
(125.221 0 0)
(126.258 0 0)
(127.296 0 0)
(128.335 0 0)
(129.374 0 0)
(130.413 0 0)
(131.451 0 0)
(132.489 0 0)
(133.526 0 0)
(134.562 0 0)
(135.596 0 0)
(136.628 0 0)
(137.658 0 0)
(138.685 0 0)
(139.71 0 0)
(140.733 0 0)
(141.752 0 0)
(142.769 0 0)
(143.782 0 0)
(144.791 0 0)
(145.798 0 0)
(146.8 0 0)
(147.799 0 0)
(148.794 0 0)
(149.784 0 0)
(150.771 0 0)
(151.754 0 0)
(152.732 0 0)
(153.706 0 0)
(154.675 0 0)
(155.64 0 0)
(156.6 0 0)
(157.556 0 0)
(158.507 0 0)
(159.453 0 0)
(160.394 0 0)
(161.33 0 0)
(162.261 0 0)
(163.188 0 0)
(164.109 0 0)
(165.025 0 0)
(165.936 0 0)
(166.842 0 0)
(167.742 0 0)
(168.64 0 0)
(169.523 0 0)
(170.433 0 0)
(171.234 0 0)
(172.352 0 0)
(101.21 0 0)
(101.467 0 0)
(101.805 0 0)
(102.216 0 0)
(102.693 0 0)
(103.23 0 0)
(103.821 0 0)
(104.46 0 0)
(105.143 0 0)
(105.866 0 0)
(106.623 0 0)
(107.412 0 0)
(108.229 0 0)
(109.071 0 0)
(109.936 0 0)
(110.82 0 0)
(111.723 0 0)
(112.641 0 0)
(113.574 0 0)
(114.519 0 0)
(115.475 0 0)
(116.441 0 0)
(117.416 0 0)
(118.398 0 0)
(119.387 0 0)
(120.381 0 0)
(121.38 0 0)
(122.383 0 0)
(123.39 0 0)
(124.4 0 0)
(125.412 0 0)
(126.425 0 0)
(127.44 0 0)
(128.455 0 0)
(129.471 0 0)
(130.487 0 0)
(131.502 0 0)
(132.517 0 0)
(133.531 0 0)
(134.543 0 0)
(135.554 0 0)
(136.563 0 0)
(137.57 0 0)
(138.575 0 0)
(139.577 0 0)
(140.577 0 0)
(141.574 0 0)
(142.568 0 0)
(143.558 0 0)
(144.546 0 0)
(145.53 0 0)
(146.51 0 0)
(147.487 0 0)
(148.46 0 0)
(149.429 0 0)
(150.394 0 0)
(151.356 0 0)
(152.312 0 0)
(153.265 0 0)
(154.213 0 0)
(155.157 0 0)
(156.096 0 0)
(157.031 0 0)
(157.961 0 0)
(158.886 0 0)
(159.807 0 0)
(160.722 0 0)
(161.633 0 0)
(162.539 0 0)
(163.44 0 0)
(164.336 0 0)
(165.227 0 0)
(166.113 0 0)
(166.993 0 0)
(167.871 0 0)
(168.734 0 0)
(169.623 0 0)
(170.407 0 0)
(171.497 0 0)
(101.439 0 0)
(101.761 0 0)
(102.152 0 0)
(102.607 0 0)
(103.12 0 0)
(103.686 0 0)
(104.298 0 0)
(104.953 0 0)
(105.647 0 0)
(106.375 0 0)
(107.134 0 0)
(107.921 0 0)
(108.733 0 0)
(109.568 0 0)
(110.423 0 0)
(111.296 0 0)
(112.185 0 0)
(113.088 0 0)
(114.005 0 0)
(114.933 0 0)
(115.871 0 0)
(116.818 0 0)
(117.773 0 0)
(118.734 0 0)
(119.702 0 0)
(120.676 0 0)
(121.653 0 0)
(122.635 0 0)
(123.619 0 0)
(124.607 0 0)
(125.596 0 0)
(126.587 0 0)
(127.579 0 0)
(128.572 0 0)
(129.566 0 0)
(130.559 0 0)
(131.552 0 0)
(132.544 0 0)
(133.535 0 0)
(134.525 0 0)
(135.513 0 0)
(136.5 0 0)
(137.485 0 0)
(138.467 0 0)
(139.448 0 0)
(140.425 0 0)
(141.4 0 0)
(142.373 0 0)
(143.342 0 0)
(144.307 0 0)
(145.27 0 0)
(146.229 0 0)
(147.185 0 0)
(148.137 0 0)
(149.085 0 0)
(150.029 0 0)
(150.969 0 0)
(151.905 0 0)
(152.837 0 0)
(153.764 0 0)
(154.688 0 0)
(155.607 0 0)
(156.521 0 0)
(157.431 0 0)
(158.336 0 0)
(159.236 0 0)
(160.132 0 0)
(161.023 0 0)
(161.909 0 0)
(162.79 0 0)
(163.666 0 0)
(164.537 0 0)
(165.404 0 0)
(166.264 0 0)
(167.123 0 0)
(167.966 0 0)
(168.835 0 0)
(169.603 0 0)
(170.665 0 0)
(101.728 0 0)
(102.102 0 0)
(102.537 0 0)
(103.028 0 0)
(103.57 0 0)
(104.157 0 0)
(104.786 0 0)
(105.452 0 0)
(106.152 0 0)
(106.883 0 0)
(107.641 0 0)
(108.425 0 0)
(109.231 0 0)
(110.057 0 0)
(110.901 0 0)
(111.762 0 0)
(112.637 0 0)
(113.525 0 0)
(114.425 0 0)
(115.336 0 0)
(116.256 0 0)
(117.184 0 0)
(118.12 0 0)
(119.062 0 0)
(120.009 0 0)
(120.962 0 0)
(121.919 0 0)
(122.879 0 0)
(123.842 0 0)
(124.808 0 0)
(125.776 0 0)
(126.745 0 0)
(127.715 0 0)
(128.686 0 0)
(129.657 0 0)
(130.629 0 0)
(131.6 0 0)
(132.57 0 0)
(133.539 0 0)
(134.507 0 0)
(135.474 0 0)
(136.439 0 0)
(137.402 0 0)
(138.364 0 0)
(139.322 0 0)
(140.279 0 0)
(141.232 0 0)
(142.183 0 0)
(143.131 0 0)
(144.076 0 0)
(145.018 0 0)
(145.956 0 0)
(146.891 0 0)
(147.822 0 0)
(148.75 0 0)
(149.674 0 0)
(150.594 0 0)
(151.509 0 0)
(152.421 0 0)
(153.329 0 0)
(154.232 0 0)
(155.131 0 0)
(156.025 0 0)
(156.915 0 0)
(157.801 0 0)
(158.682 0 0)
(159.558 0 0)
(160.429 0 0)
(161.296 0 0)
(162.158 0 0)
(163.015 0 0)
(163.867 0 0)
(164.714 0 0)
(165.556 0 0)
(166.395 0 0)
(167.22 0 0)
(168.069 0 0)
(168.82 0 0)
(169.856 0 0)
(102.063 0 0)
(102.481 0 0)
(102.952 0 0)
(103.471 0 0)
(104.035 0 0)
(104.639 0 0)
(105.28 0 0)
(105.953 0 0)
(106.657 0 0)
(107.388 0 0)
(108.144 0 0)
(108.922 0 0)
(109.72 0 0)
(110.537 0 0)
(111.37 0 0)
(112.218 0 0)
(113.079 0 0)
(113.952 0 0)
(114.836 0 0)
(115.729 0 0)
(116.631 0 0)
(117.541 0 0)
(118.458 0 0)
(119.38 0 0)
(120.308 0 0)
(121.24 0 0)
(122.176 0 0)
(123.116 0 0)
(124.058 0 0)
(125.003 0 0)
(125.95 0 0)
(126.898 0 0)
(127.847 0 0)
(128.797 0 0)
(129.747 0 0)
(130.697 0 0)
(131.646 0 0)
(132.595 0 0)
(133.544 0 0)
(134.491 0 0)
(135.436 0 0)
(136.38 0 0)
(137.323 0 0)
(138.263 0 0)
(139.201 0 0)
(140.136 0 0)
(141.07 0 0)
(142 0 0)
(142.928 0 0)
(143.852 0 0)
(144.773 0 0)
(145.692 0 0)
(146.606 0 0)
(147.518 0 0)
(148.425 0 0)
(149.329 0 0)
(150.229 0 0)
(151.125 0 0)
(152.017 0 0)
(152.905 0 0)
(153.789 0 0)
(154.669 0 0)
(155.544 0 0)
(156.415 0 0)
(157.281 0 0)
(158.143 0 0)
(159 0 0)
(159.853 0 0)
(160.701 0 0)
(161.544 0 0)
(162.382 0 0)
(163.215 0 0)
(164.044 0 0)
(164.866 0 0)
(165.687 0 0)
(166.494 0 0)
(167.324 0 0)
(168.059 0 0)
(169.069 0 0)
(102.437 0 0)
(102.89 0 0)
(103.389 0 0)
(103.931 0 0)
(104.512 0 0)
(105.128 0 0)
(105.777 0 0)
(106.455 0 0)
(107.16 0 0)
(107.889 0 0)
(108.64 0 0)
(109.412 0 0)
(110.202 0 0)
(111.008 0 0)
(111.829 0 0)
(112.663 0 0)
(113.51 0 0)
(114.368 0 0)
(115.235 0 0)
(116.112 0 0)
(116.997 0 0)
(117.888 0 0)
(118.786 0 0)
(119.689 0 0)
(120.598 0 0)
(121.511 0 0)
(122.427 0 0)
(123.346 0 0)
(124.269 0 0)
(125.193 0 0)
(126.119 0 0)
(127.047 0 0)
(127.975 0 0)
(128.904 0 0)
(129.833 0 0)
(130.763 0 0)
(131.692 0 0)
(132.62 0 0)
(133.548 0 0)
(134.474 0 0)
(135.4 0 0)
(136.323 0 0)
(137.245 0 0)
(138.165 0 0)
(139.083 0 0)
(139.999 0 0)
(140.912 0 0)
(141.822 0 0)
(142.73 0 0)
(143.635 0 0)
(144.536 0 0)
(145.435 0 0)
(146.33 0 0)
(147.222 0 0)
(148.11 0 0)
(148.995 0 0)
(149.875 0 0)
(150.752 0 0)
(151.625 0 0)
(152.495 0 0)
(153.359 0 0)
(154.22 0 0)
(155.077 0 0)
(155.929 0 0)
(156.776 0 0)
(157.62 0 0)
(158.458 0 0)
(159.292 0 0)
(160.122 0 0)
(160.946 0 0)
(161.766 0 0)
(162.581 0 0)
(163.392 0 0)
(164.196 0 0)
(164.999 0 0)
(165.788 0 0)
(166.599 0 0)
(167.319 0 0)
(168.303 0 0)
(102.842 0 0)
(103.323 0 0)
(103.844 0 0)
(104.403 0 0)
(104.997 0 0)
(105.621 0 0)
(106.275 0 0)
(106.955 0 0)
(107.659 0 0)
(108.384 0 0)
(109.13 0 0)
(109.894 0 0)
(110.674 0 0)
(111.469 0 0)
(112.278 0 0)
(113.099 0 0)
(113.931 0 0)
(114.773 0 0)
(115.625 0 0)
(116.485 0 0)
(117.352 0 0)
(118.226 0 0)
(119.105 0 0)
(119.99 0 0)
(120.88 0 0)
(121.773 0 0)
(122.67 0 0)
(123.57 0 0)
(124.473 0 0)
(125.377 0 0)
(126.283 0 0)
(127.191 0 0)
(128.099 0 0)
(129.008 0 0)
(129.918 0 0)
(130.827 0 0)
(131.736 0 0)
(132.645 0 0)
(133.552 0 0)
(134.459 0 0)
(135.364 0 0)
(136.268 0 0)
(137.17 0 0)
(138.071 0 0)
(138.969 0 0)
(139.865 0 0)
(140.759 0 0)
(141.65 0 0)
(142.538 0 0)
(143.424 0 0)
(144.306 0 0)
(145.186 0 0)
(146.062 0 0)
(146.935 0 0)
(147.804 0 0)
(148.67 0 0)
(149.532 0 0)
(150.39 0 0)
(151.245 0 0)
(152.095 0 0)
(152.942 0 0)
(153.784 0 0)
(154.623 0 0)
(155.456 0 0)
(156.286 0 0)
(157.111 0 0)
(157.932 0 0)
(158.748 0 0)
(159.559 0 0)
(160.366 0 0)
(161.168 0 0)
(161.965 0 0)
(162.758 0 0)
(163.545 0 0)
(164.33 0 0)
(165.101 0 0)
(165.894 0 0)
(166.599 0 0)
(167.558 0 0)
(103.27 0 0)
(103.773 0 0)
(104.311 0 0)
(104.883 0 0)
(105.486 0 0)
(106.116 0 0)
(106.772 0 0)
(107.452 0 0)
(108.152 0 0)
(108.873 0 0)
(109.612 0 0)
(110.367 0 0)
(111.137 0 0)
(111.92 0 0)
(112.716 0 0)
(113.524 0 0)
(114.342 0 0)
(115.169 0 0)
(116.004 0 0)
(116.848 0 0)
(117.698 0 0)
(118.554 0 0)
(119.416 0 0)
(120.282 0 0)
(121.154 0 0)
(122.028 0 0)
(122.906 0 0)
(123.787 0 0)
(124.671 0 0)
(125.556 0 0)
(126.443 0 0)
(127.331 0 0)
(128.22 0 0)
(129.11 0 0)
(130 0 0)
(130.89 0 0)
(131.779 0 0)
(132.668 0 0)
(133.557 0 0)
(134.444 0 0)
(135.33 0 0)
(136.215 0 0)