/*--------------------------------*- C++ -*----------------------------------*\
| =========                 |                                                 |
| \\      /  F ield         | OpenFOAM: The Open Source CFD Toolbox           |
|  \\    /   O peration     | Version:  2312                                  |
|   \\  /    A nd           | Website:  www.openfoam.com                      |
|    \\/     M anipulation  |                                                 |
\*---------------------------------------------------------------------------*/
FoamFile
{
    version     2.0;
    format      ascii;
    arch        "LSB;label=32;scalar=64";
    class       surfaceScalarField;
    location    "0.809";
    object      phi;
}
// * * * * * * * * * * * * * * * * * * * * * * * * * * * * * * * * * * * * * //

dimensions      [0 3 -1 0 0 0 0];

oriented        oriented;

internalField   nonuniform List<scalar> 
62015
(
55.2654
0.107723
-56.3286
54.1776
0.103664
53.064
0.0995844
51.9224
0.0954871
50.7506
0.0913757
49.5464
0.0872532
48.3072
0.0831239
47.0308
0.0789918
45.715
0.0748629
44.3584
0.0707433
42.9611
0.0666424
41.526
0.0625731
40.0612
0.0585544
38.5824
0.0546139
37.1161
0.0507898
35.699
0.0471298
34.3746
0.0436847
33.1849
0.0404972
32.1623
0.0375921
31.3235
0.034971
30.6693
0.0326134
30.188
0.0304838
29.8601
0.02854
29.6634
0.0267397
29.5761
0.0250441
29.5786
0.0234206
29.6542
0.0218424
29.7891
0.0202883
29.9722
0.0187416
30.1946
0.0171892
30.449
0.0156214
30.7299
0.0140304
31.0327
0.0124106
31.3537
0.0107572
31.69
0.00906726
32.0393
0.00733785
32.3996
0.00556753
32.7693
0.00375502
33.1471
0.00189919
33.532
0
33.9231
-0.0019429
34.3196
-0.0039296
34.721
-0.0059594
35.1267
-0.00803214
35.5363
-0.0101473
35.9495
-0.0123036
36.3658
-0.0145009
36.7852
-0.0167376
37.2074
-0.0190131
37.6322
-0.0213263
38.0595
-0.0236756
38.4891
-0.0260601
38.9209
-0.0284783
39.3549
-0.0309292
39.791
-0.0334109
40.2292
-0.0359224
40.6693
-0.0384619
41.1114
-0.041028
41.5554
-0.0436193
42.0014
-0.0462339
42.4492
-0.0488705
42.8989
-0.0515273
43.3505
-0.0542026
43.804
-0.0568947
44.2593
-0.0596022
44.7165
-0.062323
45.1756
-0.0650556
45.6365
-0.067798
46.0994
-0.0705487
46.5641
-0.0733057
47.0307
-0.0760674
47.4992
-0.0788315
47.9694
-0.0815973
48.4422
-0.0843608
48.9148
-0.0871252
49.3955
-0.0898742
49.8592
-0.0926503
50.3828
-0.0953138
-0.0982938
50.7305
52.608
0.208152
-53.6387
51.5527
0.200229
50.472
0.192266
49.3641
0.18427
48.2267
0.176248
47.0578
0.168205
45.8553
0.160152
44.6172
0.152098
43.3421
0.144055
42.0297
0.136039
40.6818
0.128074
39.3042
0.120191
37.9084
0.112437
36.5147
0.104877
35.153
0.0975952
33.8605
0.0906859
32.6766
0.0842368
31.635
0.0783099
30.7576
0.0729275
30.0518
0.0680689
29.512
0.0636798
29.1238
0.0596862
28.868
0.0560081
28.7245
0.0525691
28.6743
0.0493019
28.7008
0.0461504
28.7899
0.0430684
28.9301
0.0400201
29.1121
0.0369765
29.3283
0.033916
29.5727
0.0308209
29.8405
0.0276783
30.1278
0.0244777
30.4315
0.0212118
30.749
0.0178742
31.0783
0.0144609
31.4177
0.0109687
31.7657
0.00739518
32.1213
0.00373925
32.4835
0
32.8515
-0.00382277
33.2246
-0.00772882
33.6024
-0.0117176
33.9843
-0.0157882
34.3699
-0.0199392
34.759
-0.0241694
35.1512
-0.0284769
35.5463
-0.0328601
35.9442
-0.0373169
36.3447
-0.0418451
36.7475
-0.0464423
37.1527
-0.0511065
37.5602
-0.0558347
37.9697
-0.0606247
38.3814
-0.0654734
38.7951
-0.0703784
39.2108
-0.0753368
39.6284
-0.0803454
40.048
-0.0854013
40.4694
-0.0905017
40.8928
-0.0956432
41.318
-0.100823
41.7451
-0.106037
42.1741
-0.111283
42.6049
-0.116558
43.0376
-0.121857
43.4721
-0.127178
43.9085
-0.132517
44.3467
-0.137871
44.7869
-0.143236
45.2288
-0.14861
45.6727
-0.153987
46.1183
-0.159366
46.5663
-0.16474
47.0143
-0.170114
47.4699
-0.175459
47.9098
-0.180853
48.4056
-0.186033
-0.19181
48.739
50.0084
0.301339
-51.0091
48.9835
0.289739
47.9337
0.278082
46.8573
0.266379
45.7523
0.254639
44.6169
0.242874
43.4492
0.231098
42.2481
0.21933
41.0131
0.20759
39.7455
0.195909
38.4494
0.184331
37.134
0.172914
35.815
0.161746
34.5166
0.150936
33.2705
0.140612
32.1119
0.130905
31.0736
0.121915
30.1797
0.113697
29.4422
0.106244
28.8608
0.0994979
28.4257
0.0933662
28.1213
0.0877393
27.9296
0.0825068
27.833
0.0775681
27.8152
0.0728365
27.8625
0.0682396
27.963
0.0637199
28.1074
0.0592308
28.2877
0.0547363
28.4977
0.0502079
28.7325
0.0456234
28.9878
0.0409658
29.2605
0.0362218
29.5478
0.0313813
29.8476
0.0264365
30.1581
0.021382
30.4778
0.0162134
30.8054
0.0109278
31.1401
0.00552366
31.4809
0
31.8271
-0.00564339
32.1782
-0.0114061
32.5337
-0.0172873
32.8931
-0.0232852
33.2561
-0.0293982
33.6225
-0.0356245
33.9919
-0.0419612
34.3641
-0.0484059
34.739
-0.0549556
35.1164
-0.0616072
35.4963
-0.0683574
35.8784
-0.0752028
36.2627
-0.0821395
36.6491
-0.0891639
37.0377
-0.0962722
37.4282
-0.10346
37.8207
-0.110724
38.2152
-0.118059
38.6116
-0.125461
39.0098
-0.132926
39.41
-0.140449
39.812
-0.148026
40.2159
-0.155651
40.6216
-0.163321
41.0292
-0.171031
41.4386
-0.178775
41.8498
-0.186549
42.2629
-0.194348
42.6778
-0.202167
43.0946
-0.21
43.5132
-0.217844
43.9337
-0.225692
44.3558
-0.233541
44.7803
-0.241382
45.205
-0.249221
45.6368
-0.257017
46.054
-0.26488
46.5233
-0.272439
-0.280841
46.8419
47.4936
0.387495
-48.4659
46.4975
0.372397
45.4771
0.357229
44.4308
0.342002
43.3568
0.326732
42.2537
0.311438
41.1202
0.29614
39.956
0.280867
38.762
0.265654
37.5414
0.250554
36.3014
0.235638
35.0548
0.221005
33.8214
0.206785
32.6277
0.193136
31.505
0.18022
30.4836
0.168177
29.5884
0.157095
28.8341
0.146993
28.2245
0.137823
27.754
0.129484
27.4103
0.121847
27.178
0.114773
27.041
0.108132
26.9839
0.101806
26.9933
0.0956984
27.0576
0.0897265
27.1672
0.0838256
27.3142
0.0779436
27.4922
0.0720395
27.696
0.066081
27.9213
0.060043
28.1648
0.0539058
28.4237
0.0476541
28.6956
0.0412763
28.9787
0.0347632
29.2716
0.0281087
29.5728
0.0213076
29.8814
0.0143571
30.1964
0.0072548
30.5171
0
30.8429
-0.0074074
31.1733
-0.0149667
31.5079
-0.0226766
31.8462
-0.030535
32.1879
-0.0385401
32.5329
-0.0466884
32.8808
-0.0549773
33.2314
-0.0634032
33.5847
-0.0719622
33.9404
-0.0806505
34.2985
-0.0894636
34.6589
-0.098397
35.0214
-0.107446
35.386
-0.116606
35.7527
-0.125873
36.1213
-0.135239
36.492
-0.144701
36.8645
-0.154254
37.239
-0.16389
37.6153
-0.173605
37.9935
-0.183393
38.3735
-0.193248
38.7554
-0.203164
39.1391
-0.213135
39.5246
-0.223155
39.912
-0.233218
40.3012
-0.243317
40.6922
-0.253446
41.085
-0.263599
41.4796
-0.273769
41.876
-0.28395
42.2743
-0.294135
42.6742
-0.304318
43.0764
-0.31449
43.4789
-0.324657
43.888
-0.334766
44.2838
-0.344959
44.7282
-0.354763
-0.365635
45.0317
45.0731
0.466867
-46.018
44.1048
0.448445
43.1128
0.429941
42.0958
0.411372
41.0522
0.392759
39.9812
0.374129
38.8822
0.355513
37.7561
0.336953
36.6054
0.318509
35.4361
0.300261
34.2586
0.282319
33.0891
0.264828
31.9503
0.247965
30.8691
0.231921
29.8735
0.21687
28.9875
0.202935
28.2275
0.190166
27.6003
0.178531
27.1037
0.167936
26.7287
0.158238
26.4623
0.14928
26.2903
0.140904
26.1983
0.132967
26.1736
0.125344
26.2047
0.117931
26.2823
0.110642
26.3984
0.103408
26.5464
0.0961753
26.7212
0.0888995
26.9184
0.0815463
27.1344
0.0740889
27.3664
0.0665063
27.6121
0.0587817
27.8694
0.0509029
28.1369
0.04286
28.4131
0.0346459
28.697
0.0262557
28.9876
0.0176858
29.2842
0.00893409
29.586
0
29.8927
-0.00911645
30.2037
-0.0184144
30.5185
-0.0278919
30.837
-0.0375465
31.1588
-0.0473757
31.4836
-0.0573758
31.8113
-0.0675431
32.1416
-0.0778731
32.4745
-0.0883615
32.8098
-0.0990035
33.1474
-0.109794
33.4872
-0.120727
33.8291
-0.131797
34.1731
-0.142999
34.5192
-0.154326
34.8672
-0.165772
35.2171
-0.177331
35.569
-0.188996
35.9227
-0.20076
36.2783
-0.212617
36.6357
-0.224559
36.9949
-0.23658
37.356
-0.248672
37.7189
-0.260828
38.0836
-0.27304
38.45
-0.285302
38.8183
-0.297605
39.1883
-0.309942
39.5602
-0.322304
39.9338
-0.334685
40.3092
-0.347077
40.6864
-0.359471
41.0652
-0.371862
41.4463
-0.384234
41.8276
-0.3966
42.2154
-0.408893
42.5906
-0.421283
43.0116
-0.433207
-0.446401
43.3002
42.7483
0.539698
-43.6668
41.807
0.518121
40.8429
0.496455
39.8547
0.474724
38.8415
0.452956
37.8031
0.431188
36.7399
0.409468
35.6543
0.387861
34.5511
0.366453
33.439
0.345365
32.3317
0.324752
31.2481
0.304807
30.2117
0.285743
29.2475
0.26776
28.3786
0.251016
27.6216
0.235593
26.9856
0.221483
26.471
0.208602
26.0717
0.196809
25.7773
0.185932
25.5753
0.175794
25.4526
0.166227
25.3972
0.157082
25.3983
0.148232
25.4464
0.139571
25.5339
0.131013
25.6541
0.122488
25.8018
0.113942
25.9725
0.105328
26.1628
0.0966135
26.3696
0.0877697
26.5904
0.0787746
26.8234
0.0696116
27.0669
0.0602675
27.3195
0.0507322
27.58
0.0409984
27.8475
0.031061
28.1212
0.0209166
28.4005
0.0105631
28.6846
0
28.9733
-0.0107724
29.266
-0.0217527
29.5624
-0.0329386
29.8622
-0.0443276
30.1651
-0.0559158
30.471
-0.0676997
30.7796
-0.0796744
31.0908
-0.091835
31.4045
-0.104176
31.7206
-0.116693
32.0388
-0.129378
32.3593
-0.142226
32.6818
-0.155231
33.0064
-0.168384
33.333
-0.18168
33.6615
-0.195112
33.9919
-0.20867
34.3241
-0.222349
34.6583
-0.23614
34.9942
-0.250035
35.332
-0.264027
35.6716
-0.278106
36.013
-0.292266
36.3561
-0.306496
36.7011
-0.320788
37.0478
-0.335135
37.3962
-0.349527
37.7464
-0.363955
38.0984
-0.37841
38.4521
-0.392884
38.8076
-0.407367
39.1648
-0.421849
39.5236
-0.436325
39.8847
-0.450777
40.246
-0.465217
40.6134
-0.479571
40.9691
-0.494033
41.3679
-0.507957
-0.523333
41.6422
40.5174
0.606217
-41.41
39.6026
0.581654
38.666
0.557
37.7068
0.532289
36.7246
0.50756
35.72
0.482866
34.695
0.458277
33.6537
0.433886
32.6034
0.409821
31.5556
0.386247
30.5266
0.363366
29.5367
0.341408
28.608
0.320597
27.7619
0.301118
27.0151
0.283084
26.3776
0.266516
25.8523
0.251348
25.4353
0.237443
25.1186
0.224626
24.8915
0.212705
24.7422
0.201492
24.6597
0.190817
24.6336
0.180532
24.6549
0.17051
24.716
0.160648
24.8104
0.150862
24.9329
0.141083
25.079
0.131256
25.245
0.121338
25.4281
0.111293
25.6257
0.101094
25.8358
0.0907188
26.0566
0.0801505
26.2869
0.0693759
26.5253
0.0583852
26.771
0.0471707
27.0231
0.0357275
27.2809
0.0240522
27.5438
0.0121433
27.8113
0
28.083
-0.0123767
28.3585
-0.024985
28.6375
-0.0378226
28.9197
-0.0508858
29.205
-0.064171
29.493
-0.0776731
29.7837
-0.0913873
30.0769
-0.105308
30.3725
-0.119429
30.6704
-0.133744
30.9705
-0.148247
31.2727
-0.162929
31.5769
-0.177784
31.8832
-0.192805
32.1913
-0.207982
32.5014
-0.223308
32.8134
-0.238775
33.1272
-0.254373
33.4428
-0.270095
33.7602
-0.285931
34.0795
-0.301871
34.4004
-0.317908
34.7232
-0.334031
35.0477
-0.350231
35.3739
-0.366497
35.7019
-0.382822
36.0316
-0.399193
36.363
-0.415602
36.6962
-0.432039
37.031
-0.448492
37.3676
-0.464953
37.7059
-0.48141
38.0458
-0.497855
38.3878
-0.51427
38.7301
-0.530668
39.0782
-0.546968
39.4154
-0.563382
39.7932
-0.579194
-0.596619
40.0538
38.3774
0.666647
-39.2446
37.489
0.639266
36.5801
0.611803
35.6504
0.584302
34.7004
0.55682
33.7319
0.529432
32.7485
0.502237
31.7565
0.475369
30.7657
0.449
29.79
0.423341
28.847
0.398632
27.9564
0.375116
27.1375
0.353002
26.4065
0.332431
25.774
0.313452
25.2443
0.296018
24.8157
0.280008
24.4821
0.265246
24.2346
0.251532
24.0628
0.238665
23.9566
0.226455
23.9064
0.214736
23.9035
0.203362
23.9406
0.192213
24.0113
0.18119
24.1104
0.17021
24.2335
0.159209
24.377
0.148133
24.5379
0.136939
24.7136
0.125594
24.9021
0.11407
25.1017
0.102346
25.3109
0.0904056
25.5286
0.078235
25.7537
0.0658248
25.9854
0.0531677
26.2229
0.040259
26.4657
0.0270955
26.7132
0.0136758
26.965
0
27.2207
-0.013931
27.48
-0.028115
27.7427
-0.042549
28.0084
-0.0572292
28.2769
-0.0721509
28.5482
-0.0873089
28.8221
-0.102698
29.0983
-0.118311
29.3769
-0.134142
29.6577
-0.150183
29.9406
-0.166428
30.2255
-0.182868
30.5125
-0.199494
30.8014
-0.2163
31.0923
-0.233275
31.385
-0.25041
31.6795
-0.267697
31.9759
-0.285126
32.274
-0.302687
32.5739
-0.320371
32.8756
-0.338166
33.179
-0.356063
33.4841
-0.374052
33.791
-0.392122
34.0995
-0.410262
34.4098
-0.428462
34.7217
-0.44671
35.0354
-0.464995
35.3507
-0.483307
35.6677
-0.501634
35.9863
-0.519965
36.3067
-0.538288
36.6286
-0.556593
36.9525
-0.574863
37.2769
-0.593109
37.6067
-0.611243
37.9263
-0.629497
38.2842
-0.647089
-0.666438
38.5318
36.3258
0.72121
-37.1677
35.4639
0.691184
34.5832
0.661099
33.6842
0.631014
32.7686
0.60101
31.8394
0.571192
30.9023
0.541697
29.9657
0.512705
29.0416
0.484432
28.1453
0.457128
27.2941
0.431048
26.5056
0.406421
25.7948
0.383411
25.1726
0.362091
24.6442
0.342442
24.2096
0.324355
23.8642
0.307661
23.6008
0.29216
23.4106
0.277639
23.2842
0.263896
23.2128
0.250747
23.1884
0.23803
23.2037
0.225609
23.2528
0.213369
23.3305
0.201216
23.4324
0.189074
23.5549
0.17688
23.695
0.164583
23.8503
0.152143
24.0186
0.139526
24.1982
0.126707
24.3877
0.113665
24.5858
0.100384
24.7915
0.0868509
25.0039
0.0730564
25.2223
0.0589941
25.4461
0.0446592
25.6747
0.0300491
25.9078
0.0151625
26.1448
0
26.3855
-0.015437
26.6296
-0.0311461
26.8768
-0.0471234
27.127
-0.063365
27.3799
-0.0798656
27.6354
-0.0966196
27.8933
-0.113621
28.1536
-0.130861
28.4161
-0.148335
28.6808
-0.166034
28.9475
-0.18395
29.2162
-0.202073
29.4869
-0.220396
29.7595
-0.238909
30.034
-0.257602
30.3103
-0.276466
30.5884
-0.29549
30.8683
-0.314665
31.1499
-0.333979
31.4332
-0.353421
31.7183
-0.372981
32.0051
-0.392648
32.2936
-0.41241
32.5837
-0.432256
32.8755
-0.452173
33.169
-0.472152
33.4642
-0.492178
33.761
-0.512241
34.0594
-0.532328
34.3595
-0.552428
34.6612
-0.572527
34.9645
-0.592614
35.2694
-0.612677
35.5763
-0.632696
35.8835
-0.652686
36.196
-0.67255
36.4989
-0.692537
36.8379
-0.711809
-0.732962
37.0732
34.3601
0.770133
-35.1766
33.5253
0.737648
32.6741
0.705145
31.8078
0.672707
30.9296
0.640446
30.0441
0.608503
29.1589
0.577063
28.2845
0.546348
27.4341
0.516613
26.623
0.488124
25.8669
0.461121
25.1798
0.43579
24.5722
0.412227
24.05
0.390433
23.6141
0.37032
23.2617
0.351729
22.9869
0.334462
22.782
0.318301
22.6388
0.303035
22.5493
0.288465
22.5059
0.274416
22.5019
0.260738
22.5315
0.247301
22.5895
0.234
22.6719
0.220747
22.7751
0.20747
22.896
0.19411
23.0322
0.180619
23.1817
0.166959
23.3426
0.153099
23.5135
0.139013
23.6932
0.124683
23.8807
0.110093
24.075
0.0952296
24.2754
0.0800859
24.4813
0.0646547
24.6921
0.0489319
24.9074
0.0329155
25.1268
0.0166045
25.3499
0
25.5765
-0.0168963
25.8063
-0.0340814
26.039
-0.0515512
26.2745
-0.0693008
26.5127
-0.087325
26.7533
-0.105617
26.9962
-0.12417
27.2415
-0.142977
27.4889
-0.16203
27.7383
-0.18132
27.9898
-0.200839
28.2433
-0.220576
28.4986
-0.240523
28.7558
-0.26067
29.0148
-0.281006
29.2756
-0.301521
29.5382
-0.322203
29.8025
-0.343042
30.0685
-0.364026
30.3362
-0.385144
30.6056
-0.406384
30.8767
-0.427733
31.1494
-0.44918
31.4238
-0.470712
31.6998
-0.492318
31.9774
-0.513983
32.2566
-0.535695
32.5375
-0.557442
32.82
-0.57921
33.104
-0.600986
33.3897
-0.622758
33.6769
-0.64451
33.9656
-0.666233
34.2563
-0.687905
34.5474
-0.709539
34.8434
-0.731034
35.1305
-0.752655
35.4516
-0.773511
-0.796355
35.6752
32.4788
0.813663
-33.2692
31.6722
0.778922
30.8523
0.744233
30.0218
0.709708
29.1851
0.675497
28.3486
0.641787
27.5217
0.608806
26.716
0.576812
25.945
0.546076
25.2226
0.516851
24.5617
0.489334
23.9721
0.463643
23.46
0.439799
23.0273
0.417732
22.6721
0.397297
22.3898
0.378301
22.1739
0.360527
22.0173
0.343758
21.9126
0.327785
21.8529
0.312421
21.8318
0.297503
21.8439
0.28289
21.8843
0.268465
21.9489
0.254128
22.0342
0.239799
22.1374
0.225412
22.256
0.21091
22.3879
0.196251
22.5314
0.181397
22.685
0.16632
22.8474
0.150996
23.0178
0.135407
23.195
0.119538
23.3785
0.103378
23.5676
0.0869182
23.7616
0.0701538
23.9602
0.0530807
24.163
0.0356974
24.3695
0.0180034
24.5796
0
24.7928
-0.0183104
25.0091
-0.0369242
25.2282
-0.0558369
25.45
-0.0750436
25.6742
-0.0945378
25.9008
-0.114313
26.1297
-0.134361
26.3608
-0.154675
26.5939
-0.175245
26.8291
-0.196064
27.0662
-0.21712
27.3052
-0.238405
27.5461
-0.259908
27.7888
-0.281618
28.0332
-0.303525
28.2794
-0.325617
28.5273
-0.347883
28.7769
-0.37031
29.0282
-0.392886
29.2811
-0.4156
29.5357
-0.438438
29.7919
-0.461388
30.0497
-0.484436
30.3092
-0.50757
30.5702
-0.530777
30.8328
-0.554042
31.097
-0.577352
31.3628
-0.600694
31.6301
-0.624053
31.899
-0.647416
32.1694
-0.670769
32.4414
-0.694096
32.7148
-0.717387
32.9901
-0.740617
33.2659
-0.763802
33.5464
-0.786836
33.8185
-0.809993
34.1226
-0.832344
-0.856773
34.335
30.6807
0.852071
-31.4438
29.9043
0.815308
29.1187
0.778702
28.3278
0.742403
27.5376
0.706604
26.7562
0.671535
25.9938
0.637459
25.2623
0.604648
24.5743
0.573361
23.9412
0.543808
23.3723
0.516121
22.8736
0.490339
22.4477
0.466409
22.0934
0.444202
21.8073
0.423532
21.5839
0.404188
21.4169
0.385948
21.2998
0.368598
21.2263
0.351942
21.1904
0.335806
21.1871
0.320039
21.2116
0.304512
21.2602
0.289119
21.3293
0.273768
21.4162
0.258386
21.5185
0.242911
21.6341
0.227292
21.7614
0.211488
21.8988
0.195466
22.0452
0.179199
22.1995
0.162664
22.3608
0.145844
22.5284
0.128727
22.7016
0.111301
22.8799
0.0935588
23.0628
0.075496
23.2499
0.0571091
23.4408
0.0383971
23.6352
0.0193602
23.833
0
24.0337
-0.0196806
24.2373
-0.0396775
24.4436
-0.0599859
24.6523
-0.0805999
24.8635
-0.101513
25.077
-0.122718
25.2926
-0.144206
25.5103
-0.16597
25.73
-0.188
25.9517
-0.210286
26.1753
-0.232819
26.4007
-0.255587
26.6279
-0.278581
26.8569
-0.301788
27.0876
-0.325197
27.32
-0.348796
27.5541
-0.372573
27.7898
-0.396515
28.0271
-0.42061
28.2661
-0.444844
28.5067
-0.469204
28.7489
-0.493676
28.9926
-0.518247
29.2379
-0.542902
29.4848
-0.567629
29.7332
-0.592412
29.9832
-0.617237
30.2347
-0.64209
30.4877
-0.666956
30.7422
-0.69182
30.9982
-0.716667
31.2558
-0.741482
31.5147
-0.766253
31.7754
-0.790955
32.0367
-0.815602
32.3023
-0.840086
32.5603
-0.864691
32.8482
-0.888449
-0.914363
33.0501
28.9658
0.885673
-29.6997
28.2225
0.847163
27.4749
0.808958
26.7284
0.771252
25.9903
0.734277
25.2697
0.698297
24.5771
0.663589
23.9235
0.630412
23.3193
0.598983
22.773
0.569445
22.2904
0.541852
21.8743
0.516168
21.5242
0.492277
21.2375
0.470005
21.0096
0.449146
20.8352
0.429479
20.7084
0.410788
20.6235
0.392871
20.5751
0.375544
20.5583
0.358649
20.5688
0.342048
20.6029
0.325625
20.6574
0.309281
20.7294
0.292936
20.8168
0.27652
20.9174
0.259979
21.0296
0.243265
21.1521
0.22634
21.2835
0.209175
21.4228
0.191742
21.5692
0.174023
21.7219
0.156002
21.8803
0.137665
22.0438
0.119004
22.2119
0.100013
22.3842
0.0806855
22.5604
0.0610207
22.7402
0.0410173
22.9232
0.0206763
23.1093
0
23.2983
-0.0210084
23.49
-0.0423444
23.6842
-0.0640025
23.8807
-0.0859764
24.0796
-0.108259
24.2807
-0.130843
24.4838
-0.153719
24.6889
-0.176878
24.896
-0.200311
25.105
-0.224008
25.3158
-0.247958
25.5284
-0.272149
25.7427
-0.296571
25.9588
-0.321211
26.1765
-0.346057
26.3959
-0.371097
26.6169
-0.396318
26.8395
-0.421706
27.0638
-0.447248
27.2895
-0.47293
27.5169
-0.498739
27.7458
-0.52466
27.9762
-0.550678
28.2082
-0.57678
28.4417
-0.602949
28.6767
-0.629172
28.9131
-0.655433
29.1511
-0.681718
29.3906
-0.708009
29.6315
-0.734293
29.8739
-0.760554
30.1177
-0.786775
30.363
-0.812943
30.6099
-0.839033
30.8574
-0.86506
31.1091
-0.89091
31.3535
-0.916877
31.6262
-0.941963
-0.969267
31.8181
27.3351
0.914846
-28.0371
26.6284
0.874913
25.9235
0.835482
25.2267
0.796785
24.5463
0.759087
23.8915
0.722661
23.272
0.68777
22.6973
0.654633
22.1749
0.623401
21.7104
0.594138
21.3065
0.566822
20.9633
0.541351
20.6789
0.517563
20.4494
0.495259
20.2702
0.474223
20.1362
0.454238
20.0422
0.435097
19.9833
0.416614
19.9549
0.398621
19.9532
0.380975
19.9745
0.363551
20.0158
0.346244
20.0744
0.328967
20.1481
0.311644
20.235
0.294214
20.3334
0.276627
20.4419
0.258839
20.5594
0.240817
20.6848
0.222531
20.8173
0.203959
20.9561
0.185082
21.1005
0.165886
21.2501
0.14636
21.4044
0.126495
21.5629
0.106285
21.7252
0.0857267
21.8912
0.0648184
22.0604
0.0435601
22.2328
0.0219531
22.408
0
22.5859
-0.0222952
22.7663
-0.0449275
22.9491
-0.0678912
23.1342
-0.0911791
23.3215
-0.114784
23.5109
-0.138698
23.7023
-0.162911
23.8956
-0.187414
24.0907
-0.212197
24.2878
-0.237249
24.4865
-0.262559
24.687
-0.288115
24.8892
-0.313906
25.0931
-0.339918
25.2986
-0.36614
25.5057
-0.392557
25.7144
-0.419157
25.9246
-0.445925
26.1364
-0.472848
26.3498
-0.499911
26.5646
-0.527099
26.781
-0.554398
26.9989
-0.581793
27.2182
-0.609268
27.439
-0.636808
27.6613
-0.664397
27.885
-0.692019
28.1102
-0.71966
28.3368
-0.747301
28.5649
-0.774929
28.7944
-0.802525
29.0253
-0.830074
29.2575
-0.857562
29.4914
-0.884961
29.7258
-0.912288
29.9642
-0.939426
30.1959
-0.966675
30.4541
-0.993012
-1.02162
30.6365
25.7904
0.940037
-26.4568
25.1248
0.899063
24.4674
0.85883
23.8256
0.819598
23.2074
0.78164
22.6217
0.745216
22.0765
0.710546
21.579
0.677783
21.134
0.647
20.7443
0.618187
20.4103
0.591253
20.1305
0.566048
19.9018
0.542383
19.7202
0.520046
19.5813
0.498823
19.4803
0.478507
19.4129
0.458908
19.3749
0.439855
19.3626
0.421197
19.3726
0.402804
19.4021
0.384565
19.4486
0.366386
19.51
0.348188
19.5843
0.329904
19.67
0.311478
19.7657
0.292864
19.8703
0.274023
19.9828
0.254925
20.1023
0.235543
20.2282
0.215856
20.3597
0.195847
20.4963
0.175504
20.6375
0.154817
20.783
0.133777
20.9324
0.11238
21.0854
0.0906233
21.2417
0.0685059
21.401
0.0460278
21.5632
0.0231915
21.7282
0
21.8956
-0.0235423
22.0655
-0.0474298
22.2376
-0.0716562
22.4119
-0.0962142
22.5883
-0.121096
22.7667
-0.146292
22.947
-0.171794
23.1292
-0.197591
23.3131
-0.223672
23.4989
-0.250027
23.6863
-0.276643
23.8754
-0.30351
24.0662
-0.330613
24.2585
-0.35794
24.4525
-0.385477
24.648
-0.413212
24.8451
-0.441129
25.0437
-0.469215
25.2437
-0.497455
25.4453
-0.525834
25.6484
-0.554336
25.8529
-0.582947
26.0588
-0.61165
26.2663
-0.64043
26.4751
-0.669271
26.6854
-0.698157
26.897
-0.72707
27.1101
-0.755995
27.3246
-0.784915
27.5405
-0.813813
27.7577
-0.842673
27.9764
-0.871477
28.1963
-0.900209
28.4178
-0.928845
28.6399
-0.957397
28.8657
-0.985748
29.0853
-1.0142
29.3298
-1.04172
-1.07154
29.5031
24.3342
0.96178
-24.9609
23.7144
0.920194
23.1096
0.879617
22.5269
0.840314
21.9741
0.802542
21.4584
0.766517
20.9861
0.732394
20.5616
0.70025
20.1876
0.670083
19.8647
0.641813
19.5915
0.615302
19.3658
0.59037
19.184
0.566812
19.0421
0.544419
18.9361
0.522985
18.8621
0.502319
18.8161
0.482247
18.7948
0.462615
18.7951
0.443288
18.8142
0.424151
18.8499
0.405104
18.9001
0.386063
18.963
0.366957
19.0371
0.347727
19.1211
0.328322
19.2138
0.3087
19.3144
0.288827
19.4219
0.268674
19.5356
0.248219
19.655
0.227441
19.7795
0.206326
19.9086
0.184863
20.042
0.163041
20.1792
0.140856
20.32
0.118303
20.4641
0.0953797
20.6112
0.0720858
20.7613
0.0484227
20.914
0.0243929
21.0692
0
21.2269
-0.0247509
21.3868
-0.0498537
21.5489
-0.0753018
21.713
-0.101087
21.8791
-0.127202
22.0472
-0.153636
22.2171
-0.180379
22.3887
-0.207422
22.5621
-0.234753
22.7372
-0.26236
22.914
-0.290232
23.0924
-0.318355
23.2724
-0.346716
23.4539
-0.375303
23.637
-0.4041
23.8215
-0.433095
24.0076
-0.462271
24.1952
-0.491616
24.3842
-0.521112
24.5746
-0.550745
24.7665
-0.5805
24.9599
-0.610359
25.1546
-0.640307
25.3507
-0.670327
25.5483
-0.700404
25.7472
-0.730519
25.9475
-0.760657
26.1491
-0.7908
26.3521
-0.82093
26.5564
-0.851031
26.7621
-0.881084
26.9691
-0.911073
27.1774
-0.940981
27.3872
-0.970782
27.5976
-1.00049
27.8115
-1.02998
28.0196
-1.05957
28.2512
-1.0882
-1.11916
28.4159
22.9695
0.980682
-23.552
22.4001
0.938946
21.8516
0.898488
21.331
0.859554
20.8444
0.822357
20.3975
0.787047
19.9942
0.753707
19.6369
0.722336
19.3264
0.692867
19.0616
0.66517
18.8406
0.639074
18.6604
0.614385
18.5174
0.590898
18.4083
0.568411
18.3292
0.546734
18.2768
0.525693
18.248
0.50513
18.24
0.484909
18.2501
0.46491
18.2762
0.445029
18.3164
0.42518
18.369
0.405286
18.4326
0.385285
18.5058
0.365122
18.5876
0.344755
18.6771
0.324143
18.7735
0.303258
18.8761
0.282072
18.9842
0.260566
19.0974
0.238721
19.2152
0.216525
19.3372
0.193967
19.463
0.17104
19.5924
0.147738
19.7251
0.124058
19.8608
0.0999994
19.9994
0.0755616
20.1406
0.0507468
20.2844
0.0255582
20.4305
0
20.5789
-0.0259223
20.7295
-0.052202
20.8821
-0.078832
21.0367
-0.105804
21.1931
-0.133109
21.3514
-0.160737
21.5115
-0.188679
21.6733
-0.216921
21.8368
-0.245455
22.0019
-0.274266
22.1686
-0.303343
22.3368
-0.332673
22.5066
-0.362241
22.6779
-0.392035
22.8507
-0.422038
23.025
-0.452238
23.2007
-0.482619
23.3779
-0.513165
23.5564
-0.54386
23.7364
-0.57469
23.9178
-0.605637
24.1005
-0.636685
24.2846
-0.667817
24.4701
-0.699017
24.6569
-0.730267
24.8451
-0.76155
25.0346
-0.792848
25.2254
-0.824144
25.4175
-0.85542
25.611
-0.886659
25.8057
-0.917841
26.0017
-0.948949
26.199
-0.979967
26.3977
-1.01087
26.597
-1.04166
26.7996
-1.07223
26.9968
-1.10289
27.2161
-1.13256
-1.16458
27.3727
21.6988
0.997406
-22.2328
21.1833
0.95598
20.6938
0.916073
20.2358
0.877887
19.8142
0.841569
19.4324
0.807199
19.0926
0.774781
18.7956
0.744254
18.5405
0.715498
18.3257
0.688352
18.1486
0.66263
18.0062
0.638134
17.8954
0.614667
17.8129
0.592043
17.7556
0.570087
17.7207
0.548642
17.7056
0.52757
17.7079
0.506749
17.7257
0.486073
17.757
0.465449
17.8004
0.444802
17.8543
0.424064
17.9178
0.403179
17.9896
0.3821
18.069
0.360786
18.1551
0.339203
18.2474
0.317324
18.3451
0.295127
18.4477
0.272592
18.555
0.249703
18.6663
0.226451
18.7815
0.202825
18.9002
0.178818
19.0222
0.154428
19.1472
0.12965
19.275
0.104486
19.4055
0.0789361
19.5385
0.0530023
19.6738
0.0266886
19.8114
0
19.9511
-0.0270576
20.0929
-0.054477
20.2366
-0.0822506
20.3821
-0.11037
20.5295
-0.138825
20.6787
-0.167605
20.8295
-0.196701
20.982
-0.226101
21.1361
-0.255791
21.2917
-0.285761
21.4489
-0.315996
21.6077
-0.346484
21.7679
-0.377211
21.9296
-0.408161
22.0927
-0.43932
22.2572
-0.470673
22.4231
-0.502205
22.5905
-0.533899
22.7592
-0.565739
22.9293
-0.597709
23.1007
-0.629793
23.2734
-0.661973
23.4475
-0.694232
23.6229
-0.726553
23.7996
-0.758917
23.9776
-0.791308
24.1569
-0.823707
24.3375
-0.856097
24.5194
-0.888458
24.7025
-0.920772
24.8868
-0.953022
25.0724
-0.985188
25.2592
-1.01725
25.4474
-1.04919
25.6362
-1.08101
25.8282
-1.1126
26.0151
-1.14425
26.2228
-1.17491
-1.20793
26.3716
20.5234
1.01263
-21.0058
20.0641
0.971936
19.634
0.932946
19.2373
0.895798
18.8771
0.860568
18.5553
0.827263
18.2725
0.795825
18.0281
0.766143
17.8207
0.738065
17.6481
0.711414
17.5076
0.686001
17.3965
0.661635
17.3119
0.638132
17.251
0.615323
17.2113
0.593051
17.1904
0.571176
17.1861
0.549576
17.1966
0.528144
17.2201
0.506785
17.2552
0.485421
17.3006
0.463981
17.3551
0.442408
17.4179
0.420651
17.488
0.398667
17.5647
0.376423
17.6473
0.353887
17.7354
0.331034
17.8283
0.307845
17.9257
0.284303
18.0272
0.260395
18.1325
0.23611
18.2412
0.21144
18.3532
0.186382
18.4682
0.16093
18.5859
0.135084
18.7063
0.108844
18.8292
0.0822121
18.9544
0.0551911
19.0818
0.0277851
19.2113
0
19.3428
-0.0281579
19.4763
-0.0566812
19.6116
-0.0855613
19.7487
-0.114789
19.8875
-0.144355
20.028
-0.174248
20.1701
-0.204458
20.3139
-0.234971
20.4591
-0.265776
20.6059
-0.29686
20.7542
-0.328209
20.9039
-0.359809
21.0551
-0.391646
21.2077
-0.423706
21.3617
-0.455971
21.517
-0.488429
21.6737
-0.521061
21.8318
-0.553852
21.9912
-0.586785
22.1519
-0.619844
22.3139
-0.653011
22.4772
-0.686269
22.6419
-0.7196
22.8077
-0.752987
22.9749
-0.786411
23.1433
-0.819853
23.3129
-0.853297
23.4838
-0.886722
23.656
-0.920111
23.8293
-0.953444
24.0039
-0.986702
24.1796
-1.01987
24.3565
-1.05292
24.5348
-1.08584
24.7136
-1.11862
24.8955
-1.15116
25.0727
-1.18376
25.2693
-1.21535
-1.24929
25.4107
19.4431
1.027
-19.8721
19.0401
0.987388
18.6679
0.949588
18.3292
0.913668
18.0256
0.879636
17.7575
0.847436
17.5246
0.816965
17.3255
0.788079
17.1585
0.760609
17.0211
0.734376
16.9109
0.709196
16.8254
0.684892
16.7621
0.661295
16.7187
0.638254
16.693
0.61563
16.6832
0.593299
16.6874
0.571154
16.7041
0.5491
16.7319
0.527056
16.7696
0.504951
16.8161
0.482725
16.8706
0.460324
16.9323
0.437707
17.0003
0.414834
17.0742
0.391675
17.1533
0.368202
17.2372
0.344395
17.3255
0.320236
17.4179
0.295708
17.5139
0.270802
17.6133
0.245509
17.7159
0.219821
17.8215
0.193736
17.9298
0.16725
18.0408
0.140363
18.1541
0.113077
18.2698
0.0853926
18.3876
0.057315
18.5076
0.0288489
18.6295
0
18.7533
-0.0292245
18.879
-0.0588166
19.0064
-0.0887676
19.1355
-0.119068
19.2663
-0.149707
19.3987
-0.180674
19.5326
-0.211957
19.6681
-0.243544
19.8051
-0.275423
19.9435
-0.307578
20.0833
-0.339998
20.2246
-0.372667
20.3672
-0.40557
20.5113
-0.438693
20.6566
-0.472019
20.8033
-0.505533
20.9513
-0.539218
21.1007
-0.573057
21.2513
-0.607035
21.4031
-0.641132
21.5563
-0.675332
21.7107
-0.709617
21.8664
-0.743969
22.0232
-0.778369
22.1814
-0.812799
22.3407
-0.84724
22.5012
-0.881674
22.663
-0.916081
22.8259
-0.950443
22.99
-0.98474
23.1552
-1.01895
23.3217
-1.05306
23.4892
-1.08705
23.6581
-1.12088
23.8275
-1.15458
23.9998
-1.18802
24.1677
-1.22151
24.3539
-1.25396
-1.28877
24.4884
18.4554
1.04108
-18.8309
18.1071
1.00281
17.7895
0.966367
17.504
0.931768
17.251
0.898956
17.0301
0.867834
16.8401
0.838266
16.6794
0.810092
16.546
0.783142
16.4377
0.757238
16.3524
0.732212
16.2877
0.7079
16.2417
0.684153
16.2123
0.660836
16.1979
0.637825
16.1968
0.615014
16.2075
0.592308
16.2289
0.569625
16.2598
0.546892
16.2992
0.524048
16.3462
0.50104
16.4001
0.477822
16.4603
0.454356
16.5261
0.430607
16.597
0.406549
16.6726
0.382158
16.7525
0.357415
16.8363
0.332305
16.9237
0.306813
17.0145
0.280932
17.1084
0.254654
17.2052
0.227972
17.3047
0.200886
17.4068
0.173392
17.5113
0.145492
17.618
0.117187
17.7269
0.0884803
17.8378
0.0593763
17.9507
0.0298807
18.0655
0
18.1821
-0.0302583
18.3004
-0.0608858
18.4204
-0.091873
18.542
-0.12321
18.6652
-0.154886
18.79
-0.18689
18.9162
-0.219209
19.0439
-0.251831
19.173
-0.284743
19.3036
-0.31793
19.4355
-0.351379
19.5688
-0.385074
19.7034
-0.419001
19.8393
-0.453144
19.9766
-0.487486
20.1151
-0.522012
20.2549
-0.556705
20.396
-0.591547
20.5383
-0.626521
20.6818
-0.661609
20.8266
-0.696794
20.9726
-0.732058
21.1198
-0.767381
21.2682
-0.802745
21.4177
-0.838132
21.5685
-0.873521
21.7204
-0.908895
21.8735
-0.944233
22.0277
-0.979516
22.183
-1.01472
22.3395
-1.04984
22.4972
-1.08484
22.6558
-1.11971
22.8158
-1.15441
22.9763
-1.18897
23.1395
-1.22325
23.2987
-1.25757
23.475
-1.29085
-1.32646
23.6029
17.5558
1.05534
-17.8798
17.2589
1.01855
16.9914
0.983538
16.7535
0.950264