/*--------------------------------*- C++ -*----------------------------------*\
| =========                 |                                                 |
| \\      /  F ield         | OpenFOAM: The Open Source CFD Toolbox           |
|  \\    /   O peration     | Version:  2312                                  |
|   \\  /    A nd           | Website:  www.openfoam.com                      |
|    \\/     M anipulation  |                                                 |
\*---------------------------------------------------------------------------*/
FoamFile
{
    version     2.0;
    format      ascii;
    arch        "LSB;label=32;scalar=64";
    class       surfaceScalarField;
    location    "0.291";
    object      phi;
}
// * * * * * * * * * * * * * * * * * * * * * * * * * * * * * * * * * * * * * //

dimensions      [0 3 -1 0 0 0 0];

oriented        oriented;

internalField   nonuniform List<scalar> 
62015
(
72.4232
0.381024
-73.1319
71.7133
0.371504
71.0024
0.361849
70.2902
0.352064
69.5765
0.342159
68.8611
0.33214
68.1438
0.322015
67.4241
0.311793
66.7017
0.301482
65.9761
0.29109
65.2468
0.280626
64.5132
0.270099
63.7746
0.259518
63.0303
0.248891
62.2792
0.238229
61.5206
0.22754
60.753
0.216835
59.9753
0.206124
59.1859
0.195417
58.3829
0.184725
57.5644
0.174059
56.7279
0.16343
55.8706
0.15285
54.989
0.142331
54.0792
0.131887
53.1362
0.12153
52.1537
0.111274
51.124
0.101136
50.0369
0.0911297
48.8789
0.0812733
47.632
0.0715852
46.2704
0.0620873
44.7465
0.0528033
42.9645
0.0437438
40.777
0.0349109
38.076
0.0263614
34.9666
0.0183201
31.8297
0.0111458
29.1204
0.00507173
27.0954
0
25.7467
-0.0043928
24.9233
-0.00842962
24.4597
-0.0123263
24.2298
-0.0161973
24.1511
-0.0200978
24.1725
-0.024052
24.2627
-0.0280712
24.4023
-0.0321593
24.5788
-0.0363187
24.784
-0.040549
25.0124
-0.0448498
25.2599
-0.04922
25.5238
-0.0536583
25.802
-0.0581627
26.0929
-0.0627312
26.3952
-0.0673617
26.708
-0.072052
27.0307
-0.0767995
27.3624
-0.0816018
27.7029
-0.0864557
28.0517
-0.0913591
28.4085
-0.0963086
28.7731
-0.101302
29.1452
-0.106335
29.5246
-0.111405
29.9113
-0.11651
30.305
-0.121645
30.7058
-0.126809
31.1134
-0.131996
31.5279
-0.137204
31.9492
-0.142431
32.3773
-0.147671
32.8118
-0.152922
33.2535
-0.158179
33.7003
-0.163446
34.1583
-0.168693
34.6086
-0.174003
35.1094
-0.179094
-0.184843
35.4814
69.9583
0.747413
-70.6461
69.2696
0.728707
68.5802
0.709737
67.8899
0.690519
67.1984
0.671067
66.5055
0.651396
65.811
0.631521
65.1145
0.611459
64.4157
0.591225
63.714
0.570835
63.009
0.550306
62.3002
0.529657
61.5868
0.508902
60.8681
0.488062
60.1432
0.467154
59.4112
0.446196
58.671
0.425208
57.9212
0.404209
57.1604
0.383221
56.387
0.362262
55.5988
0.341355
54.7937
0.320523
53.9688
0.299787
53.1211
0.279172
52.2465
0.258702
51.3404
0.238405
50.3969
0.218306
49.4085
0.198436
48.3656
0.178825
47.2553
0.159507
46.0607
0.140518
44.7571
0.121901
43.2995
0.1037
41.5987
0.0859387
39.5161
0.0686229
36.9464
0.0518644
33.9802
0.0360901
30.9689
0.021988
28.3457
0.0100153
26.3661
0
25.0345
-0.00867349
24.2127
-0.0166338
23.7431
-0.0243056
23.5035
-0.0319182
23.413
-0.0395812
23.4215
-0.0473447
23.4979
-0.0552302
23.623
-0.0632468
23.7844
-0.0713985
23.9742
-0.0796853
24.1867
-0.0881063
24.418
-0.0966595
24.6654
-0.105342
24.9267
-0.11415
25.2004
-0.123081
25.4854
-0.132129
25.7806
-0.141291
26.0853
-0.150561
26.3989
-0.159935
26.721
-0.169408
27.0512
-0.178974
27.3891
-0.188628
27.7345
-0.198363
28.0872
-0.208174
28.4471
-0.218056
28.8139
-0.228001
29.1876
-0.238004
29.568
-0.248059
29.9551
-0.258159
30.3487
-0.268297
30.7489
-0.278468
31.1556
-0.288663
31.5685
-0.298879
31.9883
-0.309103
32.4131
-0.319345
32.8484
-0.329545
33.2767
-0.339864
33.7521
-0.349767
-0.360904
34.1097
67.5597
1.09946
-68.2271
66.8917
1.07189
66.2232
1.04394
65.5541
1.01563
64.8841
0.986987
64.2131
0.958023
63.5407
0.928764
62.8666
0.899233
62.1904
0.869454
61.5118
0.83945
60.8302
0.809246
60.1451
0.778867
59.4558
0.748338
58.7616
0.717686
58.0618
0.686937
57.3553
0.656117
56.641
0.625256
55.9178
0.594381
55.1843
0.563523
54.4387
0.532711
53.6792
0.501977
52.9037
0.471353
52.1094
0.440873
51.2934
0.410571
50.4518
0.380484
49.5801
0.350649
48.6728
0.321107
47.7227
0.291902
46.7205
0.263076
45.654
0.234679
44.5068
0.206765
43.2553
0.179396
41.8566
0.152635
40.2259
0.126517
38.2329
0.101054
35.7785
0.0764159
32.9457
0.0532232
30.0627
0.032466
27.5388
0.0148051
25.6213
0
24.3214
-0.0128324
23.5116
-0.0246042
23.0429
-0.0359374
22.7981
-0.0471716
22.6991
-0.0584705
22.6969
-0.0699083
22.7613
-0.0815185
22.8734
-0.093315
23.0212
-0.105303
23.1967
-0.117484
23.3944
-0.129856
23.6106
-0.142417
23.8425
-0.155162
24.088
-0.168086
24.3456
-0.181184
24.6142
-0.194451
24.8927
-0.207879
25.1805
-0.221462
25.477
-0.235192
25.7818
-0.249062
26.0943
-0.263065
26.4144
-0.277192
26.7418
-0.291434
27.0762
-0.305784
27.4175
-0.320233
27.7656
-0.334772
28.1202
-0.349391
28.4814
-0.364082
28.849
-0.378836
29.2229
-0.393643
29.6031
-0.408493
29.9896
-0.423378
30.3821
-0.438287
30.7811
-0.453206
31.185
-0.468148
31.5988
-0.483027
32.0065
-0.498071
32.4578
-0.512525
-0.528716
32.8003
65.2342
1.43757
-65.8817
64.5864
1.40147
63.9384
1.36487
63.2899
1.32781
62.6409
1.29031
61.991
1.2524
61.3399
1.21411
60.6875
1.17548
60.0333
1.13652
59.3769
1.09727
58.7179
1.05777
58.0556
1.01805
57.3895
0.978127
56.7189
0.938051
56.043
0.897852
55.3609
0.857565
54.6715
0.817226
53.9736
0.776873
53.266
0.736543
52.547
0.696276
51.8147
0.656113
51.0672
0.616096
50.3019
0.576268
49.5157
0.536674
48.7051
0.497361
47.8659
0.458379
46.9924
0.419779
46.078
0.381618
45.1136
0.343953
44.0874
0.306847
42.9838
0.270369
41.7799
0.234601
40.4337
0.199624
38.8642
0.16548
36.9485
0.132191
34.5952
0.0999884
31.8854
0.0696856
29.129
0.0425534
26.7115
0.0194287
24.8676
0
23.61
-0.0168644
22.8206
-0.0323374
22.3586
-0.0472243
22.1128
-0.0619677
22.0081
-0.0767834
21.9975
-0.0917703
22.0516
-0.106972
22.1523
-0.122409
22.2877
-0.138088
22.4501
-0.15401
22.6343
-0.170175
22.8364
-0.186578
23.0539
-0.203214
23.2846
-0.220078
23.5271
-0.237163
23.7803
-0.254459
24.0432
-0.271961
24.3151
-0.289658
24.5955
-0.307541
24.8838
-0.325602
25.1798
-0.343828
25.483
-0.362211
25.7933
-0.38074
26.1104
-0.399403
26.4342
-0.41819
26.7645
-0.437089
27.1012
-0.456089
27.4441
-0.475176
27.7933
-0.494341
28.1485
-0.51357
28.5098
-0.532852
28.8771
-0.552172
29.2502
-0.571523
29.6296
-0.590881
30.0137
-0.610263
30.4072
-0.629563
30.7951
-0.649066
31.2238
-0.66782
-0.688761
31.5514
62.9842
1.76222
-63.6121
62.3561
1.71789
61.7281
1.67297
61.0998
1.62748
60.4711
1.58146
59.8418
1.53495
59.2116
1.48799
58.5803
1.44059
57.9474
1.39282
57.3126
1.34469
56.6753
1.29626
56.0352
1.24755
55.3915
1.19862
54.7436
1.14949
54.0908
1.10022
53.4322
1.05085
52.7667
1.00141
52.0932
0.951963
51.4104
0.902546
50.7168
0.853209
50.0107
0.804001
49.29
0.754974
48.5522
0.706179
47.7946
0.657673
47.0136
0.609512
46.205
0.561757
45.3637
0.51447
44.483
0.467719
43.5544
0.421575
42.5663
0.376115
41.5036
0.331422
40.3439
0.287595
39.0464
0.244731
37.5327
0.202879
35.687
0.162071
33.4261
0.122608
30.8313
0.0854929
28.1974
0.052257
25.887
0.0238884
24.1201
0
22.9093
-0.0207715
22.1441
-0.0398381
21.692
-0.0581742
21.4474
-0.0763193
21.3389
-0.0945385
21.3213
-0.112954
21.3665
-0.131622
21.4568
-0.150566
21.5809
-0.169797
21.7314
-0.189316
21.9029
-0.209122
22.092
-0.229211
22.2959
-0.249577
22.5128
-0.270213
22.7412
-0.29111
22.9799
-0.31226
23.228
-0.333652
23.485
-0.355276
23.7501
-0.37712
24.023
-0.399173
24.3032
-0.421423
24.5906
-0.443857
24.8847
-0.466462
25.1854
-0.489226
25.4926
-0.512134
25.8061
-0.535172
26.1257
-0.558328
26.4514
-0.581585
26.7831
-0.604931
27.1206
-0.62835
27.4639
-0.651827
27.8131
-0.675346
28.1678
-0.698897
28.5285
-0.722451
28.8938
-0.74603
29.268
-0.769506
29.6371
-0.793216
30.0446
-0.816033
-0.841439
30.3575
60.8092
2.07387
-61.4179
60.2005
2.02162
59.592
1.96868
58.9835
1.91509
58.3747
1.86089
57.7656
1.80611
57.1557
1.75079
56.5449
1.69499
55.9327
1.63874
55.3188
1.58208
54.7028
1.52507
54.0841
1.46774
53.4621
1.41015
52.8363
1.35235
52.2058
1.29437
51.5698
1.23627
50.9274
1.17811
50.2774
1.11994
49.6186
1.0618
48.9496
1.00377
48.2685
0.945885
47.5736
0.888216
46.8623
0.830823
46.1321
0.77377
45.3794
0.717124
44.6003
0.660956
43.7898
0.605338
42.9414
0.55035
42.0467
0.496074
41.0949
0.4426
40.0711
0.390026
38.9534
0.338467
37.7018
0.288033
36.2406
0.238777
34.4603
0.190746
32.2862
0.144316
29.8004
0.100674
27.2842
0.0615937
25.0782
0.0281913
23.3878
0
22.2247
-0.0245579
21.4851
-0.0471138
21.0441
-0.068798
20.802
-0.0902408
20.6907
-0.111754
20.6671
-0.133484
20.7043
-0.155496
20.7852
-0.177821
20.899
-0.200471
21.0382
-0.223448
21.198
-0.246752
21.3748
-0.270378
21.5661
-0.294319
21.77
-0.318567
21.985
-0.343114
22.2101
-0.367947
22.4444
-0.393055
22.6872
-0.418427
22.9379
-0.44405
23.1962
-0.469909
23.4616
-0.495991
23.7338
-0.522281
24.0127
-0.548765
24.2979
-0.575426
24.5894
-0.60225
24.8869
-0.629219
25.1904
-0.656319
25.4997
-0.683531
25.8148
-0.71084
26.1355
-0.738227
26.4618
-0.765677
26.7937
-0.79317
27.131
-0.820693
27.474
-0.848216
27.8214
-0.875759
28.1773
-0.903179
28.5286
-0.930859
28.9159
-0.957513
-0.987115
29.2147
58.7078
2.37296
-59.2977
58.1182
2.3131
57.5288
2.25246
56.9396
2.19107
56.3503
2.129
55.7608
2.06627
55.1707
2.00294
54.5799
1.93906
53.9879
1.87467
53.3944
1.80982
52.799
1.74458
52.2011
1.67898
51.6002
1.61308
50.9957
1.54694
50.3869
1.48061
49.7728
1.41415
49.1528
1.34762
48.5255
1.28108
47.8899
1.21458
47.2445
1.1482
46.5877
1.082
45.9175
1.01605
45.2319
0.950408
44.5279
0.88516
43.8025
0.820379
43.0518
0.756143
42.2708
0.692537
41.4533
0.62965
40.5914
0.567576
39.6742
0.506416
38.6876
0.446282
37.6101
0.387304
36.4024
0.329603
34.9912
0.273238
33.2733
0.21827
31.1818
0.165153
28.8001
0.115259
26.3964
0.0705809
24.2909
0.0323444
22.675
0
21.5587
-0.0282282
20.8446
-0.0541724
20.4153
-0.0791071
20.1762
-0.103747
20.0629
-0.12845
20.0341
-0.153382
20.0641
-0.178623
20.1363
-0.204207
20.2404
-0.230148
20.3692
-0.256451
20.518
-0.283115
20.6834
-0.310136
20.8628
-0.337505
21.0544
-0.365214
21.2569
-0.393253
21.4691
-0.421608
21.6903
-0.450269
21.9197
-0.479219
22.1569
-0.508447
22.4013
-0.537935
22.6527
-0.567667
22.9107
-0.597629
23.175
-0.627802
23.4456
-0.65817
23.7222
-0.688714
24.0046
-0.719417
24.2928
-0.750259
24.5865
-0.781223
24.8859
-0.812288
25.1907
-0.843436
25.5009
-0.874648
25.8164
-0.905901
26.1371
-0.937182
26.4633
-0.968455
26.7937
-0.999744
27.1322
-1.03089
27.4666
-1.06231
27.8347
-1.09259
-1.12614
28.1201
56.678
2.65993
-57.2494
56.107
2.59275
55.5364
2.5247
54.9661
2.45584
54.3958
2.3862
53.8255
2.31584
53.2547
2.24481
52.6834
2.17317
52.111
2.10097
51.5373
2.02827
50.9619
1.95512
50.3843
1.88158
49.8038
1.80772
49.22
1.73358
48.6322
1.65924
48.0394
1.58476
47.441
1.5102
46.8357
1.43564
46.2225
1.36113
45.5999
1.28675
44.9665
1.21257
44.3204
1.13867
43.6593
1.06513
42.9808
0.992028
42.2817
0.919447
41.5582
0.847477
40.8056
0.776212
40.0179
0.705751
39.1874
0.636199
38.3036
0.567668
37.3528
0.500283
36.3138
0.434187
35.148
0.369511
33.7849
0.306319
32.127
0.244688
30.1148
0.185157
27.8327
0.129274
25.5366
0.0792348
23.5273
0.0363538
21.9829
0
20.9121
-0.0317865
20.2231
-0.0610216
19.8055
-0.0891121
19.5699
-0.116853
19.455
-0.144643
19.4216
-0.172672
19.4449
-0.20103
19.5092
-0.229755
19.6043
-0.258867
19.7234
-0.28837
19.8619
-0.318263
20.0164
-0.348543
20.1846
-0.3792
20.3647
-0.410225
20.5554
-0.441607
20.7555
-0.473332
20.9643
-0.505387
21.1811
-0.537755
21.4054
-0.570422
21.6368
-0.603371
21.8749
-0.636582
22.1194
-0.67004
22.37
-0.703725
22.6267
-0.737617
22.8891
-0.771697
23.1572
-0.805945
23.4309
-0.84034
23.71
-0.874862
23.9944
-0.909489
24.284
-0.9442
24.5789
-0.978973
24.8789
-1.01379
25.1839
-1.04862
25.4941
-1.08344
25.8084
-1.11827
26.1305
-1.15293
26.4487
-1.18789
26.7987
-1.22159
-1.25883
27.0712
54.7177
2.9352
-55.271
54.1648
2.86099
53.6126
2.78584
53.0607
2.70978
52.509
2.63288
51.9574
2.5552
51.4055
2.47679
50.8531
2.3977
50.2999
2.31801
49.7455
2.23777
49.1895
2.15704
48.6315
2.07589
48.0709
1.99438
47.5072
1.91258
46.9396
1.83056
46.3675
1.74839
45.79
1.66613
45.206
1.58387
44.6144
1.50168
44.014
1.41963
43.4031
1.33781
42.7801
1.2563
42.1428
1.17518
41.4888
1.09455
40.815
1.01449
40.1178
0.935108
39.3926
0.856501
38.6336
0.778779
37.8333
0.702056
36.9816
0.626456
36.0651
0.552117
35.0631
0.479192
33.9378
0.407822
32.6209
0.338074
31.0208
0.270046
29.085
0.204362
26.8984
0.142742
24.7052
0.0875687
22.7877
0.0402257
21.3118
0
20.2848
-0.0352369
19.6203
-0.0676683
19.2143
-0.0988233
18.9824
-0.129571
18.8664
-0.160351
18.8289
-0.191375
18.8461
-0.222742
18.9029
-0.254499
18.9897
-0.286664
19.0997
-0.319246
19.2285
-0.352244
19.3729
-0.385652
19.5306
-0.419464
19.6999
-0.453667
19.8794
-0.488251
20.0681
-0.5232
20.2652
-0.5585
20.4701
-0.594133
20.6822
-0.630084
20.9012
-0.666333
21.1267
-0.702861
21.3584
-0.739648
21.5961
-0.776674
21.8396
-0.813919
22.0887
-0.85136
22.3432
-0.888976
22.6031
-0.926744
22.8682
-0.964641
23.1385
-1.00265
23.4138
-1.04073
23.6941
-1.07888
23.9794
-1.11706
24.2694
-1.15526
24.5645
-1.19343
24.8636
-1.2316
25.1699
-1.26958
25.4729
-1.30787
25.8056
-1.34481
-1.38552
26.0659
52.8245
3.19919
-53.3601
52.2895
3.11823
51.7552
3.03625
51.2213
2.95329
50.6878
2.86943
50.1543
2.78472
49.6208
2.69922
49.0868
2.61299
48.5522
2.52611
48.0165
2.43864
47.4795
2.35064
46.9405
2.26219
46.3992
2.17336
45.8549
2.08421
45.3071
1.99483
44.7549
1.90528
44.1976
1.81566
43.6342
1.72602
43.0636
1.63647
42.4845
1.54707
41.8955
1.45792
41.2948
1.36912
40.6804
1.28074
40.05
1.19289
39.4006
1.10567
38.7287
1.01918
38.0299
0.933533
37.2985
0.84885
36.5273
0.765253
35.7065
0.682875
34.8231
0.601866
33.8566
0.522391
32.7702
0.444597
31.4979
0.368553
29.9536
0.294383
28.0913
0.222798
25.9963
0.155686
23.9014
0.0955949
22.0717
0.0439645
20.6614
0
19.6765
-0.0385826
19.0357
-0.0741191
18.6412
-0.10825
18.4132
-0.141915
18.2964
-0.175591
18.2552
-0.209512
18.2669
-0.243787
18.3169
-0.278467
18.3958
-0.313575
18.4973
-0.34912
18.6171
-0.385103
18.752
-0.421518
18.8998
-0.458356
19.0589
-0.495607
19.2278
-0.533257
19.4057
-0.571292
19.5918
-0.609695
19.7854
-0.648449
19.9861
-0.687534
20.1934
-0.726932
20.407
-0.766621
20.6266
-0.806581
20.852
-0.846789
21.083
-0.887222
21.3194
-0.927859
21.5611
-0.968674
21.8079
-1.00964
22.0598
-1.05074
22.3167
-1.09195
22.5784
-1.13324
22.8449
-1.17458
23.1162
-1.21595
23.392
-1.25732
23.6728
-1.29866
23.9573
-1.33999
24.2488
-1.38111
24.5372
-1.42255
24.8536
-1.46254
-1.50651
25.1022
50.9966
3.4523
-51.5148
50.4789
3.36486
49.9621
3.27633
49.4458
3.18675
48.9299
3.09621
48.4142
3.00475
47.8984
2.91246
47.3825
2.81939
46.8659
2.72562
46.3484
2.63121
45.8297
2.53625
45.3092
2.4408
44.7866
2.34495
44.2612
2.24876
43.7324
2.15232
43.1996
2.05571
42.6619
1.95902
42.1183
1.86232
41.568
1.76571
41.0095
1.66927
40.4415
1.57311
39.8624
1.47731
39.2702
1.38197
38.6625
1.28721
38.0367
1.19312
37.3892
1.09982
36.7157
1.00743
36.0109
0.916078
35.2677
0.825892
34.4766
0.737016
33.6249
0.649611
32.6927
0.563852
31.6436
0.479891
30.4143
0.397804
28.9239
0.317736
27.1325
0.240494
25.1254
0.168125
23.1244
0.103324
21.3785
0.047575
20.0309
0
19.0865
-0.0418269
18.4688
-0.0803797
18.0856
-0.117402
17.8616
-0.153896
17.7445
-0.190379
17.7
-0.227103
17.7066
-0.264186
17.7502
-0.301688
17.8219
-0.339633
17.9155
-0.378032
18.0268
-0.416885
18.1527
-0.456189
18.2913
-0.495933
18.4407
-0.536106
18.5997
-0.576695
18.7674
-0.617685
18.9431
-0.659056
19.1261
-0.700792
19.3159
-0.742871
19.5121
-0.785274
19.7145
-0.827977
19.9226
-0.87096
20.1364
-0.914197
20.3556
-0.957666
20.58
-1.00134
20.8094
-1.0452
21.0439
-1.08921
21.2833
-1.13335
21.5274
-1.17759
21.7762
-1.22191
22.0296
-1.26628
22.2876
-1.31066
22.55
-1.35504
22.8171
-1.39938
23.0879
-1.44369
23.3652
-1.48778
23.6398
-1.53217
23.9407
-1.57506
-1.62208
24.1782
49.2316
3.69491
-49.733
48.731
3.60126
48.2311
3.50644
47.7319
3.41052
47.2332
3.31357
46.7348
3.21566
46.2364
3.11685
45.7379
3.01722
45.2388
2.91684
44.7391
2.8158
44.2381
2.71416
43.7356
2.61201
43.231
2.50942
42.7239
2.40649
42.2136
2.30329
41.6995
2.19992
41.1807
2.09645
40.6564
1.99299
40.1255
1.88962
39.587
1.78644
39.0394
1.68355
38.481
1.58105
37.9102
1.47905
37.3245
1.37766
36.7213
1.277
36.0973
1.17717
35.4483
1.07832
34.7691
0.980572
34.0528
0.884069
33.2903
0.788963
32.4692
0.695425
31.5698
0.603639
30.5567
0.513762
29.3688
0.42587
27.9304
0.340143
26.2073
0.257478
24.2844
0.180077
22.3733
0.110768
20.7074
0.0510615
19.4198
0
18.5143
-0.044973
17.919
-0.0864561
17.547
-0.126286
17.3272
-0.165527
17.2099
-0.20473
17.1626
-0.244166
17.1645
-0.283965
17.2023
-0.32419
17.2672
-0.364871
17.3534
-0.406018
17.4567
-0.447633
17.5743
-0.489713
17.704
-0.532247
17.8444
-0.575225
17.9941
-0.618631
18.1522
-0.662449
18.318
-0.706661
18.4909
-0.751248
18.6705
-0.796187
18.8563
-0.841459
19.048
-0.887038
19.2453
-0.932901
19.448
-0.979024
19.656
-1.02538
19.869
-1.07195
20.087
-1.11869
20.3097
-1.16559
20.5371
-1.21262
20.7692
-1.25974
21.0057
-1.30693
21.2467
-1.35416
21.4922
-1.40141
21.7418
-1.44864
21.996
-1.4958
22.2536
-1.54293
22.5176
-1.58982
22.7791
-1.63701
23.0653
-1.68262
-1.7325
23.2922
47.5277
3.9274
-48.0126
47.0436
3.8278
46.5604
3.72696
46.0778
3.62496
45.5958
3.52187
45.1141
3.41776
44.6326
3.31271
44.151
3.2068
43.669
3.1001
43.1864
2.99269
42.7027
2.88466
42.2175
2.77608
41.7305
2.66706
41.2411
2.55766
40.7486
2.44799
40.2526
2.33813
39.7521
2.22818
39.2464
2.11824
38.7344
2.0084
38.2151
1.89876
37.6871
1.78943
37.1489
1.68052
36.5986
1.57213
36.034
1.4644
35.4527
1.35743
34.8513
1.25136
34.2259
1.14631
33.5713
1.04244
32.8809
0.93988
32.1459
0.838802
31.3541
0.739383
30.4863
0.641816
29.5078
0.54626
28.36
0.452798
26.9718
0.361638
25.3144
0.273776
23.4724
0.19156
21.6471
0.117936
20.0575
0.0544279
18.8274
0
17.9594
-0.0480235
17.3857
-0.0923536
17.0248
-0.134912
16.8093
-0.176819
16.6922
-0.218658
16.6424
-0.26072
16.64
-0.303144
16.6724
-0.345999
16.731
-0.389318
16.8102
-0.433113
16.9061
-0.477387
17.0158
-0.522136
17.1374
-0.56735
17.2691
-0.613019
17.41
-0.659126
17.5591
-0.705654
17.7156
-0.752585
17.8791
-0.799899
18.0489
-0.847572
18.2248
-0.895582
18.4064
-0.943904
18.5935
-0.992515
18.7858
-1.04139
18.9831
-1.09049
19.1854
-1.13981
19.3924
-1.1893
19.604
-1.23894
19.8201
-1.28871
20.0407
-1.33856
20.2657
-1.38848
20.4949
-1.43843
20.7284
-1.48837
20.9659
-1.5383
21.2078
-1.58814
21.453
-1.63794
21.7043
-1.68746
21.9533
-1.73729
22.2255
-1.78547
-1.83804
22.4423
45.8829
4.15015
-46.3517
45.4149
4.04484
44.9478
3.93824
44.4814
3.83041
44.0156
3.72144
43.5503
3.6114
43.0851
3.50038
42.62
3.38844
42.1545
3.27568
41.6885
3.16218
41.2215
3.04803
40.7532
2.93331
40.2831
2.81811
39.8108
2.70253
39.3356
2.58666
38.8571
2.47059
38.3743
2.35444
37.8865
2.23828
37.3928
2.12224
36.8921
2.00642
36.383
1.89092
35.8641
1.77587
35.3336
1.66137
34.7895
1.54756
34.2292
1.43456
33.6496
1.3225
33.0468
1.21152
32.4159
1.10177
31.7505
0.993413
31.042
0.886612
30.2784
0.781555
29.441
0.678444
28.4958
0.577438
27.3864
0.478627
26.0467
0.382255
24.4527
0.289413
22.6882
0.202591
20.9449
0.124837
19.4283
0.0576785
18.2531
0
17.4211
-0.0509815
16.8685
-0.0980776
16.5184
-0.143288
16.3073
-0.187782
16.1906
-0.232178
16.1386
-0.276781
16.1325
-0.321744
16.1598
-0.36714
16.2126
-0.413004
16.2854
-0.459351
16.3743
-0.506185
16.4766
-0.553501
16.5904
-0.601291
16.7141
-0.649543
16.8467
-0.69824
16.9872
-0.747366
17.135
-0.7969
17.2894
-0.846822
17.4501
-0.897108
17.6166
-0.947734
17.7887
-0.998675
17.9661
-1.0499
18.1485
-1.1014
18.3358
-1.15312
18.5278
-1.20505
18.7244
-1.25715
18.9255
-1.3094
19.131
-1.36177
19.3407
-1.41422
19.5546
-1.46672
19.7727
-1.51924
19.9948
-1.57175
20.2209
-1.62421
20.451
-1.67659
20.6845
-1.7289
20.9237
-1.78093
21.1608
-1.83324
21.4198
-1.88386
-1.93893
21.6271
44.2952
4.36351
-44.7484
43.8428
4.25274
43.3914
4.14061
42.9408
4.02721
42.4908
3.91261
42.0413
3.7969
41.592
3.68015
41.1428
3.56245
40.6934
3.44389
40.2434
3.32455
39.7926
3.20454
39.3406
3.08393
38.8869
2.96283
38.4312
2.84133
37.9728
2.71952
37.5111
2.59752
37.0454
2.47542
36.575
2.35333
36.0989
2.23135
35.616
2.10961
35.1252
1.98821
34.625
1.86727
34.1137
1.74692
33.5892
1.62729
33.0492
1.5085
32.4905
1.39071
31.9096
1.27405
31.3015
1.15868
30.6601
1.04476
29.977
0.93247
29.2406
0.822009
28.4323
0.71358
27.5191
0.607345
26.447
0.5034
25.1541
0.402026
23.6211
0.304415
21.9308
0.213188
20.266
0.131482
18.819
0.0608169
17.6964
0
16.899
-0.0538497
16.3668
-0.103633
16.0274
-0.15142
15.8208
-0.198427
15.7047
-0.245302
15.6509
-0.292368
15.6412
-0.339786
15.664
-0.387636
15.7114
-0.435957
15.7781
-0.484764
15.8604
-0.534063
15.9558
-0.58385
16.0623
-0.634115
16.1785
-0.684848
16.3033
-0.736031
16.4357
-0.787646
16.5752
-0.839674
16.7212
-0.892092
16.8732
-0.944876
17.0309
-0.998001
17.1939
-1.05144
17.3621
-1.10517
17.5351
-1.15916
17.7129
-1.21338
17.8953
-1.2678
18.0821
-1.32238
18.2732
-1.37711
18.4685
-1.43195
18.6679
-1.48685
18.8714
-1.5418
19.0788
-1.59676
19.2902
-1.6517
19.5053
-1.70657
19.7244
-1.76135
19.9467
-1.81603
20.1744
-1.87041
20.4003
-1.92507
20.6467
-1.97799
-2.03542
20.8448
42.7627
4.56784
-43.2007
42.3256
4.45183
41.8894
4.33443
41.4541
4.21569
41.0194
4.0957
40.5853
3.97455
40.1514
3.85232
39.7176
3.72911
39.2837
3.605
38.8494
3.48008
38.4142
3.35446
37.978
3.22822
37.5402
3.10146
37.1005
2.97429
36.6582
2.84681
36.2129
2.71912
35.7637
2.59133
35.3101
2.46356
34.851
2.3359
34.3854
2.20849
33.9122
2.08144
33.43
1.95487
32.9371
1.82892
32.4315
1.70371
31.911
1.57939
31.3726
1.4561
30.8127
1.334
30.2265
1.21324
29.6082
1.094
28.9495
0.976451
28.2392
0.860809
27.459
0.74728
26.5767
0.636029
25.5404
0.527155
24.2927
0.420984
22.8184
0.318805
21.1994
0.223367
19.6095
0.13788
18.229
0.063847
17.1567
-1.19922e-07
16.3926
-0.0566306
15.8801
-0.109026
15.5512
-0.159316
15.3492
-0.208764
15.2339
-0.258043
15.1785
-0.307494
15.1657
-0.357289
15.1843
-0.407512
15.2266
-0.458203
15.2877
-0.509384
15.3639
-0.561057
15.4528
-0.613221
15.5525
-0.665867
15.6615
-0.718982
15.7789
-0.772551
15.9038
-0.826554
16.0355
-0.88097
16.1734
-0.935778
16.3172
-0.990951
16.4665
-1.04647
16.6211
-1.10229
16.7805
-1.15841
16.9447
-1.21477
17.1135
-1.27137
17.2867
-1.32816
17.4641
-1.38511
17.6458
-1.44219
17.8314
-1.49937
18.0211
-1.55662
18.2147
-1.61389
18.412
-1.67116
18.6132
-1.72839
18.8179
-1.78555
19.0265
-1.84258
19.2382
-1.89952
19.455
-1.95612
19.6702
-2.01299
19.9047
-2.06808
-2.12772
20.0941
41.2837
4.76346
-41.7069
40.8613
4.64246
40.44
4.51999
40.0195
4.39615
39.5997
4.27101
39.1804
4.14466
38.7615
4.01719
38.3427
3.8887
37.9238
3.75928
37.5046
3.62903
37.0846
3.49804
36.6637
3.36641
36.2413
3.23425
35.817
3.10166
35.3904
2.96874
34.9608
2.83561
34.5276
2.70238
34.0901
2.56916
33.6474
2.43607
33.1985
2.30324
32.7423
2.17078
32.2774
2.03882
31.8022
1.9075
31.315
1.77696
30.8133
1.64734
30.2943
1.5188
29.7546
1.39148
29.1896
1.26556
28.5934
1.14121
27.9583
1.01863
27.2731
0.898019
26.5198
0.7796
25.6672
0.663534
24.6655
0.549931
23.4614
0.439158
22.0437
0.332607
20.4931
0.233143
18.9748
0.14404
17.6578
0.0667725
16.6334
0
15.9013
-0.0593273
15.408
-0.114259
15.0893
-0.166984
14.8919
-0.218802
14.7776
-0.270414
14.721
-0.322177
14.7054
-0.374271
14.72
-0.426787
14.7577
-0.479769
14.8135
-0.533238
14.8841
-0.5872
14.9669
-0.641653
15.0601
-0.696588
15.1625
-0.751993
15.2729
-0.807852
15.3906
-0.864145
15.5149
-0.920851
15.6453
-0.977947
15.7814
-1.03541
15.9228
-1.0932
16.0692
-1.15131
16.2204
-1.2097
16.3762
-1.26834
16.5365
-1.3272
16.701
-1.38624
16.8696
-1.44545
17.0422
-1.50477
17.2188
-1.56417
17.3992
-1.62364
17.5833
-1.68311
17.7712
-1.74257
17.9626
-1.80198
18.1575
-1.8613
18.3561
-1.92047
18.5577
-1.97953
18.7642
-2.03824
18.9693
-2.09718
19.1924
-2.15433
-2.21603
19.3735
39.8563
4.95072
-40.2651
39.4483
4.82493
39.0414
4.69763
38.6353
4.5689
38.2299
4.43883
37.825
4.30751
37.4206
4.17504
37.0163
4.0415
36.612
3.907
36.2073
3.77164
35.8021
3.63552
35.3959
3.49874
34.9883
3.36141
34.579
3.22363
34.1675
3.08552
33.7531
2.94718
33.3354
2.80875
32.9134
2.67032
32.4865
2.53204
32.0537
2.39401
31.6139
2.25637
31.1657
2.11926
30.7077
1.98281
30.238
1.84716
29.7544
1.71247
29.2542
1.57889
28.7339
1.44658
28.1892
1.31571
27.6145
1.18648
27.0019
1.05907
26.3408
0.9337
25.6136
0.810591
24.7895
0.689906
23.8212
0.571764
22.6593
0.456579
21.296
0.345843
19.8109
0.242533
18.361
0.14997
17.1046
0.0695969
16.1262
0
15.4248
-0.0619418
14.95
-0.11934
14.6414
-0.174429
14.4487
-0.22855
14.3355
-0.282426
14.2778
-0.33643
14.2597
-0.39075
14.2708
-0.445483
14.3042
-0.500678
14.3551
-0.556355
14.4203
-0.612523
14.4973
-0.669181
14.5846
-0.726319
14.6806
-0.783925
14.7845
-0.841983
14.8954
-0.900474
15.0128
-0.959375
15.136
-1.01866
15.2648
-1.07831
15.3987
-1.13829
15.5375
-1.19858
15.6809
-1.25914
15.8288
-1.31995
15.9809
-1.38096
16.1372
-1.44216
16.2974
-1.5035
16.4616
-1.56495
16.6295
-1.62648
16.8011
-1.68804
16.9763
-1.74961
17.1551
-1.81115
17.3373
-1.87261
17.5229
-1.93397
17.712
-1.99517
17.904
-2.05624
18.1007
-2.11693
18.2961
-2.17784
18.5085
-2.23692
-2.30056
18.6817
38.4788
5.12992
-38.8737
38.0848
4.99956
37.6918
4.86764
37.2996
4.73424
36.9082
4.59946
36.5174
4.46339
36.1269
4.32613
35.7367
4.18777
35.3465
4.04842
34.956
3.90817
34.5649
3.76715
34.173
3.62544
33.7798
3.48316
33.3849
3.34042
32.988
3.19734
32.5883
3.05403
32.1854
2.91062
31.7786
2.76721
31.3669
2.62395
30.9496
2.48096
30.5256
2.33837
30.0936
2.19633
29.652
2.05496
29.1993
1.91443
28.7331
1.77488
28.2509
1.63648
27.7494
1.49939
27.2242
1.36379
26.67
1.22988
26.0792
1.09784
25.4413
0.967909
24.739
0.840304
23.9424
0.715187
23.0064
0.592689
21.8852
0.473274
20.5744
0.358534
19.1521
0.251549
17.7676
0.155679
16.5689
0.0723237
15.6345
0
14.9626
-0.0644768
14.5057
-0.12427
14.207
-0.18166
14.0189
-0.238018
13.9071
-0.294091
13.8486
-0.350267
13.8282
-0.406743
13.836
-0.463621
13.8654
-0.520953
13.9117
-0.578762
13.9719
-0.637058
14.0436
-0.695839
14.1252
-0.755097
14.2153
-0.81482
14.313
-0.874991
14.4176
-0.935591
14.5284
-0.996597
14.6449
-1.05798
14.7667
-1.11973
14.8936
-1.1818
15.0251
-1.24417
15.1612
-1.30681
15.3015
-1.36968
15.446
-1.43275
15.5944
-1.496
15.7467
-1.55937
15.9028
-1.62285
16.0625
-1.68639
16.2258
-1.74995
16.3925
-1.81351
16.5627
-1.87701
16.7362
-1.94043
16.9129
-2.00373
17.093
-2.06684
17.2759
-2.1298
17.4632
-2.19237
17.6496
-2.25514
17.8517
-2.31605
-2.3815
18.0174
37.1495
5.30138
-37.531
36.769
5.16665
36.3896
5.03031
36.0109
4.89246
35.6331
4.75318
35.2558
4.61256
34.8789
4.47072
34.5023
4.32776
34.1257
4.18377
33.7489
4.03886
33.3715
3.89314
32.9934
3.74672
32.6141
3.59972
32.2332
3.45224
31.8503
3.30441
31.4649
3.15634
31.0763
3.00816
30.684
2.86
30.2871
2.71199
29.8847
2.56425
29.4759
2.41692
29.0594
2.27015
28.6338
2.12409
28.1973
1.97888
27.7479
1.83469
27.2831
1.69167
26.7996
1.55001
26.2933
1.40988
25.7588
1.27147
25.189
1.13501
24.5734
1.0007
23.895
0.868786
23.125
0.739418
22.22
0.612741
21.1381
0.489272
19.8778
0.370701
18.5158
0.260207
17.1937
0.161174
16.0502
0.0749563
15.1578
0
14.5142
-0.0669348
14.0747
-0.129056
13.7856
-0.188682
13.6021
-0.247214
13.4918
-0.30542
13.4327
-0.363702
13.4103
-0.422266
13.4151
-0.48122
13.4408
-0.540617
13.4829
-0.600485
13.5384
-0.660833
13.6051
-0.72166
13.6813
-0.782959
13.7659
-0.844718
13.8578
-0.90692
13.9564
-0.969545
14.061
-1.03257
14.1711
-1.09597
14.2864
-1.15972
14.4065
-1.22379
14.5312
-1.28815
14.6603
-1.35277
14.7935
-1.41762
14.9307
-1.48266
15.0718
-1.54785
15.2166
-1.61317
15.365
-1.67857
15.5169
-1.74403
15.6723
-1.80949
15.831
-1.87493
15.993
-1.9403
16.1582
-2.00557
16.3265
-2.0707
16.4981
-2.13563
16.6723
-2.20038
16.8508
-2.26472
17.0284
-2.32923
17.2209
-2.39187
-2.45901
17.3794
35.8669
5.46539
-36.2352
35.4995
5.32649
35.1331
5.18594
34.7676
5.04382
34.4028
4.90024
34.0387
4.75529
33.6749
4.60908
33.3115
4.46171
32.9481
4.31329
32.5845
4.16392
32.2204
4.01373
31.8556
3.86281
31.4897
3.71129
31.1223
3.55928
30.753
3.40691
30.3813
3.25429
30.0066
3.10156
29.6282
2.94885
29.2455
2.79629
28.8576
2.64401
28.4635
2.49215
28.0619
2.34087
27.6516
2.19031
27.2308
2.04063
26.7976
1.89199
26.3495
1.74455
25.8833
1.59851
25.3951
1.45404
24.8797
1.31134
24.33
1.17063
23.7358
1.03214
23.0805
0.896086
22.336
0.762639
21.4611
0.631952
20.4172
0.504598
19.2056
0.382365
17.9013
0.268521
16.6388
0.166465
15.548
0.077498
14.6957
-1.19417e-07
14.0793
-0.0693179
13.6565
-0.133702
13.3768
-0.195502
13.198
-0.256146
13.0893
-0.316423
13.0297
-0.376748
13.0055
-0.437335
13.0076
-0.498297
13.0299
-0.559692
13.0681
-0.621547
13.1192
-0.683875
13.1812
-0.746675
13.2525
-0.80994
13.3318
-0.873659
13.4182
-0.937813
13.5111
-1.00238
13.6099
-1.06735
13.714
-1.13268
13.8231
-1.19835
13.9369
-1.26434
14.0552
-1.3306
14.1776
-1.39711
14.3041
-1.46384
14.4344
-1.53075
14.5685
-1.59781
14.7061
-1.66498
14.8473
-1.73221
14.9918
-1.79949
15.1396
-1.86676
15.2907
-1.93398
15.445
-2.00113
15.6023
-2.06815
15.7627
-2.13501
15.9261
-2.20166
16.0922
-2.2681
16.2622
-2.33412
16.4316
-2.40027
16.6149
-2.46455
-2.53327
16.7665
34.6292
5.62224
-34.9848
34.2745
5.47936
33.9208
5.33478
33.568
5.1886
33.2159
5.04092
32.8645
4.89183
32.5135
4.74145
32.1627
4.58987
31.8121
4.43722
31.4613
4.28359
31.11
4.12911
30.7581
3.9739
30.4051
3.81806
30.0508
3.66172
29.6946
3.50501
29.3361
3.34805
28.9748
3.19097
28.6099
3.03391
28.2409
2.877
27.8669
2.72038
27.4869
2.56419
27.0998
2.40859
26.7042
2.25373
26.2986
2.09977
25.8809
1.94688
25.4489
1.79522
24.9994
1.64498
24.5286
1.49636
24.0315
1.34955
23.5011
1.20477
22.9276
1.06226
22.2945
0.922247
21.5746
0.784887
20.7287
0.650354
19.7214
0.519278
18.5567
0.393545
17.3077
0.276503
16.1023
0.171558
15.0617
0.0799516
14.2478
0
13.6574
-0.0716286
13.2507
-0.138211
12.9803
-0.202125
12.8061
-0.264822
12.699
-0.327111
12.6392
-0.389417
12.6135
-0.451965
12.6131
-0.514871
12.6322
-0.578197
12.6668
-0.641973
12.7138
-0.706212
12.7714
-0.770914
12.838
-0.836073
12.9124
-0.901677
12.9937
-0.967709
13.0812
-1.03415
13.1744
-1.10097
13.2729