/*--------------------------------*- C++ -*----------------------------------*\
| =========                 |                                                 |
| \\      /  F ield         | OpenFOAM: The Open Source CFD Toolbox           |
|  \\    /   O peration     | Version:  2312                                  |
|   \\  /    A nd           | Website:  www.openfoam.com                      |
|    \\/     M anipulation  |                                                 |
\*---------------------------------------------------------------------------*/
FoamFile
{
    version     2.0;
    format      ascii;
    arch        "LSB;label=32;scalar=64";
    class       surfaceScalarField;
    location    "0.546";
    object      phi;
}
// * * * * * * * * * * * * * * * * * * * * * * * * * * * * * * * * * * * * * //

dimensions      [0 3 -1 0 0 0 0];

oriented        oriented;

internalField   nonuniform List<scalar> 
62015
(
65.6676
0.128027
-66.5863
64.7297
0.123872
63.7717
0.119687
62.7919
0.115473
61.7886
0.111233
60.7598
0.106971
59.7032
0.10269
58.6162
0.0983928
57.4958
0.0940824
56.3386
0.0897613
55.1407
0.0854329
53.8973
0.0810996
52.6033
0.0767643
51.2522
0.0724295
49.837
0.0680979
48.3494
0.0637723
46.7806
0.0594566
45.1226
0.0551561
43.3714
0.0508811
41.5354
0.0466533
39.6453
0.0425138
37.7606
0.0385268
35.9642
0.0347726
34.3424
0.0313246
32.9604
0.0282254
31.8486
0.0254752
31.0024
0.0230371
30.3942
0.0208545
29.9861
0.0188661
29.7395
0.0170165
29.6206
0.0152601
29.6015
0.013562
29.6604
0.0118958
29.7806
0.0102418
29.9491
0.00858623
30.1563
0.00691816
30.3946
0.00523039
30.6584
0.00351734
30.9432
0.00177472
31.2454
0
31.5623
-0.00180901
31.8916
-0.00365386
32.2317
-0.00553504
32.5809
-0.00745332
32.9383
-0.00940889
33.3027
-0.0114013
33.6735
-0.0134307
34.0498
-0.0154961
34.4313
-0.0175972
34.8174
-0.0197333
35.2077
-0.0219033
35.6019
-0.0241063
35.9997
-0.0263413
36.4009
-0.0286073
36.8053
-0.0309029
37.2128
-0.033227
37.6231
-0.0355782
38.0362
-0.0379554
38.4519
-0.0403571
38.8703
-0.0427817
39.2911
-0.045228
39.7144
-0.0476947
40.14
-0.0501798
40.568
-0.0526819
40.9983
-0.0551999
41.4309
-0.0577318
41.8657
-0.060276
42.3028
-0.062831
42.742
-0.0653952
43.1835
-0.0679668
43.627
-0.0705444
44.0728
-0.0731258
44.5206
-0.0757102
44.971
-0.0782942
45.4217
-0.0808806
45.8804
-0.0834539
46.323
-0.086055
46.8237
-0.0885496
-0.0913507
47.1551
62.8706
0.248852
-63.761
61.9612
0.24073
61.0322
0.232547
60.0818
0.22431
59.1085
0.216024
58.1102
0.207694
57.0846
0.199327
56.0291
0.190928
54.9408
0.182503
53.8163
0.174057
52.6515
0.165597
51.4419
0.157126
50.1823
0.148651
48.8663
0.140177
47.4871
0.131708
46.037
0.123252
44.5081
0.114816
42.8945
0.106416
41.1972
0.0980818
39.4319
0.0898693
37.6377
0.0818768
35.8791
0.0742424
34.2349
0.0671165
32.7787
0.0606182
31.5588
0.0547968
30.5908
0.0496243
29.8623
0.0450144
29.3439
0.0408553
29.0003
0.0370339
28.7975
0.033452
28.7059
0.0300294
28.7019
0.0267051
28.7666
0.0234326
28.8856
0.0201782
29.0479
0.0169165
29.245
0.0136292
29.4703
0.0103025
29.7189
0.00692652
29.9868
0.00349414
30.2708
0
30.5684
-0.00355961
30.8777
-0.00718719
31.197
-0.0108844
31.5251
-0.0146521
31.8608
-0.0184904
32.2033
-0.0223992
32.5518
-0.0263776
32.9057
-0.0304252
33.2645
-0.0345403
33.6278
-0.0387217
33.9952
-0.0429675
34.3664
-0.0472761
34.7411
-0.0516453
35.1191
-0.0560732
35.5003
-0.0605572
35.8845
-0.0650952
36.2715
-0.0696847
36.6612
-0.074323
37.0535
-0.0790075
37.4484
-0.0837357
37.8457
-0.0885045
38.2454
-0.0933113
38.6475
-0.0981532
39.0519
-0.103027
39.4586
-0.10793
39.8675
-0.112859
40.2786
-0.117811
40.6919
-0.122783
41.1074
-0.127771
41.525
-0.132773
41.9447
-0.137785
42.3666
-0.142804
42.7904
-0.147828
43.2169
-0.15285
43.6436
-0.157875
44.078
-0.162875
44.4974
-0.167926
44.9709
-0.172775
-0.178201
45.2884
60.1399
0.362556
-61.0039
59.2572
0.350647
58.3552
0.338649
57.4324
0.326571
56.487
0.314422
55.517
0.30221
54.52
0.289943
53.4936
0.27763
52.4347
0.265278
51.34
0.252895
50.2053
0.240489
49.0263
0.228068
47.7975
0.215639
46.5131
0.203209
45.1662
0.190788
43.75
0.178387
42.2581
0.166023
40.6882
0.153728
39.0472
0.141562
37.3594
0.129635
35.6717
0.118117
34.0502
0.107216
32.5664
0.0971322
31.2786
0.0879928
30.2183
0.07982
29.3887
0.072536
28.7715
0.0660015
28.3374
0.0600551
28.0542
0.0545441
27.8923
0.049338
27.8266
0.0443332
27.8369
0.0394502
27.9073
0.0346288
28.0257
0.0298246
28.1825
0.0250044
28.3704
0.0201439
28.5839
0.0152249
28.8185
0.0102339
29.0707
0.00516133
29.3377
0
29.6174
-0.00525515
29.9079
-0.0106075
30.2078
-0.0160594
30.516
-0.0216116
30.8314
-0.0272647
31.1532
-0.0330183
31.4808
-0.0388713
31.8136
-0.0448225
32.1511
-0.05087
32.4929
-0.0570119
32.8387
-0.0632455
33.1881
-0.0695684
33.5411
-0.0759774
33.8972
-0.0824696
34.2564
-0.0890418
34.6186
-0.0956904
34.9835
-0.102412
35.3511
-0.109203
35.7213
-0.116059
36.0939
-0.122977
36.469
-0.129953
36.8465
-0.136981
37.2263
-0.144059
37.6083
-0.151182
37.9926
-0.158346
38.3791
-0.165546
38.7678
-0.172777
39.1586
-0.180036
39.5515
-0.187317
39.9465
-0.194617
40.3436
-0.20193
40.7429
-0.209251
41.144
-0.216577
41.5477
-0.2239
41.9517
-0.231226
42.3629
-0.238514
42.7604
-0.245873
43.2082
-0.252944
-0.26083
43.5112
57.4973
0.469352
-58.3362
56.64
0.453827
55.7637
0.438188
54.8669
0.422446
53.9478
0.40661
53.0043
0.390693
52.0343
0.374704
51.035
0.358654
50.0036
0.342553
48.9364
0.32641
47.8296
0.310236
46.6787
0.294041
45.4784
0.277834
44.2229
0.261626
42.9061
0.24543
41.5219
0.229266
40.0666
0.213165
38.5423
0.197187
36.9632
0.181442
35.3619
0.166107
33.7907
0.151427
32.3136
0.137667
30.9913
0.12504
29.8663
0.113648
28.9555
0.103459
28.2524
0.0943362
27.7355
0.0860894
27.3767
0.078518
27.1473
0.0714406
27.0219
0.0647057
26.9792
0.0581941
27.0024
0.0518143
27.0779
0.0454974
27.1956
0.0391918
27.3473
0.0328587
27.5269
0.0264696
27.7294
0.0200031
27.951
0.0134433
28.1886
0.00677841
28.4399
0
28.7029
-0.00689799
28.976
-0.0139197
29.2578
-0.0210676
29.5474
-0.0283428
29.8438
-0.0357462
30.1463
-0.0432766
30.4543
-0.0509332
30.7672
-0.058714
31.0847
-0.0666168
31.4063
-0.0746388
31.7318
-0.082777
32.0608
-0.0910277
32.3932
-0.0993875
32.7287
-0.107852
33.0673
-0.116418
33.4086
-0.12508
33.7527
-0.133834
34.0995
-0.142675
34.4487
-0.151598
34.8004
-0.160598
35.1545
-0.169671
35.5109
-0.17881
35.8696
-0.188011
36.2305
-0.197267
36.5936
-0.206574
36.9589
-0.215925
37.3263
-0.225315
37.6958
-0.234739
38.0674
-0.244189
38.441
-0.253661
38.8167
-0.263148
39.1945
-0.272645
39.5741
-0.282145
39.9562
-0.291639
40.3387
-0.301135
40.728
-0.310582
41.1046
-0.320115
41.5282
-0.329281
-0.339478
41.8166
54.9501
0.56948
-55.765
54.1171
0.550505
53.2654
0.531392
52.3935
0.512153
51.4995
0.4928
50.5814
0.473347
49.6368
0.453806
48.6633
0.434188
47.6577
0.414508
46.6166
0.394775
45.5361
0.375002
44.4116
0.355201
43.2381
0.335385
42.0102
0.315568
40.7224
0.295771
39.3704
0.276026
37.9536
0.25639
36.4799
0.236965
34.9711
0.217927
33.4665
0.199529
32.0204
0.182083
30.6908
0.165877
29.5256
0.151104
28.5527
0.137808
27.7769
0.12589
27.1857
0.115155
26.7562
0.105371
26.4623
0.0963082
26.2791
0.0877676
26.1849
0.0795853
26.1618
0.0716331
26.1957
0.0638129
26.2753
0.0560498
26.3918
0.0482884
26.5385
0.0404861
26.71
0.0326116
26.9021
0.0246413
27.1116
0.0165574
27.3356
0.00834673
27.5722
0
27.8196
-0.00848967
28.0763
-0.017127
28.3413
-0.0259145
28.6134
-0.0348537
28.892
-0.043945
29.1764
-0.0531875
29.466
-0.0625797
29.7603
-0.0721192
30.059
-0.0818035
30.3616
-0.0916292
30.668
-0.101592
30.9778
-0.111689
31.2908
-0.121915
31.607
-0.132265
31.926
-0.142734
32.2478
-0.153317
32.5723
-0.164008
32.8993
-0.174802
33.2288
-0.185693
33.5607
-0.196674
33.8949
-0.20774
34.2314
-0.218883
34.5702
-0.230099
34.9111
-0.241379
35.2542
-0.252718
35.5994
-0.264108
35.9467
-0.275542
36.296
-0.287015
36.6474
-0.298517
37.0008
-0.310043
37.3562
-0.321585
37.7136
-0.333135
38.0728
-0.344688
38.4344
-0.356231
38.7966
-0.367774
39.1651
-0.379255
39.5218
-0.390836
39.9227
-0.401978
-0.414345
40.1966
52.4988
0.663173
-53.2905
51.6892
0.640907
50.8612
0.61848
50.0131
0.595905
49.1431
0.573197
48.2492
0.550371
47.329
0.527439
46.38
0.504417
45.3991
0.481319
44.3827
0.458158
43.3272
0.434947
42.2279
0.411702
41.0802
0.388439
39.8791
0.36518
38.6204
0.341957
37.3022
0.318822
35.928
0.295871
34.5121
0.273267
33.0833
0.251261
31.6852
0.230183
30.37
0.210381
29.1868
0.192133
28.1705
0.175576
27.3361
0.160677
26.6799
0.147269
26.1856
0.135107
25.8309
0.123926
25.5921
0.113482
25.4479
0.103564
25.3798
0.0940043
25.3729
0.08467
25.4154
0.0754598
25.4977
0.0662969
25.6125
0.0571228
25.754
0.0478933
25.9178
0.0385751
26.1
0.0291432
26.298
0.0195789
26.5093
0.00986782
26.7321
0
26.9648
-0.0100319
27.2062
-0.0202328
27.4553
-0.0306054
27.7111
-0.0411516
27.973
-0.051871
28.2404
-0.062763
28.5127
-0.0738256
28.7895
-0.0850561
29.0704
-0.0964514
29.3552
-0.108007
29.6436
-0.11972
29.9353
-0.131584
30.2302
-0.143595
30.528
-0.155747
30.8287
-0.168034
31.132
-0.18045
31.438
-0.192988
31.7464
-0.205643
32.0573
-0.218406
32.3705
-0.231272
32.686
-0.244233
33.0037
-0.257281
33.3236
-0.270409
33.6456
-0.283609
33.9698
-0.296875
34.296
-0.310197
34.6242
-0.323567
34.9545
-0.336978
35.2867
-0.350421
35.621
-0.363889
35.9571
-0.377372
36.2953
-0.390862
36.6352
-0.404352
36.9774
-0.417828
37.3202
-0.4313
37.669
-0.444699
38.0068
-0.458209
38.3862
-0.471213
-0.485616
38.6464
50.141
0.750649
-50.9103
49.354
0.725246
48.5486
0.699659
47.7234
0.673902
46.8765
0.647994
46.0057
0.621948
45.1089
0.595781
44.1833
0.569509
43.2258
0.543148
42.2332
0.516712
41.2015
0.490219
40.1265
0.463686
39.004
0.437136
37.8297
0.410601
36.6012
0.384132
35.3198
0.357815
33.9941
0.3318
32.6448
0.306325
31.3058
0.28172
30.0219
0.258367
28.8399
0.236619
27.7984
0.216706
26.92
0.198681
26.2096
0.182432
25.6577
0.167728
25.2467
0.154286
24.9553
0.141824
24.7629
0.130087
24.6512
0.118865
24.6048
0.107987
24.6111
0.0973224
24.6602
0.0867691
24.7441
0.0762489
24.8567
0.065703
24.993
0.0550867
25.1491
0.0443652
25.322
0.0335131
25.5091
0.0225105
25.7083
0.0113431
25.9181
0
26.137
-0.0115261
26.364
-0.0232403
26.5982
-0.0351457
26.8387
-0.0472435
27.0849
-0.0595338
27.3363
-0.0720153
27.5923
-0.0846857
27.8527
-0.0975425
28.117
-0.110581
28.3851
-0.123798
28.6565
-0.137188
28.9312
-0.150745
29.2089
-0.164464
29.4895
-0.178338
29.7728
-0.192361
30.0588
-0.206527
30.3473
-0.220827
30.6382
-0.235254
30.9314
-0.249801
31.227
-0.264459
31.5248
-0.279221
31.8247
-0.294079
32.1268
-0.309023
32.431
-0.324045
32.7372
-0.339137
33.0455
-0.354289
33.3557
-0.369493
33.6679
-0.384739
33.9821
-0.400018
34.2982
-0.415321
34.6161
-0.430638
34.936
-0.44596
35.2576
-0.461279
35.5815
-0.476577
35.906
-0.491869
36.2362
-0.507074
36.5561
-0.5224
36.9151
-0.537159
-0.553471
37.162
47.8734
0.832114
-48.6212
47.108
0.80372
46.3246
0.775119
45.5213
0.746328
44.6964
0.717366
43.8479
0.688249
42.9733
0.658994
42.07
0.62962
41.1351
0.600143
40.1651
0.570581
39.1564
0.540954
38.1051
0.511286
37.0074
0.481608
35.8607
0.45197
34.6647
0.422451
33.4248
0.393188
32.1551
0.364399
30.8815
0.336405
29.6412
0.3096
28.4764
0.284388
27.4264
0.261085
26.5189
0.239839
25.7658
0.220615
25.1647
0.203219
24.703
0.187374
24.3628
0.172771
24.1248
0.159118
23.9714
0.146163
23.8868
0.133697
23.8581
0.121555
23.875
0.109607
23.9291
0.0977525
24.0137
0.0859156
24.1236
0.0740373
24.2546
0.0620727
24.4034
0.0499871
24.5672
0.0377544
24.7439
0.0253548
24.9317
0.0127737
25.1293
0
25.3353
-0.0129738
25.5487
-0.0261529
25.7689
-0.0395402
25.995
-0.0531369
26.2264
-0.0669427
26.4628
-0.0809561
26.7036
-0.0951749
26.9485
-0.109595
27.1972
-0.124213
27.4494
-0.139024
27.705
-0.154022
27.9636
-0.169201
28.2251
-0.184554
28.4895
-0.200076
28.7565
-0.215758
29.0261
-0.231593
29.2981
-0.247573
29.5724
-0.26369
29.8491
-0.279935
30.128
-0.296299
30.4091
-0.312775
30.6923
-0.329351
30.9775
-0.346019
31.2648
-0.36277
31.5541
-0.379594
31.8454
-0.396481
32.1386
-0.413421
32.4337
-0.430403
32.7308
-0.447419
33.0297
-0.464457
33.3304
-0.481507
33.633
-0.498557
33.9373
-0.515601
34.2438
-0.532619
34.5509
-0.549625
34.8634
-0.566534
35.1663
-0.583567
35.5061
-0.59998
-0.618081
35.7405
45.6925
0.90776
-46.4196
44.948
0.876514
44.1854
0.845039
43.4032
0.813355
42.5995
0.781479
41.7721
0.749432
40.9188
0.71723
40.037
0.684894
39.1235
0.652443
38.1754
0.619897
37.189
0.587283
36.161
0.554632
35.0888
0.521991
33.9712
0.489435
32.8114
0.457088
31.6191
0.425152
30.4137
0.393925
29.2249
0.363802
28.0899
0.335216
27.046
0.308549
26.1234
0.284044
25.3398
0.261751
24.6988
0.241543
24.1931
0.223163
23.8086
0.206297
23.5284
0.190624
23.3354
0.175856
23.2143
0.161744
23.1522
0.148087
23.1381
0.134727
23.1634
0.121537
23.2211
0.108422
23.3056
0.0953064
23.4125
0.0821331
23.5381
0.0688575
23.6797
0.0554456
23.8349
0.0418712
24.0018
0.0281148
24.1789
0.0141613
24.3649
0
24.5587
-0.0143767
24.7594
-0.0289738
24.9664
-0.0437939
25.179
-0.0588385
25.3966
-0.0741068
25.6188
-0.0895971
25.8453
-0.105307
26.0756
-0.121231
26.3096
-0.137367
26.547
-0.153708
26.7875
-0.170248
27.0311
-0.186981
27.2774
-0.2039
27.5265
-0.220997
27.7781
-0.238264
28.0322
-0.255694
28.2886
-0.273277
28.5474
-0.291004
28.8084
-0.308866
29.0716
-0.326854
29.3369
-0.344958
29.6042
-0.363168
29.8736
-0.381474
30.1449
-0.399866
30.4182
-0.418332
30.6935
-0.436862
30.9706
-0.455446
31.2496
-0.474073
31.5304
-0.49273
31.813
-0.511408
32.0975
-0.530094
32.3837
-0.548778
32.6716
-0.567449
32.9616
-0.586089
33.2523
-0.60471
33.5481
-0.623222
33.8349
-0.641863
34.1564
-0.659834
-0.67961
34.3789
43.5949
0.977771
-44.3021
42.8704
0.943805
42.1279
0.909591
41.3658
0.875146
40.5823
0.840491
39.7752
0.805646
38.9423
0.770632
38.0809
0.735468
37.1881
0.700179
36.2611
0.66479
35.2967
0.629334
34.2923
0.593856
33.2466
0.558428
32.1611
0.523164
31.0426
0.488248
29.9052
0.453958
28.7727
0.420674
27.6764
0.38884
26.6505
0.358887
25.7259
0.331138
24.9235
0.305736
24.2523
0.282628
23.7101
0.261605
23.2868
0.242363
22.9681
0.224568
22.7384
0.2079
22.583
0.192075
22.489
0.176857
22.4453
0.162056
22.4431
0.147518
22.475
0.133127
22.5352
0.118788
22.619
0.10443
22.7226
0.0899975
22.8429
0.0754472
22.9775
0.0607456
23.1245
0.0458672
23.2821
0.0307926
23.449
0.015507
23.6241
0
23.8064
-0.0157359
23.9952
-0.0317058
24.1898
-0.047912
24.3897
-0.0643552
24.5943
-0.0810351
24.8032
-0.0979492
25.0162
-0.115094
25.2329
-0.132467
25.4531
-0.150061
25.6765
-0.167871
25.9029
-0.185891
26.1322
-0.204114
26.3642
-0.222531
26.5989
-0.241136
26.836
-0.259918
27.0755
-0.27887
27.3173
-0.297983
27.5614
-0.317245
27.8076
-0.336649
28.0559
-0.356182
28.3063
-0.375836
28.5587
-0.395599
28.813
-0.41546
29.0693
-0.435408
29.3275
-0.455432
29.5876
-0.47552
29.8494
-0.495661
30.1131
-0.515843
30.3786
-0.536054
30.6459
-0.556281
30.9149
-0.576514
31.1857
-0.596738
31.4581
-0.616945
31.7325
-0.637113
32.0076
-0.657257
32.2875
-0.67728
32.5591
-0.697433
32.8633
-0.716871
-0.738215
33.0745
41.5774
1.04232
-42.2654
40.872
1.00576
40.1487
0.968933
39.4059
0.931855
38.6416
0.894548
37.8539
0.857033
37.0405
0.819335
36.1988
0.781474
35.3261
0.743481
34.4197
0.705387
33.4774
0.667239
32.4974
0.629103
31.4806
0.591087
30.4314
0.55336
29.3603
0.516179
28.286
0.479903
27.2343
0.444974
26.2358
0.411853
25.32
0.380925
24.5099
0.352421
23.8183
0.326371
23.2475
0.302627
22.7914
0.280915
22.4387
0.260903
22.1756
0.242249
21.9884
0.22464
21.8645
0.207808
21.7929
0.191528
21.7645
0.175622
21.7718
0.159945
21.8088
0.144387
21.8706
0.12886
21.9531
0.113295
22.0532
0.0976375
22.1682
0.0818474
22.2962
0.0658918
22.4353
0.0497459
22.5841
0.0333909
22.7414
0.0168123
22.9062
0
23.0778
-0.0170533
23.2553
-0.034352
23.4383
-0.0518985
23.6262
-0.0696935
23.8186
-0.0877358
24.0151
-0.106023
24.2154
-0.124552
24.4192
-0.143317
24.6264
-0.162313
24.8366
-0.181535
25.0497
-0.200975
25.2656
-0.220626
25.4842
-0.240478
25.7052
-0.260525
25.9287
-0.280757
26.1545
-0.301163
26.3825
-0.321735
26.6127
-0.342462
26.8449
-0.363334
27.0792
-0.384339
27.3156
-0.405467
27.5538
-0.426705
27.794
-0.448044
28.036
-0.469469
28.2799
-0.490971
28.5257
-0.512536
28.7732
-0.534151
29.0224
-0.555805
29.2734
-0.577485
29.5261
-0.599178
29.7806
-0.620871
30.0367
-0.64255
30.2944
-0.664205
30.554
-0.685815
30.8143
-0.707392
31.0793
-0.728838
31.3364
-0.750413
31.6242
-0.771233
-0.794045
31.8248
39.6367
1.10157
-40.3065
38.9496
1.06254
38.2447
1.02322
37.5203
0.983627
36.7745
0.943789
36.0054
0.903728
35.2106
0.863468
34.3879
0.823039
33.5348
0.782474
32.6492
0.741819
31.7296
0.70114
30.7759
0.660536
29.7913
0.620165
28.7837
0.580265
27.7675
0.541173
26.7639
0.503319
25.7995
0.467175
24.9015
0.433175
24.0934
0.401621
23.3906
0.37263
22.7993
0.346124
22.3169
0.321875
21.9351
0.299566
21.6424
0.278848
21.4262
0.259387
21.2746
0.240883
21.1769
0.223082
21.1239
0.205778
21.108
0.188802
21.123
0.172021
21.1638
0.155331
21.2263
0.138648
21.3071
0.121908
21.4036
0.10506
21.5135
0.0880635
21.635
0.0708886
21.7666
0.0535107
21.907
0.0359119
22.0553
0.0180783
22.2105
0
22.3719
-0.0183298
22.5389
-0.0369152
22.7109
-0.0557584
22.8876
-0.0748595
23.0685
-0.0942173
23.2533
-0.113829
23.4417
-0.13369
23.6334
-0.153796
23.8283
-0.174142
24.0262
-0.194719
24.2268
-0.215522
24.4301
-0.236542
24.636
-0.25777
24.8442
-0.279197
25.0548
-0.300814
25.2677
-0.322611
25.4826
-0.344576
25.6997
-0.3667
25.9188
-0.388971
26.1399
-0.411377
26.363
-0.433908
26.5879
-0.45655
26.8147
-0.479291
27.0433
-0.50212
27.2737
-0.525023
27.5058
-0.547987
27.7397
-0.571
27.9754
-0.594048
28.2126
-0.617117
28.4516
-0.640195
28.6922
-0.663267
28.9345
-0.686319
29.1783
-0.709341
29.4239
-0.732308
29.6703
-0.755237
29.921
-0.778021
30.1645
-0.800933
30.4368
-0.823055
-0.847239
30.6272
37.7698
1.15567
-38.4221
37.1003
1.11429
36.4129
1.07259
35.7061
1.0306
34.978
0.988346
34.2267
0.945856
33.45
0.903158
32.6459
0.860287
31.8124
0.817289
30.948
0.774228
30.0525
0.7312
29.128
0.688351
28.1803
0.645903
27.2209
0.604172
26.2668
0.56357
25.3408
0.524569
24.4675
0.487632
23.6697
0.453123
22.9643
0.421233
22.3602
0.391962
21.858
0.365139
21.4525
0.340476
21.1342
0.31763
20.8923
0.296253
20.7155
0.276022
20.5937
0.256657
20.5177
0.237922
20.4801
0.219625
20.4744
0.201612
20.4954
0.183758
20.539
0.165967
20.6016
0.14816
20.6805
0.130277
20.7733
0.11227
20.8781
0.0941011
20.9934
0.0757403
21.1179
0.0571652
21.2504
0.0383582
21.3901
0.0193062
21.5362
0
21.6881
-0.0195668
21.8451
-0.0393982
22.0069
-0.0594958
22.173
-0.0798592
22.3431
-0.100487
22.5169
-0.121376
22.6941
-0.142522
22.8745
-0.163919
23.0579
-0.185562
23.2441
-0.207442
23.433
-0.229554
23.6244
-0.251887
23.8183
-0.274433
24.0145
-0.297182
24.213
-0.320124
24.4136
-0.343249
24.6163
-0.366545
24.8211
-0.390002
25.0278
-0.413606
25.2364
-0.437348
25.4469
-0.461213
25.6592
-0.485189
25.8734
-0.509265
26.0893
-0.533425
26.3069
-0.557658
26.5263
-0.581949
26.7473
-0.606285
26.97
-0.630652
27.1944
-0.655036
27.4203
-0.679422
27.6479
-0.703797
27.877
-0.728146
28.1076
-0.752456
28.3401
-0.776704
28.5732
-0.800904
28.8104
-0.824949
29.041
-0.849118
29.2986
-0.872465
-0.897932
29.4793
35.9738
1.20478
-36.6093
35.321
1.16114
34.6505
1.11718
33.9605
1.0729
33.2494
1.02835
32.5153
0.983545
31.7563
0.93853
30.9707
0.89335
30.1571
0.848068
29.3151
0.802776
28.4462
0.757612
27.5549
0.712785
26.6499
0.668591
25.7455
0.625421
24.8605
0.58374
24.0169
0.544026
23.2362
0.506685
22.5355
0.471979
21.9257
0.439979
21.4102
0.410579
20.9863
0.383531
20.6469
0.35851
20.3827
0.335166
20.1835
0.313159
20.0398
0.292187
19.9427
0.271988
19.8848
0.252347
19.8598
0.233086
19.8623
0.214065
19.8881
0.195168
19.9336
0.176305
19.9958
0.157405
20.0725
0.13841
20.1616
0.119275
20.2615
0.099965
20.3708
0.0804513
20.4885
0.0607122
20.6135
0.0407317
20.7452
0.0204972
20.8827
0
21.0256
-0.0207658
21.1733
-0.0418036
21.3254
-0.0631147
21.4816
-0.0846983
21.6416
-0.106553
21.805
-0.128674
21.9717
-0.151058
22.1414
-0.173699
22.314
-0.196589
22.4892
-0.219723
22.6671
-0.24309
22.8474
-0.266684
23.03
-0.290493
23.2149
-0.314508
23.4019
-0.338718
23.591
-0.363113
23.7821
-0.38768
23.9752
-0.412408
24.1702
-0.437285
24.3671
-0.462298
24.5658
-0.487434
24.7662
-0.51268
24.9684
-0.538022
25.1724
-0.563447
25.378
-0.588942
25.5852
-0.614491
25.7941
-0.640081
26.0046
-0.665696
26.2167
-0.691323
26.4303
-0.716947
26.6455
-0.742553
26.8623
-0.768124
27.0804
-0.79365
27.3003
-0.819104
27.5209
-0.844502
27.7455
-0.869734
27.9638
-0.895084
28.2074
-0.919584
-0.946249
28.3791
34.2459
1.24903
-34.8654
33.6091
1.20324
32.9546
1.15711
32.2809
1.11066
31.5862
1.06391
30.8689
1.01692
30.1275
0.969714
29.3607
0.922369
28.5681
0.874972
27.7507
0.827655
26.9119
0.780615
26.0588
0.73413
25.2028
0.688574
24.3601
0.644395
23.5496
0.602076
22.791
0.562054
22.1013
0.524644
21.4923
0.489987
20.9696
0.45804
20.5327
0.428606
20.1766
0.401387
19.8937
0.37604
19.6751
0.352219
19.5118
0.329603
19.3956
0.307909
19.3192
0.286899
19.2763
0.266375
19.2616
0.246176
19.2707
0.226173
19.3001
0.20626
19.3468
0.186355
19.4082
0.16639
19.4825
0.146313
19.5679
0.126081
19.663
0.10566
19.7666
0.0850253
19.8778
0.0641554
19.9958
0.0430348
20.1198
0.0216525
20.2493
0
20.3837
-0.0219278
20.5227
-0.0441339
20.6657
-0.0666191
20.8126
-0.0893824
20.963
-0.112421
21.1167
-0.135732
21.2735
-0.15931
21.4332
-0.183148
21.5956
-0.207239
21.7606
-0.231577
21.928
-0.256151
22.0978
-0.280954
22.2698
-0.305974
22.444
-0.331202
22.6203
-0.356626
22.7985
-0.382235
22.9788
-0.408016
23.1609
-0.433958
23.3449
-0.460048
23.5306
-0.486273
23.7181
-0.512619
23.9074
-0.539072
24.0983
-0.56562
24.2909
-0.592246
24.4851
-0.618938
24.681
-0.64568
24.8784
-0.672457
25.0773
-0.699255
25.2778
-0.726059
25.4798
-0.752852
25.6833
-0.77962
25.8883
-0.806346
26.0947
-0.833017
26.3028
-0.859608
26.5116
-0.886134
26.724
-0.912483
26.9307
-0.938942
27.1612
-0.964528
-0.992312
27.3242
32.5834
1.28854
-33.1875
31.9619
1.24071
31.3229
1.19252
30.6648
1.14399
29.9862
1.09517
29.2856
1.0461
28.562
0.996851
27.815
0.947505
27.0451
0.898195
26.2553
0.849105
25.4512
0.800501
24.6421
0.752735
23.8417
0.706242
23.0663
0.6615
22.3336
0.618964
21.6599
0.57899
21.0574
0.541777
20.533
0.507347
20.0881
0.475555
19.7197
0.44614
19.4219
0.418775
19.1869
0.393114
19.0067
0.368826
18.8735
0.34561
18.7803
0.32321
18.721
0.301406
18.6904
0.280021
18.6841
0.258908
18.6985
0.237948
18.7306
0.217046
18.7778
0.196125
18.8382
0.175124
18.9099
0.153993
18.9916
0.132692
19.082
0.111192
19.1802
0.0894666
19.2853
0.0674972
19.3966
0.0452695
19.5135
0.022773
19.6354
0
19.7618
-0.0230541
19.8925
-0.0463915
20.0271
-0.0700129
20.1652
-0.0939167
20.3067
-0.1181
20.4513
-0.142559
20.5987
-0.167287
20.749
-0.192279
20.9018
-0.217526
21.0571
-0.243022
21.2147
-0.268756
21.3746
-0.294719
21.5367
-0.320901
21.7008
-0.347291
21.8669
-0.373876
22.035
-0.400647
22.2049
-0.427588
22.3767
-0.45469
22.5503
-0.481937
22.7256
-0.509316
22.9026
-0.536815
23.0812
-0.564417
23.2615
-0.59211
23.4434
-0.619878
23.6269
-0.647706
23.8119
-0.675579
23.9985
-0.703482
24.1865
-0.7314
24.3761
-0.759316
24.5671
-0.787214
24.7595
-0.81508
24.9535
-0.842895
25.1487
-0.870647
25.3456
-0.89831
25.5431
-0.925898
25.7442
-0.953297
25.9398
-0.980799
26.1579
-1.00741
-1.03623
26.3126
30.9836
1.32344
-31.5731
30.377
1.27366
29.7529
1.22351
29.1102
1.17302
28.4475
1.12224
27.7638
1.07124
27.0589
1.0201
26.3332
0.968956
25.5889
0.917977
24.8308
0.86742
24.0666
0.817621
23.3077
0.768998
22.5683
0.722018
21.8642
0.677145
21.2104
0.634765
20.619
0.595126
20.0978
0.558305
19.6497
0.524213
19.2734
0.492629
18.9643
0.463252
18.716
0.435743
18.5214
0.409767
18.3734
0.385013
18.2653
0.361205
18.1913
0.338108
18.1462
0.315527
18.1257
0.2933
18.1263
0.271294
18.1448
0.249401
18.1788
0.227534
18.2261
0.205624
18.2851
0.183613
18.3542
0.161455
18.4323
0.139116
18.5182
0.116564
18.6112
0.0937786
18.7105
0.0707409
18.8154
0.047438
18.9255
0.0238599
19.0403
0
19.1593
-0.0241457
19.2822
-0.048579
19.4088
-0.0732997
19.5387
-0.0983063
19.6717
-0.123595
19.8077
-0.149162
19.9465
-0.175
20.0878
-0.201103
20.2317
-0.227464
20.3778
-0.254073
20.5263
-0.280922
20.6769
-0.307999
20.8295
-0.335295
20.9842
-0.362799
21.1407
-0.390497
21.2992
-0.418378
21.4594
-0.446429
21.6215
-0.474638
21.7852
-0.502989
21.9506
-0.53147
22.1177
-0.560065
22.2864
-0.588762
22.4566
-0.617543
22.6284
-0.646395
22.8017
-0.675302
22.9766
-0.704249
23.1529
-0.733219
23.3306
-0.762196
23.5098
-0.791165
23.6905
-0.820109
23.8725
-0.849011
24.0559
-0.877855
24.2406
-0.906626
24.4268
-0.935298
24.6138
-0.963885
24.804
-0.992273
24.9893
-1.02075
25.1955
-1.04832
-1.07812
25.3425
29.4443
1.35385
-30.0197
28.852
1.30222
28.2426
1.25022
27.6151
1.19788
26.9685
1.14528
26.3026
1.0925
25.6178
1.03967
24.916
0.986964
24.201
0.934619
23.4794
0.882959
22.7609
0.832386
22.0577
0.783355
21.3836
0.736329
20.7525
0.691715
20.176
0.649798
19.6622
0.610705
19.2152
0.574397
18.8349
0.5407
18.5181
0.509339
18.2597
0.479993
18.0534
0.452329
17.8929
0.426028
17.7718
0.400802
17.6846
0.376404
17.6265
0.352621
17.5931
0.329276
17.581
0.306223
17.587
0.283344
17.6087
0.260541
17.644
0.237733
17.691
0.214858
17.7484
0.191864
17.8149
0.168707
17.8893
0.145356
17.971
0.121782
18.059
0.0979654
18.1528
0.0738895
18.2517
0.049542
18.3554
0.0249141
18.4634
0
18.5754
-0.0252038
18.691
-0.0506984
18.8101
-0.0764832
18.9323
-0.102556
19.0574
-0.128913
19.1853
-0.155549
19.3159
-0.182458
19.4489
-0.209633
19.5843
-0.237065
19.7219
-0.264746
19.8617
-0.292666
20.0035
-0.320813
20.1473
-0.349179
20.293
-0.377749
20.4406
-0.406513
20.59
-0.435458
20.7411
-0.464569
20.894
-0.493835
21.0484
-0.523241
21.2046
-0.552771
21.3622
-0.582413
21.5215
-0.61215
21.6823
-0.641968
21.8445
-0.67185
22.0083
-0.701782
22.1735
-0.731746
22.3401
-0.761727
22.5081
-0.791708
22.6775
-0.821673
22.8483
-0.851605
23.0205
-0.881487
23.1939
-0.911301
23.3687
-0.941033
23.5449
-0.970656
23.7218
-1.00018
23.9019
-1.0295
24.0773
-1.0589
24.2724
-1.08737
-1.11808
24.4119
27.9633
1.37988
-28.5249
27.385
1.32651
26.7902
1.27277
26.1781
1.21872
25.5484
1.16445
24.9016
1.11009
24.2393
1.05581
23.5647
1.00184
22.8835
0.948485
22.2038
0.89614
21.5363
0.845244
20.8931
0.796254
20.2866
0.749587
19.7279
0.705555
19.2251
0.664328
18.7829
0.625914
18.4023
0.590181
18.0812
0.55689
17.8157
0.525737
17.6003
0.496399
17.4294
0.468557
17.2973
0.441915
17.1987
0.416212
17.129
0.391224
17.084
0.366761
17.0604
0.342664
17.055
0.318803
17.0654
0.29507
17.0894
0.271377
17.1255
0.247652
17.1719
0.223837
17.2275
0.199884
17.2913
0.175754
17.3623
0.151418
17.4398
0.12685
17.5231
0.10203
17.6116
0.0769454
17.7049
0.0515836
17.8026
0.0259367
17.9043
0
18.0096
-0.0262293
18.1184
-0.0527521
18.2304
-0.0795667
18.3453
-0.106671
18.463
-0.13406
18.5834
-0.161729
18.7062
-0.189671
18.8314
-0.217878
18.9588
-0.246343
19.0884
-0.275054
19.22
-0.304004
19.3536
-0.33318
19.4891
-0.362571
19.6264
-0.392165
19.7655
-0.42195
19.9064
-0.451913
20.0489
-0.482039
20.1931
-0.512315
20.3388
-0.542727
20.4861
-0.573259
20.635
-0.603897
20.7854
-0.634626
20.9372
-0.665429
21.0905
-0.696291
21.2452
-0.727195
21.4013
-0.758125
21.5587
-0.789065
21.7176
-0.819997
21.8777
-0.850905
22.0392
-0.881771
22.202
-0.912578
22.3661
-0.943307
22.5314
-0.973946
22.6982
-1.00446
22.8656
-1.03488
23.036
-1.06507
23.2021
-1.09533
23.3866
-1.12465
-1.15621
23.5192
26.5386
1.40167
-27.0867
25.9743
1.34666
25.3943
1.29131
24.7984
1.2357
24.187
1.17997
23.5614
1.12426
22.9246
1.06882
22.2815
1.01395
21.639
0.960006
21.0063
0.907428
20.3941
0.856662
19.8136
0.808128
19.2748
0.762158
18.7859
0.718952
18.3516
0.678561
17.9739
0.640893
17.6517
0.605743
17.3818
0.572835
17.1599
0.541857
16.9809
0.512493
16.8397
0.484445
16.7314
0.457445
16.6516
0.431256
16.5964
0.405678
16.5623
0.380541
16.5466
0.355703
16.5467
0.331049
16.5605
0.30648
16.5863
0.281918
16.6226
0.257298
16.6682
0.232566
16.722
0.207679
16.7831
0.182602
16.8507
0.157307
16.9242
0.131771
17.003
0.105977
17.0865
0.0799117
17.1745
0.0535644
17.2665
0.0269286
17.3622
0
17.4614
-0.0272235
17.5637
-0.0547419
17.669
-0.0825535
17.7772
-0.110655
17.8879
-0.139042
18.0011
-0.167708
18.1167
-0.196647
18.2345
-0.22585
18.3545
-0.255308
18.4764
-0.285013
18.6004
-0.314952
18.7262
-0.345116
18.8539
-0.375492
18.9833
-0.406069
19.1145
-0.436832
19.2473
-0.467769
19.3817
-0.498865
19.5177
-0.530107
19.6552
-0.56148
19.7943
-0.592968
19.9348
-0.624556
20.0767
-0.656229
20.2201
-0.68797
20.3649
-0.719763
20.5111
-0.751591
20.6586
-0.783438
20.8074
-0.815287
20.9576
-0.84712
21.109
-0.878919
21.2617
-0.910668
21.4157
-0.942349
21.5709
-0.973944
21.7273
-1.00544
21.8851
-1.0368
22.0435
-1.06805
22.2047
-1.09906
22.362
-1.13013
22.5366
-1.16025
-1.1926
22.6625
25.1687
1.41934
-25.7034
24.6187
1.36283
24.0542
1.30603
23.4757
1.24906
22.8845
1.19209
22.2832
1.13534
21.6759
1.0791
21.0688
1.02374
20.4698
0.969661
19.8884
0.917307
19.3344
0.867095
18.8172
0.819368
18.3442
0.774351
17.9206
0.732128
17.5486
0.692645
17.228
0.655732
16.9565
0.621139
16.7305
0.58857
16.5455
0.55772
16.3971
0.52829
16.2808
0.500007
16.1924
0.472629
16.1282
0.445945
16.085
0.419776
16.0599
0.393971
16.0507
0.368404
16.0551
0.34297
16.0716
0.317584
16.0986
0.292173
16.135
0.266678
16.1795
0.241052
16.2314
0.215255
16.2898
0.189256
16.3541
0.163028
16.4237
0.136551
16.4982
0.109809
16.5771
0.0827907
16.66
0.0554865
16.7467
0.0278908
16.8368
0
16.9301
-0.0281872
17.0264
-0.0566703
17.1255
-0.0854467
17.2272
-0.114513
17.3313
-0.143864
17.4379
-0.173493
17.5466
-0.203394
17.6575
-0.233557
17.7704
-0.263973
17.8853
-0.294633
18.002
-0.325526
18.1206
-0.356639
18.2409
-0.387961
18.3629
-0.419479
18.4865
-0.45118
18.6117
-0.483051
18.7385
-0.515076
18.8668
-0.547241
18.9966
-0.579532
19.1278
-0.611932
19.2605
-0.644426
19.3945
-0.676998
19.5299
-0.709632
19.6667
-0.74231
19.8048
-0.775017
19.9442
-0.807733
20.0849
-0.840444
20.2268
-0.87313
20.37
-0.905774
20.5144
-0.938359
20.66
-0.970865
20.8069
-1.00328
20.9548
-1.03557
21.1041
-1.06773
21.2541
-1.09976
21.4066
-1.13155
21.5556
-1.16338
21.7207
-1.19425
-1.22733
21.8403
23.8524
1.43305
-24.3732
23.3173
1.3752
22.7696
1.31715
22.2106
1.25906
21.6425
1.20116
21.069