/*--------------------------------*- C++ -*----------------------------------*\
| =========                 |                                                 |
| \\      /  F ield         | OpenFOAM: The Open Source CFD Toolbox           |
|  \\    /   O peration     | Version:  2312                                  |
|   \\  /    A nd           | Website:  www.openfoam.com                      |
|    \\/     M anipulation  |                                                 |
\*---------------------------------------------------------------------------*/
FoamFile
{
    version     2.0;
    format      ascii;
    arch        "LSB;label=32;scalar=64";
    class       surfaceScalarField;
    location    "0.327";
    object      phi;
}
// * * * * * * * * * * * * * * * * * * * * * * * * * * * * * * * * * * * * * //

dimensions      [0 3 -1 0 0 0 0];

oriented        oriented;

internalField   nonuniform List<scalar> 
62015
(
75.6834
0.147675
-75.2514
76.1001
0.145708
76.502
0.14361
76.89
0.141384
77.2647
0.139033
77.6268
0.13656
77.9769
0.133967
78.3156
0.131257
78.6434
0.128434
78.9607
0.125498
79.2682
0.122454
79.5662
0.119305
79.8552
0.116052
80.1356
0.112698
80.4076
0.109248
80.6718
0.105702
80.9284
0.102065
81.1777
0.0983386
81.42
0.0945261
81.6557
0.0906305
81.885
0.086655
82.108
0.082602
82.3251
0.0784748
82.5365
0.0742766
82.7423
0.07001
82.9428
0.0656787
83.1381
0.061285
83.3284
0.0568329
83.5138
0.0523252
83.6944
0.047765
83.8704
0.0431553
84.0418
0.0384998
84.2088
0.0338021
84.3714
0.0290642
84.5297
0.024291
84.6838
0.0194844
84.8336
0.0146489
84.9792
0.00978751
85.1206
0.00490308
85.2578
0
85.3907
-0.00491871
85.5195
-0.00985004
85.6439
-0.0147895
85.7639
-0.0197342
85.8795
-0.0246809
85.9905
-0.0296249
86.0969
-0.034564
86.1984
-0.0394932
86.295
-0.04441
86.3866
-0.0493105
86.4728
-0.0541906
86.5534
-0.0590466
86.6284
-0.0638751
86.6973
-0.0686726
86.7599
-0.0734345
86.8159
-0.0781577
86.865
-0.0828379
86.9067
-0.0874714
86.9407
-0.0920544
86.9665
-0.0965823
86.9836
-0.101052
86.9915
-0.105459
86.9895
-0.109798
86.9771
-0.114066
86.9534
-0.118259
86.9177
-0.122371
86.8691
-0.126399
86.8066
-0.130337
86.7292
-0.134181
86.6353
-0.137926
86.5245
-0.141564
86.393
-0.145095
86.2444
-0.148502
86.0637
-0.151801
85.865
-0.154938
85.649
-0.157979
85.4008
-0.160839
85.0216
-0.163645
-0.16583
84.8057
73.9834
0.293226
-73.5991
74.3549
0.289181
74.7137
0.284888
75.0603
0.280353
75.3955
0.275579
75.7197
0.270572
76.0335
0.265338
76.3374
0.259881
76.6318
0.254207
76.9172
0.248319
77.194
0.242225
77.4626
0.235927
77.7232
0.229433
77.9764
0.222747
78.2224
0.215874
78.4615
0.208821
78.6941
0.201591
78.9203
0.19419
79.1405
0.186625
79.3549
0.178901
79.5638
0.171022
79.7673
0.162996
79.9657
0.154827
80.1591
0.146522
80.3477
0.138086
80.5317
0.129525
80.7113
0.120845
80.8866
0.112053
81.0576
0.103153
81.2246
0.0941533
81.3877
0.0850586
81.5468
0.0758759
81.7022
0.0666109
81.8538
0.0572708
82.0018
0.047861
82.1461
0.0383886
82.2869
0.0288596
82.4241
0.0192807
82.5577
0.0096587
82.6878
0
82.8143
-0.00968876
82.9372
-0.0194009
83.0564
-0.0291299
83.1719
-0.0388688
83.2837
-0.0486106
83.3917
-0.0583488
83.4956
-0.068076
83.5955
-0.0777862
83.6913
-0.0874716
83.7827
-0.0971258
83.8696
-0.106741
83.9518
-0.116311
84.0291
-0.125828
84.1013
-0.135286
84.1682
-0.144676
84.2295
-0.153992
84.2848
-0.163227
84.3339
-0.172372
84.3765
-0.181421
84.4121
-0.190367
84.4403
-0.1992
84.4606
-0.207915
84.4726
-0.216502
84.4758
-0.224955
84.4695
-0.233264
84.453
-0.241423
84.4257
-0.249421
84.3867
-0.257251
84.3352
-0.264904
84.27
-0.272371
84.1905
-0.279641
84.0945
-0.286708
83.9823
-0.293551
83.851
-0.300177
83.6975
-0.306552
83.5159
-0.31269
83.3429
-0.318487
83.0594
-0.324295
-0.328956
82.9474
72.3099
0.43659
-71.9687
72.6399
0.430374
72.959
0.423805
73.2677
0.416889
73.5664
0.409634
73.8557
0.402046
74.136
0.394132
74.4077
0.3859
74.6713
0.377356
74.927
0.368508
75.1753
0.359362
75.4164
0.349925
75.6508
0.340206
75.8787
0.330211
76.1003
0.319948
76.3161
0.309425
76.5261
0.298649
76.7308
0.287628
76.9302
0.27637
77.1247
0.264883
77.3143
0.253174
77.4994
0.241253
77.6801
0.229126
77.8566
0.216803
78.0289
0.204292
78.1974
0.191601
78.362
0.178739
78.523
0.165714
78.6804
0.152536
78.8344
0.139213
78.985
0.125754
79.1324
0.112167
79.2766
0.0984626
79.4176
0.0846494
79.5555
0.0707359
79.6904
0.0567323
79.8223
0.0426477
79.9512
0.0284907
80.0771
0.0142717
80.2001
0
80.32
-0.014315
80.437
-0.0286637
80.5509
-0.0430366
80.6617
-0.0574233
80.7693
-0.0718144
80.8737
-0.0862006
80.9748
-0.100571
81.0725
-0.114916
81.1667
-0.129226
81.2572
-0.143491
81.344
-0.157701
81.4268
-0.171845
81.5055
-0.185914
81.5799
-0.199896
81.6497
-0.213782
81.7149
-0.227562
81.775
-0.241225
81.8298
-0.254761
81.8791
-0.268159
81.9225
-0.281408
81.9596
-0.294498
81.9901
-0.307417
82.0136
-0.320155
82.0295
-0.332702
82.0374
-0.345044
82.0367
-0.357173
82.0269
-0.369074
82.0073
-0.380736
81.9772
-0.392149
81.9357
-0.403298
81.8821
-0.41417
81.8151
-0.424755
81.734
-0.435033
81.637
-0.444998
81.5258
-0.454619
81.3867
-0.46393
81.2495
-0.472742
81.0337
-0.481534
-0.488903
80.9566
70.6488
0.577628
-70.3466
70.9415
0.569169
71.2247
0.560262
71.499
0.550914
71.7647
0.541135
72.0223
0.530932
72.2722
0.520314
72.5146
0.509291
72.75
0.49787
72.9786
0.48606
73.2008
0.473871
73.4169
0.46131
73.6272
0.448389
73.8318
0.435116
74.0311
0.4215
74.2254
0.407552
74.4147
0.39328
74.5994
0.378695
74.7797
0.363806
74.9557
0.348624
75.1276
0.333159
75.2957
0.317422
75.46
0.301421
75.6207
0.28517
75.7779
0.268677
75.9319
0.251954
76.0826
0.235012
76.2302
0.217862
76.3749
0.200516
76.5167
0.182983
76.6557
0.165276
76.7919
0.147406
76.9255
0.129385
77.0565
0.111225
77.1849
0.0929371
77.3109
0.0745334
77.4343
0.0560255
77.5552
0.0374262
77.6737
0.0187469
77.7898
0
77.9033
-0.0188021
78.0144
-0.0376472
78.123
-0.0565228
78.229
-0.075416
78.3324
-0.0943157
78.4332
-0.113207
78.5312
-0.13208
78.6264
-0.15092
78.7186
-0.169714
78.8079
-0.188451
78.894
-0.207117
78.9767
-0.225699
79.0561
-0.244184
79.1319
-0.26256
79.2038
-0.280812
79.2718
-0.298929
79.3356
-0.316896
79.3949
-0.334701
79.4496
-0.35233
79.4993
-0.369769
79.5437
-0.387006
79.5825
-0.404026
79.6153
-0.420816
79.6419
-0.437362
79.6616
-0.45365
79.6742
-0.469665
79.679
-0.485394
79.6756
-0.500822
79.6633
-0.515933
79.6415
-0.530713
79.6095
-0.545145
79.5665
-0.559216
79.5118
-0.572904
79.4434
-0.586202
79.3636
-0.599067
79.2624
-0.611549
79.1616
-0.623437
78.9931
-0.635249
-0.6454
78.9451
68.9971
0.716208
-68.7298
69.2562
0.705453
69.5072
0.694162
69.7505
0.682346
69.9864
0.670014
70.2154
0.657176
70.4376
0.643842
70.6535
0.630021
70.8634
0.615726
71.0674
0.600964
71.2659
0.585748
71.4592
0.570088
71.6475
0.553995
71.831
0.537479
72.0099
0.520553
72.1845
0.503227
72.3549
0.485513
72.5214
0.467424
72.684
0.448969
72.8431
0.430163
72.9988
0.411017
73.1511
0.391543
73.3003
0.371754
73.4465
0.351663
73.5898
0.331282
73.7303
0.310625
73.8682
0.289704
74.0035
0.268534
74.1363
0.247127
74.2668
0.225496
74.3949
0.203657
74.5208
0.181622
74.6445
0.159405
74.7661
0.137021
74.8857
0.114484
75.0031
0.0918072
75.1186
0.0690064
75.232
0.0460949
75.3435
0.0230878
75.4529
0
75.5604
-0.023154
75.6658
-0.0463596
75.7693
-0.0696016
75.8706
-0.0928646
75.9698
-0.116134
76.0669
-0.139395
76.1617
-0.162633
76.2543
-0.18583
76.3444
-0.208973
76.4321
-0.232047
76.5172
-0.255035
76.5995
-0.277922
76.6791
-0.300693
76.7556
-0.323332
76.829
-0.345824
76.8991
-0.368152
76.9657
-0.390301
77.0286
-0.412256
77.0876
-0.433999
77.1424
-0.455517
77.1928
-0.476791
77.2385
-0.497807
77.2792
-0.518548
77.3146
-0.538998
77.3443
-0.55914
77.3679
-0.578958
77.3851
-0.598435
77.3953
-0.617554
77.3981
-0.636297
77.393
-0.654648
77.3793
-0.672588
77.3563
-0.690099
77.3238
-0.707162
77.2798
-0.723764
77.2262
-0.739861
77.1549
-0.755503
77.085
-0.770467
76.9579
-0.785314
-0.798322
76.9341
67.3559
0.852221
-67.12
67.5849
0.839132
67.8069
0.825427
68.0223
0.811119
68.2314
0.796219
68.4345
0.780737
68.6318
0.764684
68.8237
0.748072
69.0104
0.730912
69.1922
0.713217
69.3692
0.694998
69.5418
0.676267
69.7101
0.657037
69.8743
0.637321
70.0346
0.61713
70.1913
0.59648
70.3444
0.575381
70.4942
0.553849
70.6409
0.531897
70.7845
0.509538
70.9252
0.486787
71.0631
0.463657
71.1985
0.440165
71.3313
0.416323
71.4618
0.392147
71.59
0.367652
71.716
0.342853
71.8399
0.317766
71.9618
0.292405
72.0817
0.266787
72.1998
0.240927
72.3161
0.214842
72.4307
0.188547
72.5435
0.162059
72.6547
0.135395
72.7643
0.108569
72.8722
0.0816006
72.9786
0.054505
73.0834
0.027299
73.1866
0
73.2883
-0.0273751
73.3884
-0.0548092
73.4868
-0.0822848
73.5837
-0.109785
73.6788
-0.137292
73.7723
-0.164789
73.8639
-0.192257
73.9537
-0.21968
74.0416
-0.24704
74.1275
-0.274318
74.2114
-0.301499
74.293
-0.328561
74.3723
-0.35549
74.4492
-0.382267
74.5235
-0.408873
74.5952
-0.435291
74.6639
-0.461502
74.7296
-0.487489
74.792
-0.513233
74.851
-0.538716
74.9064
-0.563921
74.9578
-0.588827
75.005
-0.613419
75.0478
-0.637675
75.0859
-0.661579
75.1189
-0.685111
75.1464
-0.708253
75.1682
-0.730985
75.1838
-0.753289
75.1927
-0.775144
75.1945
-0.796532
75.1885
-0.817432
75.1745
-0.837822
75.1511
-0.857689
75.1198
-0.876988
75.0736
-0.895767
75.029
-0.913796
74.9361
-0.931659
-0.947561
74.9326
65.7279
0.985585
-65.5201
65.9298
0.970136
66.1258
0.954
66.3161
0.937189
66.501
0.919715
66.6807
0.901589
66.8556
0.882824
67.0258
0.863433
67.1916
0.843429
67.3531
0.822824
67.5107
0.801631
67.6644
0.779865
67.8146
0.757539
67.9613
0.734667
68.1047
0.711263
68.245
0.687342
68.3824
0.662919
68.517
0.63801
68.6489
0.612627
68.7784
0.586789
68.9054
0.56051
69.0302
0.533807
69.1528
0.506695
69.2734
0.479192
69.3921
0.451313
69.5089
0.423076
69.624
0.394497
69.7373
0.365594
69.8491
0.336385
69.9594
0.306886
70.0682
0.277116
70.1756
0.247094
70.2816
0.216836
70.3863
0.186361
70.4898
0.155688
70.5919
0.124834
70.6929
0.0938203
70.7926
0.0626638
70.8912
0.0313841
70.9885
0
71.0847
-0.0314692
71.1797
-0.0630038
71.2734
-0.0945851
71.3659
-0.126193
71.457
-0.157809
71.5469
-0.189412
71.6354
-0.220982
71.7225
-0.252502
71.8081
-0.28395
71.8921
-0.315306
71.9745
-0.346551
72.0551
-0.377664
72.1339
-0.408626
72.2108
-0.439417
72.2856
-0.470016
72.3582
-0.500404
72.4285
-0.53056
72.4964
-0.560463
72.5615
-0.590095
72.6239
-0.619434
72.6832
-0.64846
72.7393
-0.677154
72.792
-0.705494
72.841
-0.73346
72.8861
-0.761031
72.9269
-0.788188
72.9632
-0.814909
72.9947
-0.841174
73.0211
-0.866962
73.0419
-0.89225
73.0567
-0.91702
73.0652
-0.941248
73.0669
-0.964911
73.0608
-0.987995
73.0482
-1.01045
73.0232
-1.03233
72.9999
-1.0534
72.9355
-1.07425
-1.09306
72.9485
64.1159
1.11624
-63.9332
64.2935
1.09842
64.466
1.07984
64.6337
1.06052
64.7967
1.04048
64.9554
1.01972
65.11
0.998258
65.2606
0.976108
65.4074
0.953283
65.5506
0.929798
65.6905
0.905667
65.8272
0.880905
65.9608
0.855527
66.0916
0.829549
66.2196
0.802985
66.3451
0.775852
66.4681
0.748166
66.5888
0.719945
66.7073
0.691203
66.8238
0.661959
66.9384
0.632231
67.0511
0.602034
67.1621
0.571389
67.2714
0.540311
67.3792
0.50882
67.4856
0.476935
67.5906
0.444674
67.6943
0.412056
67.7967
0.3791
67.898
0.345827
67.9982
0.312255
68.0974
0.278404
68.1955
0.244295
68.2926
0.209947
68.3888
0.175381
68.4841
0.140617
68.5785
0.105676
68.672
0.0705788
68.7647
0.0353465
68.8565
0
68.9475
-0.0354396
69.0375
-0.0709511
69.1267
-0.106513
69.215
-0.142104
69.3024
-0.177703
69.3887
-0.213287
69.4741
-0.248836
69.5584
-0.284326
69.6416
-0.319737
69.7237
-0.355047
69.8045
-0.390234
69.8839
-0.425275
69.962
-0.460149
70.0385
-0.494834
70.1134
-0.529308
70.1866
-0.563548
70.258
-0.597533
70.3274
-0.63124
70.3947
-0.664648
70.4596
-0.697734
70.5222
-0.730477
70.5821
-0.762853
70.6392
-0.794841
70.6933
-0.826419
70.7442
-0.857564
70.7916
-0.888255
70.8353
-0.918468
70.875
-0.948182
70.9104
-0.977374
70.9412
-1.00602
70.9672
-1.0341
70.9877
-1.06159
71.0028
-1.08847
71.0113
-1.11471
71.0144
-1.14028
71.0072
-1.16522
71.0018
-1.18929
70.9614
-1.21309
-1.23479
70.9881
62.5223
1.24414
-62.3623
62.6781
1.22394
62.8295
1.20293
62.9768
1.18111
63.1202
1.15851
63.2599
1.13513
63.396
1.11099
63.5289
1.08611
63.6585
1.06049
63.7852
1.03416
63.9091
1.00713
64.0302
0.979417
64.1489
0.951034
64.2651
0.922
64.3792
0.892332
64.4911
0.862047
64.601
0.831162
64.709
0.799696
64.8153
0.767666
64.9199
0.735091
65.023
0.70199
65.1247
0.668382
65.225
0.634286
65.324
0.599722
65.4219
0.56471
65.5186
0.52927
65.6144
0.493422
65.7091
0.457187
65.803
0.420586
65.896
0.38364
65.9882
0.346371
66.0797
0.3088
66.1705
0.270948
66.2606
0.232838
66.35
0.194491
66.4389
0.155931
66.5271
0.117179
66.6148
0.0782578
66.702
0.0391905
66.7885
0
66.8745
-0.0392908
66.96
-0.078659
67.0448
-0.118081
67.1291
-0.157534
67.2127
-0.196994
67.2957
-0.236438
67.378
-0.275842
67.4596
-0.315183
67.5404
-0.354436
67.6204
-0.39358
67.6994
-0.432588
67.7775
-0.471438
67.8546
-0.510106
67.9305
-0.548568
68.0053
-0.586801
68.0787
-0.62478
68.1507
-0.662481
68.2211
-0.699881
68.2899
-0.736956
68.3569
-0.773682
68.422
-0.810035
68.485
-0.845992
68.5457
-0.881528
68.604
-0.916621
68.6596
-0.951245
68.7125
-0.985378
68.7623
-1.019
68.8088
-1.05207
68.8518
-1.08459
68.8911
-1.11652
68.9263
-1.14783
68.9571
-1.17852
68.9833
-1.20854
69.0041
-1.23789
69.0205
-1.2665
69.0283
-1.29444
69.0379
-1.32147
69.0177
-1.34817
-1.37274
69.0556
60.9494
1.36926
-60.8098
61.0855
1.34669
61.2179
1.32324
61.3468
1.29894
61.4725
1.2738
61.595
1.24782
61.7146
1.22103
61.8313
1.19345
61.9455
1.16508
62.0571
1.13594
62.1664
1.10605
62.2735
1.07543
62.3786
1.04409
62.4816
1.01206
62.5829
0.979345
62.6825
0.945969
62.7804
0.91195
62.8769
0.877307
62.972
0.84206
63.0658
0.806229
63.1584
0.769833
63.25
0.732894
63.3405
0.695432
63.43
0.657467
63.5187
0.619022
63.6067
0.580119
63.6938
0.540778
63.7804
0.501023
63.8663
0.460875
63.9516
0.420357
64.0365
0.379493
64.1209
0.338306
64.2048
0.296818
64.2884
0.255053
64.3716
0.213036
64.4544
0.17079
64.5369
0.128338
64.6191
0.085707
64.7011
0.0429191
64.7827
0
64.864
-0.0430259
64.9451
-0.0861341
65.0258
-0.129299
65.1062
-0.172496
65.1862
-0.2157
65.2659
-0.258886
65.3452
-0.302028
65.4241
-0.345101
65.5024
-0.38808
65.5802
-0.430939
65.6575
-0.473653
65.7341
-0.516197
65.81
-0.558544
65.8851
-0.600669
65.9593
-0.642548
66.0326
-0.684153
66.1049
-0.725461
66.176
-0.766445
66.2458
-0.80708
66.3143
-0.847341
66.3813
-0.887202
66.4467
-0.926638
66.5102
-0.965623
66.5719
-1.00413
66.6315
-1.04214
66.6888
-1.07963
66.7436
-1.11656
66.7958
-1.15292
66.8452
-1.18867
66.8915
-1.2238
66.9344
-1.25828
66.9738
-1.29208
67.0094
-1.32518
67.0406
-1.35756
67.0681
-1.38917
67.0885
-1.42005
67.1107
-1.44999
67.1074
-1.47953
-1.50694
67.1546
59.399
1.49158
-59.2776
59.5174
1.46664
59.6327
1.44079
59.745
1.41402
59.8547
1.38635
59.9617
1.35781
60.0662
1.3284
60.1685
1.29815
60.2685
1.26706
60.3666
1.23516
60.4627
1.20246
60.557
1.16898
60.6497
1.13475
60.7408
1.09977
60.8304
1.06406
60.9187
1.02766
61.0058
0.990572
61.0917
0.952821
61.1766
0.914429
61.2605
0.875416
61.3436
0.835803
61.4258
0.795612
61.5074
0.754866
61.5882
0.713587
61.6685
0.671797
61.7483
0.62952
61.8276
0.586779
61.9066
0.543597
61.9852
0.499999
62.0634
0.456008
62.1415
0.41165
62.2193
0.366948
62.2969
0.321927
62.3743
0.276614
62.4517
0.231032
62.5289
0.185207
62.6061
0.139166
62.6831
0.0929338
62.7602
0.0465363
62.8371
0
62.914
-0.0466489
62.9909
-0.0933839
63.0677
-0.140178
63.1444
-0.187006
63.2209
-0.23384
63.2974
-0.280653
63.3737
-0.327419
63.4499
-0.37411
63.5258
-0.4207
63.6015
-0.467162
63.6768
-0.513469
63.7518
-0.559593
63.8264
-0.605507
63.9005
-0.651185
63.974
-0.6966
64.0469
-0.741723
64.1191
-0.786529
64.1905
-0.830991
64.261
-0.875082
64.3304
-0.918774
64.3988
-0.962041
64.466
-1.00486
64.5318
-1.04719
64.5961
-1.08903
64.6588
-1.13033
64.7197
-1.17107
64.7786
-1.21123
64.8355
-1.25078
64.8901
-1.28969
64.9422
-1.32794
64.9916
-1.3655
65.0381
-1.40235
65.0816
-1.43845
65.1214
-1.4738
65.1584
-1.50833
65.1893
-1.5421
65.222
-1.57488
65.233
-1.6072
-1.6374
65.2878
57.8726
1.61109
-57.7676
57.975
1.58381
58.0749
1.55556
58.1723
1.52635
58.2675
1.4962
58.3605
1.46512
58.4515
1.43312
58.5406
1.40024
58.6279
1.36648
58.7136
1.33185
58.7978
1.29639
58.8805
1.26011
58.9619
1.22303
59.0421
1.18516
59.1212
1.14653
59.1993
1.10716
59.2764
1.06707
59.3527
1.02628
59.4283
0.984816
59.5032
0.942695
59.5774
0.899942
59.6512
0.85658
59.7245
0.812632
59.7974
0.768122
59.87
0.723073
59.9423
0.677511
60.0144
0.63146
60.0863
0.584944
60.1581
0.53799
60.2298
0.490622
60.3015
0.442867
60.3733
0.39475
60.445
0.346298
60.5168
0.297537
60.5887
0.248494
60.6607
0.199196
60.7328
0.14967
60.8051
0.0999442
60.8775
0.0500448
60.95
0
61.0227
-0.0501625
61.0956
-0.100415
61.1686
-0.150729
61.2418
-0.201076
61.315
-0.25143
61.3884
-0.301759
61.4618
-0.352038
61.5353
-0.402237
61.6088
-0.452328
61.6823
-0.502282
61.7557
-0.552071
61.829
-0.601667
61.9021
-0.65104
61.975
-0.700162
62.0476
-0.749006
62.1199
-0.797542
62.1917
-0.845741
62.2631
-0.893577
62.3338
-0.941021
62.4039
-0.988043
62.4732
-1.03462
62.5416
-1.08071
62.6091
-1.12631
62.6754
-1.17137
62.7406
-1.21587
62.8043
-1.25978
62.8666
-1.30308
62.9273
-1.34573
62.9861
-1.38772
63.043
-1.42901
63.0978
-1.46957
63.1502
-1.50939
63.2002
-1.54842
63.2472
-1.58666
63.292
-1.62405
63.3317
-1.66063
63.3731
-1.69619
63.3961
-1.73124
-1.76418
63.4571
56.3714
1.7278
-56.2812
56.4595
1.6982
56.5455
1.66758
56.6294
1.63596
56.7116
1.60335
56.7919
1.56976
56.8706
1.53523
56.9479
1.49975
57.0237
1.46336
57.0982
1.42606
57.1715
1.38789
57.2437
1.34885
57.3149
1.30898
57.3852
1.26828
57.4547
1.22679
57.5234
1.18452
57.5915
1.14149
57.6591
1.09773
57.7261
1.05327
57.7927
1.00811
57.859
0.962294
57.9249
0.915839
57.9907
0.86877
58.0563
0.821112
58.1218
0.772889
58.1872
0.724129
58.2527
0.674857
58.3181
0.625098
58.3837
0.574879
58.4494
0.524228
58.5152
0.473172
58.5813
0.421737
58.6476
0.369951
58.7141
0.317842
58.7809
0.265439
58.848
0.21277
58.9154
0.159862
58.9832
0.106745
59.0512
0.0534483
59.1196
0
59.1884
-0.0535704
59.2575
-0.107234
59.3269
-0.160961
59.3966
-0.214721
59.4667
-0.268486
59.537
-0.322225
59.6076
-0.37591
59.6785
-0.429509
59.7496
-0.482993
59.8209
-0.536333
59.8923
-0.589498
59.9638
-0.642459
60.0354
-0.695185
60.1069
-0.747647
60.1785
-0.799816
60.2499
-0.85166
60.3212
-0.903151
60.3922
-0.95426
60.4629
-1.00496
60.5332
-1.05521
60.6031
-1.10499
60.6724
-1.15428
60.741
-1.20303
60.8089
-1.25122
60.8758
-1.29883
60.9418
-1.34582
61.0067
-1.39217
61.0704
-1.43785
61.1327
-1.48282
61.1935
-1.52707
61.2526
-1.57056
61.3099
-1.61326
61.3652
-1.65515
61.4182
-1.69621
61.4694
-1.73639
61.5165
-1.77572
61.5652
-1.81399
61.5982
-1.85171
-1.88733
61.6642
54.8964
1.84172
-54.8196
54.9717
1.80983
55.0451
1.77687
55.117
1.74287
55.1873
1.70783
55.2562
1.67178
55.3239
1.63474
55.3903
1.59672
55.4557
1.55774
55.5201
1.51782
55.5836
1.47699
55.6462
1.43526
55.7082
1.39265
55.7695
1.34918
55.8302
1.30488
55.8905
1.25978
55.9504
1.21388
56.0099
1.16722
56.0691
1.11982
56.1282
1.07171
56.1872
1.0229
56.246
0.973431
56.3049
0.923321
56.3637
0.872596
56.4227
0.821283
56.4818
0.76941
56.5411
0.717003
56.6007
0.664089
56.6605
0.610697
56.7206
0.556854
56.781
0.502589
56.8418
0.447931
56.903
0.392907
56.9647
0.337547
57.0267
0.281882
57.0893
0.225939
57.1523
0.169749
57.2158
0.113343
57.2798
0.0567498
57.3442
0
57.4092
-0.0568758
57.4747
-0.113847
57.5407
-0.170883
57.6072
-0.227953
57.6742
-0.285026
57.7416
-0.342071
57.8095
-0.399056
57.8778
-0.455951
57.9465
-0.512725
58.0155
-0.569347
58.0849
-0.625784
58.1546
-0.682007
58.2246
-0.737984
58.2947
-0.793684
58.365
-0.849076
58.4355
-0.904129
58.506
-0.958811
58.5764
-1.01309
58.6469
-1.06694
58.7171
-1.12033
58.7872
-1.17323
58.8569
-1.2256
58.9263
-1.27742
58.9952
-1.32866
59.0635
-1.37929
59.1312
-1.42927
59.1981
-1.47858
59.2641
-1.52719
59.3291
-1.57507
59.393
-1.6222
59.4556
-1.66853
59.5168
-1.71405
59.5765
-1.75872
59.6344
-1.80253
59.6909
-1.84542
59.744
-1.88742
59.7988
-1.92835
59.8402
-1.96866
-2.0069
59.9101
53.4486
1.95286
-53.3837
53.5122
1.91871
53.5744
1.88344
53.6353
1.8471
53.695
1.80968
53.7536
1.77121
53.8113
1.7317
53.868
1.69118
53.9239
1.64966
53.9791
1.60718
54.0337
1.56373
54.0877
1.51936
54.1413
1.47407
54.1944
1.4279
54.2472
1.38086
54.2998
1.33298
54.3521
1.28428
54.4044
1.23479
54.4565
1.18453
54.5087
1.13353
54.5609
1.08181
54.6133
1.0294
54.6658
0.976324
54.7186
0.922613
54.7716
0.868292
54.8249
0.81339
54.8785
0.757933
54.9326
0.701951
54.9871
0.645473
55.042
0.588528
55.0974
0.531145
55.1534
0.473354
55.2099
0.415186
55.2669
0.35667
55.3246
0.297836
55.3829
0.238717
55.4417
0.179343
55.5013
0.119743
55.5614
0.0599524
55.6222
0
55.6837
-0.0600818
55.7457
-0.120261
55.8085
-0.180506
55.8719
-0.240784
55.9358
-0.301064
56.0005
-0.361313
56.0657
-0.421499
56.1314
-0.48159
56.1978
-0.541552
56.2646
-0.601355
56.332
-0.660964
56.3998
-0.72035
56.4681
-0.779478
56.5367
-0.838316
56.6057
-0.896833
56.675
-0.954996
56.7446
-1.01277
56.8143
-1.07013
56.8842
-1.12704
56.9541
-1.18347
57.0241
-1.23939
57.0939
-1.29476
57.1637
-1.34956
57.2332
-1.40375
57.3024
-1.45731
57.3713
-1.5102
57.4396
-1.56239
57.5074
-1.61385
57.5745
-1.66455
57.6408
-1.71447
57.7062
-1.76357
57.7706
-1.81182
57.8338
-1.8592
57.8957
-1.90568
57.9565
-1.95121
58.0145
-1.99582
58.0742
-2.03933
58.1225
-2.08216
-2.12297
58.1955
52.0284
2.06125
-51.9743
52.0816
2.02487
52.1336
1.98734
52.1847
1.94868
52.2348
1.90892
52.2842
1.86807
52.3328
1.82614
52.3807
1.78317
52.4281
1.73917
52.4751
1.69416
52.5216
1.64816
52.5677
1.6012
52.6136
1.5533
52.6594
1.50447
52.7049
1.45476
52.7505
1.40417
52.796
1.35273
52.8416
1.30048
52.8873
1.24743
52.9332
1.19361
52.9793
1.13905
53.0257
1.08378
53.0724
1.02782
53.1195
0.971202
53.1671
0.913953
53.215
0.856102
53.2635
0.79768
53.3125
0.738714
53.3621
0.679236
53.4122
0.619276
53.463
0.558863
53.5145
0.49803
53.5666
0.436807
53.6194
0.375226
53.673
0.313317
53.7273
0.251115
53.7823
0.188649
53.8381
0.125953
53.8946
0.063059
53.9519
0
54.01
-0.0631912
54.0689
-0.126482
54.1285
-0.189838
54.1889
-0.253228
54.25
-0.316617
54.3119
-0.379973
54.3745
-0.443261
54.4379
-0.506448
54.5019
-0.569502
54.5666
-0.632388
54.6319
-0.695073
54.6978
-0.757523
54.7643
-0.819705
54.8314
-0.881586
54.899
-0.943132
54.967
-1.00431
55.0355
-1.06509
55.1043
-1.12543
55.1734
-1.18531
55.2428
-1.24469
55.3124
-1.30353
55.3822
-1.36182
55.452
-1.4195
55.5218
-1.47656
55.5915
-1.53296
55.6611
-1.58866
55.7305
-1.64365
55.7996
-1.69788
55.8682
-1.75132
55.9363
-1.80395
56.0039
-1.85574
56.0707
-1.90665
56.1367
-1.95666
56.2017
-2.00574
56.2659
-2.05384
56.328
-2.10099
56.3916
-2.14701
56.4457
-2.1923
-2.2356
56.5211
50.6365
2.16692
-50.592
50.6803
2.12835
50.7232
2.08858
50.7654
2.04766
50.8069
2.0056
50.8478
1.96241
50.8883
1.91812
50.9283
1.87274
50.968
1.8263
51.0074
1.77882
51.0466
1.73033
51.0857
1.68084
51.1247
1.63037
51.1637
1.57896
51.2027
1.52663
51.2419
1.47339
51.2812
1.41929
51.3207
1.36434
51.3606
1.30857
51.4007
1.25201
51.4412
1.19468
51.4822
1.13662
51.5236
1.07785
51.5656
1.0184
51.608
0.9583
51.6511
0.897582
51.6948
0.836275
51.7392
0.774408
51.7842
0.712014
51.83
0.649123
51.8765
0.585768
51.9238
0.52198
51.9718
0.45779
52.0207
0.393232
52.0704
0.328339
52.121
0.263143
52.1724
0.197677
52.2246
0.131976
52.2778
0.0660725
52.3318
0
52.3867
-0.0662072
52.4425
-0.132515
52.4992
-0.198889
52.5567
-0.265295
52.6151
-0.331699
52.6744
-0.398066
52.7345
-0.464362
52.7954
-0.530551
52.8572
-0.596601
52.9197
-0.662476
52.983
-0.728141
53.0471
-0.793562
53.1118
-0.858705
53.1772
-0.923535
53.2433
-0.988017
53.31
-1.05212
53.3772
-1.1158
53.445
-1.17904
53.5132
-1.24179
53.5819
-1.30403
53.6509
-1.36572
53.7203
-1.42682
53.7899
-1.48731
53.8597
-1.54714
53.9296
-1.6063
53.9996
-1.66474
54.0696
-1.72244
54.1395
-1.77935
54.2092
-1.83546
54.2787
-1.89073
54.3478
-1.94512
54.4164
-1.99862
54.4846
-2.05118
54.552
-2.10278
54.619
-2.15338
54.6843
-2.20299
54.7511
-2.25146
54.8098
-2.29914
-2.34486
54.8869
49.2731
2.2699
-49.2373
49.3085
2.22917
49.3432
2.18722
49.3774
2.14407
49.4111
2.09975
49.4445
2.05427
49.4776
2.00766
49.5105
1.95992
49.5432
1.9111
49.5759
1.86121
49.6085
1.81027
49.6411
1.7583
49.6739
1.70534
49.7067
1.6514
49.7398
1.59651
49.7732
1.5407
49.8069
1.48399
49.8409
1.42641
49.8754
1.36799
49.9103
1.30875
49.9457
1.24873
49.9817
1.18795
50.0183
1.12645
50.0555
1.06424
50.0933
1.00137
50.1319
0.937863
50.1712
0.87375
50.2113
0.809064
50.2521
0.743835
50.2938
0.678097
50.3364
0.611882
50.3798
0.545223
50.4241
0.478153
50.4693
0.410706
50.5154
0.342914
50.5625
0.274813
50.6105
0.206437
50.6595
0.137819
50.7095
0.0689956
50.7604
0
50.8123
-0.0691323
50.8652
-0.138366
50.919
-0.207666
50.9739
-0.276997
51.0296
-0.346324
51.0864
-0.41561
51.1441
-0.484822
51.2027
-0.553922
51.2622
-0.622876
51.3226
-0.691647
51.3839
-0.760201
51.446
-0.828502
51.509
-0.896514
51.5728
-0.964202
51.6373
-1.03153
51.7025
-1.09847
51.7685
-1.16497
51.8351
-1.23101
51.9023
-1.29655
51.97
-1.36156
52.0383
-1.426
52.1071
-1.48984
52.1762
-1.55304
52.2458
-1.61557
52.3156
-1.6774
52.3857
-1.7385
52.4559
-1.79882
52.5263
-1.85835
52.5967
-1.91704
52.667
-1.97486
52.7372
-2.03179
52.8072
-2.08779
52.877
-2.14283
52.9462
-2.19689
53.0153
-2.24991
53.0831
-2.30192
53.1523
-2.35276
53.2147
-2.40276
-2.45085
53.293
47.9386
2.37023
-47.9105
47.9663
2.32738
47.9937
2.28328
48.0207
2.23795
48.0475
2.19142
48.0741
2.1437
48.1005
2.09481
48.127
2.04477
48.1534
1.99362
48.1799
1.94136
48.2066
1.88803
48.2334
1.83365
48.2605
1.77825
48.2878
1.72184
48.3155
1.66446
48.3436
1.60613
48.3722
1.54688
48.4012
1.48674
48.4308
1.42573
48.4609
1.36389
48.4917
1.30124
48.5231
1.23782
48.5553
1.17365
48.5881
1.10877
48.6218
1.0432
48.6562
0.976977
48.6915
0.910137
48.7276
0.842709
48.7646
0.774726
48.8026
0.706221
48.8414
0.637228
48.8813
0.567781
48.9221
0.497914
48.9639
0.427661
49.0067
0.357056
49.0505
0.286136
49.0953
0.214935
49.1413
0.143488
49.1882
0.071831
49.2362
0
49.2853
-0.0719692
49.3354
-0.144041
49.3865
-0.216178
49.4388
-0.288345
49.492
-0.360506
49.5463
-0.432623
49.6017
-0.504661
49.658
-0.576582
49.7154
-0.648351
49.7737
-0.71993
49.833
-0.791284
49.8933
-0.862375
49.9544
-0.933168
50.0165
-1.00363
50.0794
-1.07371
50.1432
-1.14339
50.2077
-1.21263
50.273
-1.28139
50.3391
-1.34963
50.4058
-1.41733
50.4732
-1.48444
50.5412
-1.55093
50.6098
-1.61676
50.6788
-1.68191
50.7483
-1.74633
50.8182
-1.81
50.8884
-1.87287
50.9589
-1.93493
51.0296
-1.99612
51.1004
-2.05643
51.1713
-2.11581
51.2422
-2.17425
51.313
-2.23169
51.3837
-2.28813
51.4543
-2.34351
51.5239
-2.39784
51.5949
-2.45099
51.6604
-2.50324
-2.55362
51.7394
46.633
2.46795
-46.6119
46.6539
2.42302
46.6746
2.37682
46.6952
2.32935
46.7157
2.28065
46.7362
2.23073
46.7567
2.17962
46.7773
2.12733
46.7981
2.07389
46.8191
2.01933
46.8404
1.96367
46.8619
1.90693
46.8839
1.84914
46.9062
1.79032
46.929
1.73051
46.9524
1.66973
46.9762
1.608
47.0007
1.54536
47.0259
1.48184
47.0517
1.41746
47.0782
1.35226
47.1055
1.28626
47.1336
1.2195
47.1625
1.15201
47.1922
1.08381
47.2229
1.01496
47.2544
0.945464
47.2869
0.875372
47.3204
0.804712
47.3549
0.73352
47.3903
0.661828
47.4269
0.589674
47.4644
0.51709
47.503
0.444113
47.5427
0.370778
47.5835
0.297122
47.6254
0.223179
47.6684
0.148987
47.7126
0.0745815
47.7578
0
47.8042
-0.074721
47.8517
-0.149544
47.9003
-0.224433
47.95
-0.29935
48.0009
-0.374258
48.0529
-0.449119
48.1059
-0.523897
48.1601
-0.598553
48.2153
-0.67305
48.2716
-0.747351
48.3289
-0.821419
48.3873
-0.895215
48.4467
-0.968703
48.507
-1.04185
48.5683
-1.11461
48.6305
-1.18695
48.6937
-1.25883
48.7576
-1.33023
48.8224
-1.40109
48.888
-1.47139
48.9544
-1.54108
49.0215
-1.61014
49.0892
-1.67853
49.1576
-1.74621
49.2265
-1.81315
49.2959
-1.87931
49.3659
-1.94466
49.4362
-2.00916
49.5069
-2.07279
49.5779
-2.1355
49.6492
-2.19727
49.7206
-2.25806
49.7921
-2.31784
49.8636
-2.37659
49.9353
-2.43425
50.0063
-2.49084
50.0786
-2.54622
50.1463
-2.60066
-2.65327
50.2257
45.3563
2.56309
-45.3415
45.3712
2.51613
45.386
2.46786
45.4008
2.41831
45.4156
2.36748
45.4306
2.31542
45.4458
2.26213
45.4612
2.20764
45.4768
2.15198
45.4929
2.09516
45.5092
2.03722
45.5261
1.97818
45.5434
1.91806
45.5612
1.8569
45.5796
1.79471
45.5986
1.73154
45.6183
1.6674
45.6386
1.60233
45.6597
1.53635
45.6816
1.4695
45.7042
1.40181
45.7277
1.33331
45.7521
1.26403
45.7774
1.194
45.8036
1.12325
45.8308
1.05183
45.8589
0.979762
45.8881
0.90708
45.9183
0.83382
45.9495
0.760016
45.9819
0.685704
46.0153
0.61092
46.0498
0.535699
46.0855
0.460077
46.1223
0.384092
46.1603
0.30778
46.1994
0.231177
46.2397
0.154321
46.2812
0.0772497
46.3238
0
46.3676
-0.07739
46.4127
-0.154883
46.4589
-0.232439
46.5062
-0.310023
46.5548
-0.387595
46.6045
-0.465116
46.6554
-0.54255
46.7074
-0.619856
46.7606
-0.696998
46.8149
-0.773937
46.8703
-0.850635
46.9268
-0.927053
46.9844
-1.00315
47.043
-1.0789
47.1026
-1.15425
47.1633
-1.22917
47.2249
-1.30362
47.2875
-1.37757
47.351
-1.45097
47.4154
-1.52379
47.4806
-1.59599
47.5466
-1.66754
47.6134
-1.73841
47.6809
-1.80854
47.7491
-1.87792
47.8179
-1.94649
47.8874
-2.01424
47.9573
-2.08112
48.0278
-2.1471
48.0987
-2.21215
48.17
-2.27623
48.2416
-2.33931
48.3134
-2.40135
48.3854
-2.46234
48.4577
-2.52221
48.5296
-2.58099
48.6028
-2.63854
48.6722
-2.6951
-2.74987
48.7517
44.1086
2.65571
-44.0994
44.1181
2.60676
44.1275
2.55647
44.1371
2.50487
44.1469
2.45197
44.157
2.39781
44.1673
2.34239
44.178
2.28575
44.1891
2.22791
44.2006
2.1689
44.2127
2.10873
44.2252
2.04744
44.2383
1.98506
44.2521
1.9216
44.2665
1.85711
44.2816
1.7916
44.2974
1.72511
44.314
1.65767
44.3314
1.58931
44.3497
1.52006
44.3688
1.44994
44.3889
1.379
44.4099
1.30727
44.4318
1.23477
44.4548
1.16155
44.4788
1.08763
44.5038
1.01306
44.5299
0.937861
44.5571
0.862074
44.5854
0.785733
44.6148
0.708876
44.6454
0.631538
44.6771
0.553756
44.7101
0.475568
44.7442
0.39701
44.7795
0.31812
44.816
0.238936
44.8537
0.159496
44.8927
0.0798377
44.9329
0
44.9743
-0.0799787
45.017
-0.16006
45.0609
-0.240204
45.106
-0.320373
45.1524
-0.400527
45.1999
-0.480628
45.2487
-0.560636
45.2987
-0.640513
45.3498
-0.720218
45.4022