/*--------------------------------*- C++ -*----------------------------------*\
| =========                 |                                                 |
| \\      /  F ield         | OpenFOAM: The Open Source CFD Toolbox           |
|  \\    /   O peration     | Version:  2312                                  |
|   \\  /    A nd           | Website:  www.openfoam.com                      |
|    \\/     M anipulation  |                                                 |
\*---------------------------------------------------------------------------*/
FoamFile
{
    version     2.0;
    format      ascii;
    arch        "LSB;label=32;scalar=64";
    class       surfaceScalarField;
    location    "0.469";
    object      phi;
}
// * * * * * * * * * * * * * * * * * * * * * * * * * * * * * * * * * * * * * //

dimensions      [0 3 -1 0 0 0 0];

oriented        oriented;

internalField   nonuniform List<scalar> 
62015
(
57.9881
0.304899
-57.6464
58.3122
0.301842
58.6199
0.298449
58.9125
0.294728
59.1912
0.290687
59.4571
0.286333
59.7113
0.281672
59.9548
0.276713
60.1886
0.271462
60.4135
0.265925
60.6303
0.260108
60.84
0.25402
61.0432
0.247666
61.2406
0.241052
61.4331
0.234186
61.6211
0.227073
61.8054
0.219721
61.9864
0.212136
62.1649
0.204324
62.3413
0.196292
62.5162
0.188047
62.69
0.179595
62.8632
0.170943
63.0362
0.162098
63.2095
0.153067
63.3835
0.143856
63.5585
0.134472
63.735
0.124922
63.9132
0.115214
64.0935
0.105355
64.2761
0.0953503
64.4615
0.0852081
64.6498
0.0749365
64.8413
0.0645412
65.0362
0.0540307
65.2348
0.0434114
65.4373
0.0326918
65.6437
0.0218779
65.8544
0.0109782
66.0695
0
66.289
-0.0110495
66.5132
-0.0221617
66.7421
-0.0333307
66.9758
-0.0445469
67.2144
-0.0558042
67.4579
-0.0670938
67.7063
-0.0784088
67.9598
-0.0897403
68.2183
-0.101082
68.4817
-0.112425
68.7501
-0.123761
69.0234
-0.135084
69.3015
-0.146384
69.5844
-0.157655
69.8719
-0.168887
70.164
-0.180073
70.4605
-0.191206
70.7612
-0.202278
71.066
-0.213279
71.3746
-0.224202
71.6869
-0.23504
72.0026
-0.245784
72.3214
-0.256427
72.643
-0.266959
72.9672
-0.277374
73.2935
-0.287662
73.6216
-0.297816
73.9511
-0.307828
74.2816
-0.31769
74.6126
-0.327392
74.9436
-0.336928
75.274
-0.346288
75.6034
-0.355463
75.9306
-0.364448
76.2563
-0.373227
76.5763
-0.381809
76.8992
-0.390136
77.1983
-0.398337
-0.406018
77.5421
56.7925
0.606613
-56.4959
57.0742
0.600152
57.3419
0.593056
57.5966
0.585339
57.8394
0.577015
58.0713
0.568095
58.2931
0.558593
58.5059
0.548521
58.7104
0.537892
58.9074
0.526717
59.0976
0.51501
59.2819
0.502782
59.4608
0.490045
59.635
0.476812
59.8051
0.463095
59.9717
0.448905
60.1355
0.434256
60.2968
0.41916
60.4563
0.403628
60.6144
0.387674
60.7716
0.37131
60.9283
0.354549
61.085
0.337403
61.2421
0.319886
61.3999
0.30201
61.5589
0.283789
61.7193
0.265235
61.8815
0.246362
62.0459
0.227184
62.2127
0.207714
62.3822
0.187966
62.5547
0.167952
62.7304
0.147688
62.9095
0.127187
63.0923
0.106464
63.2791
0.0855311
63.4698
0.0644041
63.6649
0.0430969
63.8643
0.0216242
64.0683
0
64.2769
-0.0217609
64.4903
-0.0436437
64.7086
-0.0656342
64.9319
-0.0877174
65.1602
-0.109878
65.3936
-0.132101
65.6321
-0.154373
65.8757
-0.176677
66.1245
-0.198999
66.3784
-0.221324
66.6375
-0.243637
66.9016
-0.265922
67.1708
-0.288164
67.4449
-0.310349
67.7238
-0.332459
68.0076
-0.354482
68.2959
-0.376401
68.5888
-0.398201
68.886
-0.419866
69.1873
-0.441381
69.4926
-0.462731
69.8017
-0.483902
70.1142
-0.504876
70.4301
-0.525638
70.7489
-0.546175
71.0703
-0.566469
71.3941
-0.586505
71.7199
-0.606269
72.0474
-0.625744
72.376
-0.644915
72.7053
-0.663766
73.035
-0.682282
73.3645
-0.700445
73.693
-0.718245
74.0209
-0.735653
74.3447
-0.752683
74.6714
-0.769237
74.9798
-0.785525
-0.800905
75.3236
55.6144
0.904988
-55.3591
55.8571
0.894821
56.0878
0.883751
56.3074
0.871797
56.5169
0.858976
56.7172
0.845307
56.909
0.830806
57.0931
0.81549
57.2703
0.799376
57.4413
0.782481
57.6067
0.764821
57.7672
0.746415
57.9234
0.727278
58.0758
0.707427
58.225
0.686881
58.3716
0.665655
58.5161
0.643768
58.6589
0.621237
58.8005
0.598079
58.9414
0.574312
59.0819
0.549954
59.2225
0.525024
59.3636
0.499539
59.5056
0.473518
59.6488
0.44698
59.7935
0.419943
59.94
0.392427
60.0888
0.36445
60.24
0.336032
60.3939
0.307192
60.5508
0.27795
60.711
0.248326
60.8746
0.218339
61.042
0.188011
61.2132
0.15736
61.3885
0.126408
61.5681
0.0951757
61.7521
0.0636824
61.9406
0.0319507
62.1339
0
62.332
-0.032148
62.535
-0.0644717
62.743
-0.0969502
62.9561
-0.129562
63.1743
-0.162287
63.3978
-0.1951
63.6265
-0.227984
63.8605
-0.260914
64.0998
-0.293869
64.3443
-0.326827
64.5941
-0.359767
64.8491
-0.392667
65.1092
-0.425504
65.3745
-0.458256
65.6448
-0.490902
65.9201
-0.52342
66.2001
-0.555786
66.4849
-0.587981
66.7742
-0.61998
67.068
-0.651762
67.3659
-0.683305
67.6679
-0.714588
67.9738
-0.745586
68.2832
-0.77628
68.596
-0.806647
68.9118
-0.836663
69.2305
-0.866308
69.5516
-0.89556
69.8749
-0.924395
70.1999
-0.952793
70.5264
-0.98073
70.8538
-1.00819
71.1819
-1.03513
71.5098
-1.06156
71.8379
-1.08743
72.1633
-1.11275
72.4917
-1.1374
72.8059
-1.16164
-1.18468
73.1484
54.4403
1.19967
-54.2223
54.6478
1.18555
54.845
1.17028
55.0328
1.15389
55.2121
1.1364
55.3837
1.11783
55.5481
1.09821
55.7061
1.07755
55.8584
1.05587
56.0056
1.03319
56.1483
1.00954
56.287
0.984936
56.4223
0.959398
56.5547
0.932948
56.6847
0.905607
56.8128
0.877397
56.9394
0.848341
57.0651
0.818459
57.1901
0.787774
57.315
0.756309
57.4401
0.724086
57.5658
0.69113
57.6924
0.657461
57.8203
0.623105
57.9498
0.588085
58.0812
0.552426
58.2148
0.51615
58.3509
0.479283
58.4897
0.44185
58.6316
0.403876
58.7767
0.365385
58.9252
0.326403
59.0775
0.286956
59.2337
0.24707
59.3939
0.20677
59.5584
0.166084
59.7273
0.125037
59.9008
0.083656
60.079
0.0419681
60.262
0
60.4499
-0.042221
60.6429
-0.0846676
60.841
-0.127313
61.0443
-0.170128
61.2529
-0.213087
61.4667
-0.256161
61.6859
-0.299322
61.9105
-0.342542
62.1404
-0.385794
62.3758
-0.429049
62.6164
-0.47228
62.8624
-0.515457
63.1137
-0.558552
63.3702
-0.601538
63.6319
-0.644385
63.8987
-0.687066
64.1704
-0.729553
64.447
-0.771816
64.7283
-0.813827
65.0143
-0.855559
65.3047
-0.896982
65.5993
-0.938069
65.8981
-0.978791
66.2007
-1.01912
66.507
-1.05903
66.8167
-1.09849
67.1296
-1.13747
67.4453
-1.17594
67.7637
-1.21388
68.0843
-1.25126
68.4068
-1.28805
68.7309
-1.32422
69.0563
-1.35975
69.3822
-1.3946
69.709
-1.42874
70.0342
-1.46218
70.3624
-1.49478
70.68
-1.52681
-1.55743
71.0202
53.2662
1.49028
-53.0814
53.4419
1.472
53.6091
1.45236
53.7683
1.43138
53.9204
1.40908
54.066
1.38551
54.2057
1.36066
54.3401
1.33458
54.4698
1.30728
54.5954
1.27879
54.7174
1.24913
54.8363
1.21833
54.9526
1.1864
55.0667
1.15339
55.1792
1.1193
55.2904
1.08417
55.4007
1.04802
55.5107
1.01088
55.6205
0.97278
55.7307
0.933738
55.8416
0.893784
55.9535
0.852947
56.0667
0.811253
56.1816
0.768732
56.2984
0.725412
56.4175
0.681321
56.539
0.636488
56.6634
0.590945
56.7907
0.544718
56.9213
0.49784
57.0553
0.450339
57.1931
0.402248
57.3347
0.353597
57.4803
0.304416
57.6302
0.254738
57.7845
0.204593
57.9433
0.154015
58.1069
0.103036
58.2752
0.051686
58.4485
0
58.6268
-0.0519901
58.8102
-0.104252
58.9988
-0.156751
59.1927
-0.209455
59.392
-0.26233
59.5966
-0.315343
59.8066
-0.36846
60.0221
-0.421647
60.243
-0.47487
60.4694
-0.528095
60.7012
-0.581289
60.9384
-0.634418
61.181
-0.687446
61.4289
-0.74034
61.682
-0.793065
61.9404
-0.845588
62.2038
-0.897875
62.4723
-0.94989
62.7456
-1.0016
63.0237
-1.05297
63.3064
-1.10397
63.5936
-1.15456
63.885
-1.20471
64.1806
-1.25438
64.4801
-1.30355
64.7833
-1.35217
65.09
-1.40022
65.3999
-1.44765
65.7127
-1.49445
66.0282
-1.54056
66.3461
-1.58597
66.6661
-1.63063
66.9878
-1.67451
67.3107
-1.71759
67.6349
-1.75981
67.9587
-1.80118
68.2853
-1.84156
68.6043
-1.88123
-1.91932
68.9411
52.092
1.7765
-51.937
52.2395
1.7539
52.3797
1.72974
52.5133
1.70404
52.6409
1.67685
52.7632
1.64818
52.8806
1.61805
52.9937
1.5865
53.103
1.55355
53.2091
1.51923
53.3123
1.48356
53.4133
1.44657
53.5123
1.4083
53.6098
1.36876
53.7063
1.32799
53.8021
1.28602
53.8976
1.24287
53.9932
1.19857
54.0892
1.15316
54.1859
1.10667
54.2838
1.05912
54.383
1.01055
54.4839
0.960993
54.5868
0.910477
54.692
0.859038
54.7996
0.806707
54.91
0.753519
55.0235
0.699508
55.1401
0.644707
55.2602
0.589152
55.384
0.532878
55.5116
0.47592
55.6432
0.418314
55.779
0.360096
55.9192
0.301302
56.0639
0.24197
56.2132
0.182137
56.3674
0.121839
56.5264
0.0611138
56.6904
0
56.8596
-0.0614647
57.0339
-0.123242
57.2135
-0.185293
57.3985
-0.24758
57.5888
-0.310064
57.7846
-0.372706
57.9858
-0.435466
58.1925
-0.498305
58.4047
-0.561185
58.6224
-0.624065
58.8456
-0.686907
59.0743
-0.749669
59.3084
-0.812314
59.5478
-0.874801
59.7927
-0.937091
60.0427
-0.999145
60.298
-1.06092
60.5584
-1.12238
60.8238
-1.18349
61.094
-1.24419
61.369
-1.30447
61.6486
-1.36427
61.9327
-1.42356
62.2211
-1.48229
62.5136
-1.54044
62.81
-1.59795
63.1102
-1.6548
63.4139
-1.71093
63.7208
-1.76632
64.0307
-1.82093
64.3434
-1.87471
64.6585
-1.92764
64.9758
-1.97966
65.2949
-2.03075
65.6157
-2.08085
65.9368
-2.12997
66.2609
-2.17796
66.5796
-2.22509
-2.27051
66.9124
50.92
2.05806
-50.7915
51.0421
2.03101
51.1582
2.00222
51.2688
1.97172
51.3745
1.93955
51.4758
1.90573
51.5731
1.87028
51.667
1.83323
51.758
1.79462
51.8464
1.75447
51.9327
1.71281
52.0174
1.66968
52.1007
1.6251
52.1832
1.5791
52.2652
1.53171
52.347
1.48298
52.429
1.43292
52.5114
1.38158
52.5948
1.32898
52.6792
1.27516
52.7651
1.22017
52.8527
1.16402
52.9424
1.10676
53.0342
1.04842
53.1286
0.989043
53.2258
0.928663
53.3259
0.867319
53.4293
0.805047
53.536
0.741888
53.6464
0.67788
53.7605
0.613062
53.8787
0.547475
54.001
0.481159
54.1276
0.414155
54.2587
0.346503
54.3944
0.278246
54.5349
0.209425
54.6801
0.140082
54.8304
0.0702595
54.9857
0
55.1462
-0.0706533
55.3119
-0.141657
55.4829
-0.212968
55.6593
-0.284542
55.8412
-0.356336
56.0284
-0.428306
56.2212
-0.500406
56.4195
-0.572595
56.6233
-0.644825
56.8327
-0.717054
57.0475
-0.789237
57.2679
-0.861328
57.4937
-0.933284
57.725
-1.00506
57.9617
-1.07661
58.2037
-1.14789
58.4509
-1.21885
58.7033
-1.28946
58.9608
-1.35966
59.2233
-1.42942
59.4906
-1.49868
59.7627
-1.5674
60.0393
-1.63555
60.3204
-1.70306
60.6058
-1.76991
60.8953
-1.83605
61.1887
-1.90143
61.4859
-1.96601
61.7866
-2.02975
62.0905
-2.09261
62.3976
-2.15453
62.7073
-2.21549
63.0197
-2.27543
63.3342
-2.33432
63.6509
-2.39211
63.9685
-2.44878
64.2891
-2.5042
64.6064
-2.5586
-2.61123
64.9344
49.7526
2.33474
-49.6479
49.8521
2.30315
49.9466
2.26965
50.0365
2.23429
50.1225
2.19709
50.2049
2.15808
50.2842
2.11728
50.3608
2.07474
50.4352
2.03047
50.5077
1.98451
50.5787
1.93689
50.6487
1.88765
50.7179
1.83682
50.7867
1.78443
50.8555
1.73051
50.9246
1.67511
50.9942
1.61825
51.0648
1.55997
51.1365
1.50031
51.2098
1.43931
51.2848
1.377
51.3618
1.31343
51.441
1.24863
51.5228
1.18264
51.6073
1.11551
51.6947
1.04727
51.7854
0.977963
51.8794
0.907636
51.9769
0.836331
52.0783
0.764089
52.1836
0.690954
52.2929
0.616971
52.4066
0.542184
52.5246
0.466639
52.6472
0.390379
52.7744
0.313453
52.9065
0.235904
53.0434
0.157782
53.1854
0.0791311
53.3325
0
53.4847
-0.0795641
53.6423
-0.159513
53.8051
-0.2398
53.9734
-0.320375
54.1471
-0.40119
54.3263
-0.482196
54.5109
-0.563345
54.7011
-0.644588
54.8969
-0.725875
55.0982
-0.807156
55.305
-0.888383
55.5174
-0.969507
55.7352
-1.05048
55.9585
-1.13124
56.1872
-1.21176
56.4213
-1.29197
56.6606
-1.37183
56.9052
-1.4513
57.1549
-1.53031
57.4097
-1.60882
57.6694
-1.68679
57.9339
-1.76415
58.2031
-1.84088
58.4769
-1.91691
58.7551
-1.99219
59.0376
-2.06669
59.3241
-2.14035
59.6146
-2.21313
59.9088
-2.28497
60.2065
-2.35583
60.5075
-2.42566
60.8115
-2.49442
61.1185
-2.56207
61.4279
-2.62855
61.7398
-2.69381
62.0532
-2.75783
62.3696
-2.82049
62.6843
-2.88198
-2.94166
63.0071
48.5923
2.60638
-48.5087
48.6715
2.57018
48.7466
2.53192
48.8181
2.49165
48.8864
2.44939
48.9518
2.40517
49.0149
2.35903
49.0759
2.31099
49.1353
2.26109
49.1935
2.20935
49.2507
2.15582
49.3074
2.10053
49.3638
2.04352
49.4202
1.98481
49.477
1.92445
49.5346
1.86247
49.593
1.79891
49.6527
1.73382
49.7139
1.66723
49.7769
1.59918
49.8419
1.52971
49.9092
1.45887
49.9789
1.38669
50.0514
1.31322
50.1268
1.23851
50.2053
1.1626
50.2872
1.08553
50.3726
1.00735
50.4617
0.928105
50.5546
0.847845
50.6516
0.766615
50.7528
0.684463
50.8584
0.601439
50.9684
0.51759
51.083
0.432968
51.2023
0.34762
51.3265
0.261599
51.4556
0.174954
51.5898
0.0877374
51.729
0
51.8735
-0.0882062
52.0233
-0.176829
52.1784
-0.265815
52.3389
-0.355113
52.5049
-0.44467
52.6763
-0.534432
52.8532
-0.624345
53.0357
-0.714357
53.2237
-0.804414
53.4172
-0.894461
53.6163
-0.984446
53.8208
-1.07431
54.0309
-1.16401
54.2465
-1.25348
54.4674
-1.34268
54.6938
-1.43154
54.9254
-1.52001
55.1623
-1.60805
55.4044
-1.69559
55.6516
-1.78259
55.9037
-1.86898
56.1608
-1.95472
56.4226
-2.03976
56.689
-2.12403
56.96
-2.2075
57.2354
-2.2901
57.5149
-2.37178
57.7986
-2.4525
58.0861
-2.5322
58.3773
-2.61083
58.672
-2.68834
58.97
-2.76468
59.2711
-2.83981
59.575
-2.91366
59.8816
-2.98619
60.1903
-3.05737
60.5019
-3.12709
60.8132
-3.19548
-3.26203
61.1302
47.4412
2.87285
-47.3767
47.5023
2.83199
47.5601
2.78894
47.615
2.74374
47.6674
2.69641
47.7176
2.64699
47.7661
2.5955
47.8132
2.54199
47.8591
2.48649
47.9043
2.42902
47.9491
2.36963
47.9937
2.30836
48.0385
2.24523
48.0837
2.18029
48.1297
2.11358
48.1767
2.04513
48.225
1.975
48.2749
1.90321
48.3265
1.82981
48.3801
1.75485
48.436
1.67837
48.4943
1.60041
48.5554
1.52102
48.6193
1.44025
48.6863
1.35813
48.7567
1.27473
48.8304
1.19009
48.9079
1.10426
48.9891
1.01728
49.0743
0.929213
49.1636
0.840104
49.2572
0.750006
49.3551
0.658972
49.4576
0.567054
49.5648
0.474305
49.6767
0.380779
49.7935
0.286531
49.9152
0.191615
50.042
0.0960859
50.1739
0
50.3111
-0.0965871
50.4535
-0.19362
50.6012
-0.29104
50.7543
-0.388792
50.9129
-0.486819
51.0769
-0.585063
51.2464
-0.683467
51.4214
-0.781972
51.602
-0.880522
51.788
-0.979058
51.9796
-1.07752
52.1767
-1.17586
52.3792
-1.274
52.5873
-1.3719
52.8007
-1.4695
53.0195
-1.56673
53.2436
-1.66355
53.473
-1.75988
53.7076
-1.85568
53.9473
-1.95089
54.192
-2.04545
54.4416
-2.13929
54.6961
-2.23238
54.9552
-2.32464
55.219
-2.41603
55.4872
-2.50648
55.7597
-2.59594
56.0364
-2.68436
56.3171
-2.77168
56.6017
-2.85785
56.8899
-2.94281
57.1816
-3.02651
57.4766
-3.10889
57.7746
-3.18991
58.0756
-3.2695
58.3789
-3.34764
58.6853
-3.42421
58.9925
-3.49932
-3.57259
59.3034
46.3014
3.13406
-46.2537
46.3463
3.08851
46.3886
3.04065
46.4286
2.99051
46.4667
2.93811
46.5033
2.8835
46.5387
2.8267
46.5731
2.76776
46.6069
2.70669
46.6405
2.64355
46.674
2.57836
46.7078
2.51117
46.7421
2.44202
46.7772
2.37094
46.8134
2.29798
46.8509
2.22317
46.8899
2.14657
46.9307
2.06821
46.9736
1.98815
47.0187
1.90641
47.0663
1.82307
47.1165
1.73815
47.1695
1.65171
47.2256
1.56379
47.285
1.47446
47.3477
1.38375
47.414
1.29173
47.4841
1.19843
47.558
1.10392
47.636
1.00826
47.7182
0.911481
47.8047
0.813654
47.8956
0.714832
47.9911
0.615071
48.0913
0.514427
48.1962
0.412959
48.306
0.310723
48.4208
0.207779
48.5407
0.104184
48.6656
0
48.7958
-0.104715
48.9312
-0.209901
49.072
-0.315498
49.2181
-0.421444
49.3696
-0.527678
49.5265
-0.634141
49.6889
-0.740769
49.8568
-0.847501
50.0302
-0.954276
50.2091
-1.06103
50.3934
-1.16771
50.5832
-1.27424
50.7785
-1.38056
50.9792
-1.48662
51.1854
-1.59235
51.3968
-1.69769
51.6136
-1.80258
51.8357
-1.90695
52.0629
-2.01074
52.2952
-2.1139
52.5326
-2.21636
52.7749
-2.31806
53.0221
-2.41893
53.274
-2.51893
53.5306
-2.61799
53.7916
-2.71605
54.0571
-2.81305
54.3268
-2.90893
54.6006
-3.00364
54.8784
-3.09711
55.16
-3.1893
55.4452
-3.28013
55.7338
-3.36956
56.0257
-3.45753
56.3207
-3.54398
56.6184
-3.62888
56.9191
-3.71212
57.2217
-3.79375
-3.87355
57.5262
45.1743
3.38992
-45.1418
45.2048
3.33968
45.2332
3.28701
45.2599
3.23194
45.2853
3.1745
45.3096
3.11472
45.3332
3.05265
45.3563
2.98831
45.3792
2.92174
45.4023
2.85298
45.4256
2.78207
45.4496
2.70904
45.4745
2.63395
45.5004
2.55683
45.5277
2.47772
45.5566
2.39666
45.5872
2.31371
45.6199
2.22891
45.6548
2.14231
45.6921
2.05395
45.7321
1.96388
45.7748
1.87216
45.8206
1.77883
45.8695
1.68395
45.9218
1.58756
45.9776
1.48973
46.037
1.39051
46.1003
1.28995
46.1675
1.1881
46.2388
1.08504
46.3143
0.980802
46.3942
0.875459
46.4786
0.769066
46.5675
0.661683
46.6611
0.553369
46.7596
0.444187
46.8628
0.334197
46.9711
0.22346
47.0844
0.112041
47.2028
0
47.3263
-0.112598
47.4552
-0.22569
47.5892
-0.339212
47.7287
-0.4531
47.8734
-0.567288
48.0236
-0.681712
48.1792
-0.796308
48.3403
-0.911009
48.5068
-1.02575
48.6787
-1.14047
48.8561
-1.25509
49.0389
-1.36956
49.2272
-1.4838
49.4209
-1.59776
49.6199
-1.71136
49.8242
-1.82455
50.0339
-1.93725
50.2487
-2.0494
50.4687
-2.16093
50.6939
-2.27178
50.924
-2.38189
51.1592
-2.49119
51.3991
-2.59962
51.6439
-2.7071
51.8933
-2.81359
52.1473
-2.91902
52.4057
-3.02332
52.6684
-3.12643
52.9353
-3.2283
53.2062
-3.32885
53.481
-3.42803
53.7596
-3.52579
54.0417
-3.62205
54.3273
-3.71677
54.6161
-3.80988
54.9078
-3.90133
55.2025
-3.99105
55.4999
-4.07901
-4.16517
55.7979
44.0615
3.64041
-44.0425
44.079
3.58548
44.095
3.528
44.1098
3.46802
44.1238
3.40556
44.1372
3.34066
44.1502
3.27335
44.1631
3.20367
44.1763
3.13166
44.1899
3.05736
44.2041
2.9808
44.2193
2.90203
44.2356
2.82109
44.2532
2.73802
44.2725
2.65287
44.2936
2.56568
44.3166
2.47651
44.3419
2.38539
44.3695
2.29239
44.3998
2.19754
44.4328
2.1009
44.4688
2.00253
44.5078
1.90247
44.5502
1.80079
44.5959
1.69753
44.6453
1.59275
44.6984
1.48651
44.7554
1.37887
44.8164
1.26988
44.8815
1.15962
44.9509
1.04812
45.0246
0.935472
45.1028
0.821719
45.1857
0.706929
45.2732
0.591166
45.3654
0.474492
45.4626
0.356973
45.5647
0.238675
45.6718
0.119661
45.784
0
45.9013
-0.120243
46.0238
-0.241001
46.1516
-0.362206
46.2846
-0.483791
46.423
-0.605687
46.5667
-0.727826
46.7158
-0.85014
46.8703
-0.972559
47.0302
-1.09502
47.1955
-1.21744
47.3662
-1.33976
47.5423
-1.46191
47.7237
-1.58383
47.9105
-1.70543
48.1027
-1.82665
48.3001
-1.94743
48.5028
-2.06769
48.7106
-2.18737
48.9236
-2.3064
49.1417
-2.4247
49.3648
-2.54221
49.5929
-2.65887
49.8258
-2.7746
50.0634
-2.88934
50.3058
-3.00303
50.5527
-3.11558
50.8041
-3.22695
51.0598
-3.33707
51.3197
-3.44587
51.5838
-3.55328
51.8518
-3.65925
52.1236
-3.76371
52.3991
-3.8666
52.6781
-3.96786
52.9605
-4.06742
53.246
-4.16524
53.5345
-4.26124
53.8264
-4.35536
-4.4477
54.1177
42.9641
3.88548
-42.9571
42.97
3.82587
42.975
3.76362
42.9792
3.69876
42.9829
3.63133
42.9865
3.56135
42.99
3.48886
42.9939
3.41391
42.9982
3.33652
43.0033
3.25675
43.0094
3.17462
43.0166
3.0902
43.0252
3.0035
43.0354
2.9146
43.0474
2.82352
43.0614
2.73031
43.0776
2.63504
43.0961
2.53774
43.1172
2.43847
43.141
2.33727
43.1677
2.23422
43.1974
2.12934
43.2304
2.02272
43.2667
1.91439
43.3065
1.80442
43.35
1.69287
43.3973
1.5798
43.4484
1.46526
43.5037
1.34933
43.563
1.23205
43.6267
1.1135
43.6947
0.993743
43.7672
0.872837
43.8443
0.75085
43.9261
0.627849
44.0126
0.503901
44.104
0.379074
44.2003
0.253435
44.3016
0.127054
44.4079
0
44.5193
-0.127658
44.6359
-0.255849
44.7576
-0.384502
44.8846
-0.513547
45.0169
-0.642912
45.1544
-0.772526
45.2973
-0.902317
45.4455
-1.03221
45.5991
-1.16214
45.758
-1.29203
45.9222
-1.42181
46.0918
-1.5514
46.2667
-1.68073
46.4468
-1.80974
46.6323
-1.93834
46.823
-2.06647
47.0189
-2.19405
47.2199
-2.32102
47.4261
-2.44729
47.6373
-2.57281
47.8535
-2.69749
48.0746
-2.82127
48.3005
-2.94407
48.5312
-3.06583
48.7665
-3.18648
49.0065
-3.30595
49.2509
-3.42416
49.4996
-3.54106
49.7527
-3.65657
50.0098
-3.77063
50.271
-3.88317
50.536
-3.99413
50.8048
-4.10344
51.0772
-4.21104
51.3531
-4.31686
51.6322
-4.42085
51.9143
-4.52294
52.2003
-4.62303
-4.72136
52.4849
41.883
4.12513
-41.8868
41.8787
4.06088
41.8738
3.99389
41.8685
3.92419
41.8631
3.85182
41.8579
3.77682
41.853
3.69922
41.8487
3.61906
41.8452
3.53637
41.8427
3.45121
41.8413
3.36361
41.8414
3.27362
41.8431
3.18127
41.8466
3.08663
41.8521
2.98974
41.8597
2.89064
41.8696
2.78938
41.8821
2.68603
41.8972
2.58063
41.9152
2.47323
41.9361
2.3639
41.9602
2.25268
41.9875
2.13964
42.0183
2.02484
42.0527
1.90833
42.0907
1.79018
42.1326
1.67045
42.1785
1.5492
42.2283
1.4265
42.2824
1.30241
42.3407
1.17699
42.4034
1.05032
42.4706
0.922461
42.5424
0.793482
42.6188
0.663451
42.7
0.532439
42.7859
0.400517
42.8767
0.267755
42.9725
0.134226
43.0732
0
43.1791
-0.134848
43.29
-0.270247
43.406
-0.40612
43.5273
-0.542397
43.6537
-0.679001
43.7854
-0.815857
43.9223
-0.952892
44.0645
-1.09003
44.2119
-1.2272
44.3647
-1.36431
44.5227
-1.50131
44.686
-1.6381
44.8545
-1.77462
45.0283
-1.9108
45.2073
-2.04654
45.3915
-2.18179
45.5808
-2.31646
45.7752
-2.45047
45.9747
-2.58377
46.1791
-2.71626
46.3885
-2.84788
46.6028
-2.97855
46.8219
-3.1082
47.0458
-3.23675
47.2742
-3.36414
47.5073
-3.49029
47.7448
-3.61514
47.9866
-3.7386
48.2328
-3.86061
48.4831
-3.98111
48.7374
-4.10001
48.9957
-4.21727
49.2577
-4.3328
49.5234
-4.44654
49.7926
-4.55842
50.0653
-4.66839
50.3408
-4.7764
50.6208
-4.88227
-4.98642
50.8985
40.8192
4.35936
-40.8324
40.8057
4.2905
40.792
4.21881
40.7783
4.14433
40.7648
4.06709
40.7517
3.98713
40.7393
3.90448
40.7277
3.81918
40.7171
3.73128
40.7078
3.64081
40.6999
3.54782
40.6936
3.45237
40.6891
3.35448
40.6865
3.25421
40.6861
3.15161
40.688
3.04674
40.6923
2.93963
40.6992
2.83035
40.7089
2.71896
40.7216
2.6055
40.7373
2.49004
40.7562
2.37263
40.7785
2.25333
40.8042
2.13221
40.8336
2.00933
40.8666
1.88475
40.9036
1.75853
40.9445
1.63075
40.9894
1.50146
41.0385
1.37073
41.0919
1.23864
41.1497
1.10525
41.2119
0.970635
41.2787
0.834862
41.3501
0.698004
41.4262
0.560133
41.507
0.421323
41.5927
0.281648
41.6833
0.141182
41.7788
-2.84287e-07
41.8793
-0.141822
41.9848
-0.284209
42.0955
-0.427083
42.2112
-0.570369
42.3321
-0.713987
42.4581
-0.857862
42.5894
-1.00192
42.7258
-1.14607
42.8674
-1.29024
43.0142
-1.43436
43.1663
-1.57835
43.3235
-1.72212
43.4859
-1.8656
43.6535
-2.0087
43.8263
-2.15136
44.0041
-2.2935
44.187
-2.43502
44.375
-2.57587
44.568
-2.71595
44.7659
-2.8552
44.9687
-2.99353
45.1763
-3.13087
45.3887
-3.26715
45.6058
-3.40228
45.8275
-3.53619
46.0537
-3.66882
46.2844
-3.80007
46.5195
-3.92989
46.7588
-4.0582
47.0023
-4.18492
47.2498
-4.30999
47.5013
-4.43334
47.7566
-4.55489
48.0155
-4.67459
48.2781
-4.79235
48.5441
-4.90811
48.8131
-5.02184
49.0868
-5.13332
-5.2431
49.3576
39.7732
4.5882
-39.7949
39.7516
4.51478
39.7301
4.43844
39.7089
4.35923
39.6882
4.27718
39.6682
4.19232
39.649
4.10469
39.6309
4.01434
39.6141
3.9213
39.5987
3.82562
39.5849
3.72735
39.5729
3.62652
39.5628
3.52319
39.5548
3.41741
39.549
3.30923
39.5457
3.1987
39.545
3.08587
39.547
2.9708
39.5518
2.85354
39.5596
2.73416
39.5706
2.61271
39.5848
2.48926
39.6024
2.36386
39.6235
2.23658
39.6483
2.10749
39.6768
1.97664
39.7092
1.84411
39.7455
1.70996
39.7859
1.57426
39.8305
1.43709
39.8793
1.2985
39.9325
1.15858
39.9901
1.0174
40.0522
0.875027
40.1189
0.731537
40.1902
0.587007
40.2662
0.441511
40.3471
0.295126
40.4328
0.14793
40.5233
0
40.6188
-0.148586
40.7192
-0.297749
40.8247
-0.44741
40.9352
-0.597489
41.0508
-0.747906
41.1715
-0.898582
41.2972
-1.04943
41.4281
-1.20038
41.5642
-1.35135
41.7053
-1.50225
41.8516
-1.653
42.003
-1.80352
42.1595
-1.95374
42.3211
-2.10356
42.4878
-2.25291
42.6595
-2.40171
42.8363
-2.54988
43.018
-2.69733
43.2046
-2.84399
43.3961
-2.98977
43.5925
-3.1346
43.7936
-3.2784
43.9994
-3.42109
44.2099
-3.56258
44.425
-3.70281
44.6446
-3.8417
44.8686
-3.97916
45.0969
-4.11513
45.3295
-4.24953
45.5662
-4.38229
45.8069
-4.51332
46.0517
-4.64257
46.3002
-4.76995
46.5525
-4.8954
46.8083
-5.01886
47.0677
-5.14023
47.33
-5.2595
47.5973
-5.37641
-5.49166
47.8613
38.7458
4.81167
-38.7749
38.717
4.73374
38.6885
4.65282
38.6607
4.56894
38.6335
4.48214
38.6073
4.39246
38.5822
4.29994
38.5584
4.20461
38.5359
4.10653
38.5151
4.00573
38.4961
3.90226
38.4789
3.79617
38.4638
3.68751
38.451
3.57632
38.4405
3.46267
38.4325
3.3466
38.4272
3.22817
38.4247
3.10744
38.4251
2.98446
38.4286
2.8593
38.4352
2.73201
38.4452
2.60266
38.4586
2.47131
38.4755
2.33803
38.496
2.20288
38.5204
2.06593
38.5485
1.92725
38.5807
1.78691
38.6169
1.64498
38.6572
1.50153
38.7018
1.35663
38.7507
1.21036
38.804
1.0628
38.8617
0.914011
38.924
0.764081
38.9909
0.613084
39.0624
0.461098
39.1387
0.308202
39.2197
0.154476
39.3056
0
39.3963
-0.155146
39.492
-0.31088
39.5925
-0.46712
39.6981
-0.623785
39.8086
-0.780791
39.9241
-0.938055
40.0447
-1.0955
40.1703
-1.25303
40.301
-1.41057
40.4367
-1.56803
40.5774
-1.72534
40.7232
-1.8824
40.874
-2.03914
41.0298
-2.19547
41.1907
-2.3513
41.3564
-2.50655
41.5272
-2.66114
41.7028
-2.81499
41.8833
-2.96801
42.0686
-3.12012
42.2586
-3.27123
42.4534
-3.42128
42.6529
-3.57017
42.8569
-3.71782
43.0655
-3.86416
43.2785
-4.00911
43.4959
-4.15258
43.7176
-4.29451
43.9435
-4.4348
44.1735
-4.57339
44.4076
-4.7102
44.6456
-4.84516
44.8875
-4.97819
45.133
-5.10922
45.3822
-5.23818
45.635
-5.36498
45.8906
-5.48963
46.1514
-5.61179
-5.73233
46.4085
37.7372
5.02982
-37.7729
37.7021
4.94744
37.6675
4.86199
37.6338
4.77351
37.601
4.68204
37.5693
4.58761
37.5389
4.49028
37.5099
4.39006
37.4825
4.28702
37.4569
4.1812
37.4332
4.07264
37.4115
3.96139
37.3919
3.8475
37.3747
3.73103
37.36
3.61202
37.3479
3.49054
37.3385
3.36664
37.3319
3.24037
37.3283
3.1118
37.3279
2.98099
37.3306
2.84801
37.3367
2.7129
37.3462
2.57575
37.3593
2.43662
37.376
2.29557
37.3965
2.15268
37.4208
2.00802
37.4491
1.86165
37.4814
1.71365
37.5178
1.5641
37.5585
1.41307
37.6034
1.26063
37.6526
1.10686
37.7063
0.951849
37.7645
0.795664
37.8272
0.638389
37.8945
0.480103
37.9665
0.320888
38.0431
0.160826
38.1246
0
38.2108
-0.161508
38.3018
-0.323614
38.3977
-0.486233
38.4985
-0.64928
38.6042
-0.812673
38.7149
-0.976323
38.8305
-1.14015
38.951
-1.30406
39.0765
-1.46797
39.207
-1.63179
39.3424
-1.79545
39.4828
-1.95884
39.6281
-2.12189
39.7783
-2.28451
39.9335
-2.44661
40.0935
-2.60811
40.2584
-2.76892
40.4282
-2.92896
40.6027
-3.08814
40.7819
-3.24637
40.9659
-3.40357
41.1545
-3.55966
41.3477
-3.71455
41.5454
-3.86817
41.7476
-4.02042
41.9542
-4.17123
42.1651
-4.32052
42.3803
-4.4682
42.5997
-4.6142
42.8231
-4.75844
43.0506
-4.90083
43.282
-5.04132
43.5172
-5.17981
43.7561
-5.31623
43.9986
-5.45052
44.2448
-5.58259
44.4937
-5.71243
44.7481
-5.83969
-5.96534
44.9984
36.7479
5.2427
-36.7894
36.7072
5.15593
36.6672
5.06602
36.6283
4.97302
36.5905
4.87695
36.554
4.77786
36.5189
4.67579
36.4854
4.57078
36.4537
4.46287
36.4238
4.35212
36.3959
4.23857
36.3701
4.12226
36.3467
4.00326
36.3256
3.88161
36.3071
3.75737
36.2912
3.63059
36.2781
3.50134
36.2679
3.36967
36.2608
3.23565
36.2568
3.09933
36.256
2.96078
36.2585
2.82007
36.2645
2.67727
36.2741
2.53243
36.2873
2.38564
36.3043
2.23697
36.3251
2.08647
36.3498
1.93424
36.3786
1.78035
36.4114
1.62486
36.4483
1.46786
36.4895
1.30943
36.5351
1.14964
36.5849
0.988572
36.6392
0.826313
36.698
0.662943
36.7614
0.498542
36.8293
0.333195
36.9018
0.166986
36.9791
0
37.061
-0.167678
37.1477
-0.335962
37.2392
-0.504766
37.3355
-0.674002
37.4366
-0.843583
37.5425
-1.01342
37.6534
-1.18343
37.769
-1.35352
37.8896
-1.5236
38.015
-1.69358
38.1453
-1.86338
38.2805
-2.03291
38.4205
-2.20207
38.5654
-2.37079
38.7151
-2.53896
38.8696
-2.70651
39.0289
-2.87334
39.1929
-3.03936
39.3616
-3.2045
39.5349
-3.36865
39.7129
-3.53175
39.8955
-3.69368
40.0826
-3.85439
40.2742
-4.01377
40.4701
-4.17174
40.6705
-4.32822
40.8751
-4.48313
41.0839
-4.63639
41.2968
-4.78791
41.5138
-4.93761
41.7347
-5.08541
41.9596
-5.23124
42.1882
-5.37502
42.4205
-5.51667
42.6564
-5.65612
42.896
-5.79326
43.1383
-5.92814
43.3862
-6.06032
-6.19093
43.6298
35.7781
5.45036
-35.8247
35.7325
5.35928
35.6878
5.26498
35.6444
5.16752
35.6022
5.06694
35.5614
4.96327
35.5222
4.85655
35.4848
4.74683
35.4491
4.63416
35.4155
4.51858
35.3839
4.40013
35.3546
4.27888
35.3276
4.15487
35.3031
4.02816
35.2812
3.8988
35.262
3.76685
35.2457
3.63238
35.2322
3.49543
35.2218
3.35608
35.2146
3.21439
35.2106
3.07042
35.21
2.92424
35.2129
2.77593
35.2192
2.62554
35.2293
2.47316
35.243
2.31885
35.2606
2.16268
35.282
2.00475
35.3074
1.84511
35.3369
1.68386
35.3705
1.52106
35.4083
1.3568
35.4503
1.19115
35.4966
1.02421
35.5473
0.856057
35.6024
0.686769
35.662
0.516432
35.7261
0.345135
35.7948
0.172962
35.868
-2.84251e-07
35.9459
-0.173663
36.0285
-0.347938
36.1158
-0.522738
36.2078
-0.697972
36.3045
-0.873551
36.406
-1.04939
36.5122
-1.22539
36.6233
-1.40146
36.7391
-1.57752
36.8597
-1.75347
36.9851
-1.92922
37.1153
-2.10469
37.2502
-2.27977
37.3899
-2.45438
37.5343
-2.62843
37.6834
-2.80183
37.8372
-2.97449
37.9957
-3.14631
38.1587
-3.31721
38.3264
-3.4871
38.4986
-3.65589
38.6753
-3.82349
38.8565
-3.98981
39.042
-4.15477
39.2319
-4.31828
39.4261
-4.48025
39.6245
-4.64061
39.827
-4.79925
40.0337
-4.95611
40.2443
-5.1111
40.4588
-5.26413
40.6772
-5.41513
40.8994
-5.56402
41.1252
-5.71072
41.3546
-5.85516
41.5877
-5.99723
41.8234
-6.13697
42.0647
-6.27392
-6.40931
42.3017
34.828
5.65288
-34.879
34.7781
5.55755
34.7294
5.45894
34.6819
5.3571
34.6359
5.25208
34.5914
5.14392
34.5487
5.03264
34.5077
4.91831
34.4687
4.80096
34.4317
4.68065
34.3969
4.55742
34.3644
4.43133
34.3344
4.30242
34.3068
4.17076
34.2819
4.0364
34.2598
3.8994
34.2405
3.75982
34.2242
3.61773
34.2109
3.47318
34.2008
3.32625
34.1939
3.17699
34.1905
3.02549
34.1904
2.8718
34.1939
2.71601
34.201
2.55818
34.2118
2.39838
34.2264
2.23671
34.2448
2.07322
34.2672
1.90801
34.2936
1.74114
34.324
1.5727
34.3586
1.40278
34.3974
1.23145
34.4404
1.05881
34.4877
0.884922
34.5394
0.709887
34.5954
0.53379
34.6559
0.356718
34.7209
0.178758
34.7904
0
34.8645
-0.179467
34.9432
-0.359552
35.0264
-0.540164
35.1143
-0.721214
35.2069
-0.902607
35.3041
-1.08425
35.406
-1.26606
35.5126
-1.44793
35.6239
-1.62978
35.7398
-1.81151
35.8605
-1.99303
35.9858
-2.17424
36.1158
-2.35506
36.2505
-2.53538
36.3898
-2.71512
36.5337
-2.89419
36.6823
-3.07248
36.8354
-3.24992
36.993
-3.4264
37.1551
-3.60184
37.3217
-3.77614
37.4927
-3.94922
37.6681
-4.12098
37.8478
-4.29133
38.0318
-4.4602
38.22
-4.62748
38.4123
-4.79309
38.6087
-4.95695
38.8091
-5.11898
39.0135
-5.27908
39.2218
-5.43717
39.4339
-5.59317
39.6496
-5.74701
39.8691
-5.89859
40.092
-6.04786
40.3186
-6.19469
40.5479
-6.33913
40.7827
-6.4807
-6.62072
41.0131
33.8978
5.85032
-33.9526
33.8442