/*--------------------------------*- C++ -*----------------------------------*\
| =========                 |                                                 |
| \\      /  F ield         | OpenFOAM: The Open Source CFD Toolbox           |
|  \\    /   O peration     | Version:  2312                                  |
|   \\  /    A nd           | Website:  www.openfoam.com                      |
|    \\/     M anipulation  |                                                 |
\*---------------------------------------------------------------------------*/
FoamFile
{
    version     2.0;
    format      ascii;
    arch        "LSB;label=32;scalar=64";
    class       surfaceScalarField;
    location    "0.871";
    object      phi;
}
// * * * * * * * * * * * * * * * * * * * * * * * * * * * * * * * * * * * * * //

dimensions      [0 3 -1 0 0 0 0];

oriented        oriented;

internalField   nonuniform List<scalar> 
62015
(
61.7971
0.324948
-61.5434
62.0359
0.321144
62.2608
0.317018
62.473
0.312578
62.6735
0.30783
62.8633
0.302782
63.0435
0.297439
63.2147
0.29181
63.378
0.2859
63.534
0.279716
63.6836
0.273264
63.8274
0.266551
63.9661
0.259583
64.1004
0.252368
64.2309
0.244911
64.3582
0.237219
64.4828
0.229299
64.6053
0.221157
64.7261
0.212801
64.8458
0.204236
64.9649
0.195469
65.0836
0.186508
65.2026
0.177358
65.3221
0.168028
65.4425
0.158524
65.5643
0.148853
65.6877
0.139022
65.813
0.129039
65.9405
0.11891
66.0705
0.108643
66.2034
0.0982446
66.3392
0.0877223
66.4783
0.0770847
66.6208
0.0663378
66.767
0.0554902
66.9169
0.0445485
67.0708
0.0335215
67.2288
0.0224155
67.3911
0.0112391
67.5576
0
67.7286
-0.0112944
67.904
-0.0226353
68.0839
-0.0340165
68.2684
-0.0454281
68.4575
-0.0568638
68.6511
-0.0683143
68.8493
-0.0797727
69.0519
-0.0912297
69.259
-0.102679
69.4704
-0.11411
69.6861
-0.125517
69.9059
-0.136889
70.1297
-0.148221
70.3574
-0.159503
70.5886
-0.170726
70.8234
-0.181883
71.0613
-0.192965
71.3021
-0.203963
71.5456
-0.21487
71.7914
-0.225676
72.0392
-0.236374
72.2886
-0.246954
72.5393
-0.257408
72.7907
-0.267727
73.0423
-0.277903
73.2937
-0.287926
73.5443
-0.297787
73.7935
-0.307477
74.0405
-0.316988
74.2847
-0.326308
74.5253
-0.33543
74.7612
-0.344342
74.992
-0.353034
75.2154
-0.361501
75.4331
-0.369716
75.6366
-0.377706
75.8444
-0.385357
75.9992
-0.392948
-0.399634
76.2515
60.4298
0.64548
-60.2151
60.632
0.637593
60.8224
0.629094
61.0019
0.619998
61.1715
0.610317
61.3321
0.600063
61.4844
0.589249
61.6293
0.577886
61.7675
0.565987
61.8996
0.553564
62.0265
0.540629
62.1486
0.527194
62.2667
0.513272
62.3813
0.498873
62.493
0.484012
62.6022
0.4687
62.7095
0.45295
62.8155
0.436773
62.9204
0.420184
63.0249
0.403194
63.1292
0.385817
63.2339
0.368065
63.3392
0.349952
63.4456
0.33149
63.5534
0.312694
63.6628
0.293576
63.7743
0.274151
63.8881
0.254431
64.0045
0.234431
64.1237
0.214165
64.246
0.193647
64.3716
0.17289
64.5006
0.151909
64.6334
0.13072
64.7701
0.109335
64.9108
0.0877696
65.0557
0.0660387
65.2049
0.0441567
65.3585
0.022139
65.5166
0
65.6794
-0.022245
65.8468
-0.0445807
66.0189
-0.0669925
66.1957
-0.0894648
66.3773
-0.111981
66.5637
-0.134528
66.7548
-0.157089
66.9506
-0.179648
67.1511
-0.202191
67.3562
-0.224701
67.5657
-0.247162
67.7797
-0.269559
67.9979
-0.291876
68.2202
-0.314097
68.4465
-0.336206
68.6766
-0.358188
68.9102
-0.380025
69.1472
-0.401703
69.3872
-0.423204
69.6301
-0.444513
69.8755
-0.465613
70.123
-0.486488
70.3723
-0.507122
70.6231
-0.527497
70.8749
-0.547598
71.1272
-0.567407
71.3795
-0.586908
71.6314
-0.606083
71.8822
-0.624914
72.1313
-0.643386
72.3781
-0.661479
72.6217
-0.679175
72.8615
-0.696454
73.096
-0.713305
73.3262
-0.729686
73.5454
-0.745636
73.7685
-0.760966
73.9489
-0.77614
-0.789743
74.2117
59.0869
0.961504
-58.9079
59.2555
0.949289
59.414
0.936205
59.5633
0.922267
59.7043
0.907493
59.8377
0.8919
59.9643
0.875505
60.0846
0.858324
60.1995
0.840374
60.3095
0.821672
60.4152
0.802234
60.5171
0.782078
60.6159
0.761221
60.7121
0.73968
60.8061
0.717472
60.8985
0.694614
60.9897
0.671126
61.0801
0.647023
61.1701
0.622325
61.2602
0.597049
61.3508
0.571215
61.4421
0.54484
61.5346
0.517943
61.6285
0.490544
61.7243
0.462661
61.8221
0.434315
61.9224
0.405523
62.0252
0.376307
62.131
0.346686
62.2398
0.31668
62.352
0.28631
62.4678
0.255595
62.5873
0.224557
62.7108
0.193217
62.8383
0.161594
62.9701
0.129711
63.1063
0.0975892
63.2469
0.0652484
63.3921
0.032712
63.5421
0
63.6968
-0.0328651
63.8563
-0.0658609
64.0207
-0.0989659
64.19
-0.132158
64.3642
-0.165416
64.5434
-0.198715
64.7274
-0.232035
64.9164
-0.265353
65.1102
-0.298645
65.3087
-0.33189
65.512
-0.365065
65.7198
-0.398147
65.9322
-0.431113
66.1489
-0.46394
66.3699
-0.496605
66.5949
-0.529086
66.8238
-0.561359
67.0564
-0.593401
67.2924
-0.625189
67.5316
-0.656699
67.7737
-0.687908
68.0185
-0.718793
68.2656
-0.74933
68.5146
-0.779496
68.7653
-0.809267
69.0172
-0.838619
69.2699
-0.867528
69.5228
-0.89597
69.7756
-0.923921
70.0276
-0.951355
70.2784
-0.978248
70.5271
-1.00458
70.7733
-1.03031
71.0157
-1.05543
71.2552
-1.07989
71.486
-1.10373
71.7207
-1.12671
71.9204
-1.14942
-1.17005
72.1896
57.7562
1.27274
-57.6091
57.8943
1.25601
58.0241
1.23816
58.1461
1.21924
58.2612
1.19924
58.37
1.17821
58.4732
1.15615
58.5713
1.1331
58.6649
1.10905
58.7546
1.08405
58.841
1.05811
58.9246
1.03125
59.0057
1.0035
59.085
0.974862
59.1629
0.945376
59.2398
0.915058
59.3161
0.88393
59.3922
0.852015
59.4685
0.819337
59.5453
0.785918
59.6231
0.751782
59.7021
0.716952
59.7827
0.681452
59.8651
0.645308
59.9497
0.608542
60.0367
0.571181
60.1264
0.533248
60.219
0.49477
60.3148
0.455772
60.414
0.416279
60.5167
0.376318
60.6233
0.335915
60.7338
0.295096
60.8484
0.253889
60.9672
0.212319
61.0905
0.170415
61.2183
0.128203
61.3508
0.085712
61.488
0.0429682
61.6301
0
61.777
-0.0431646
61.9289
-0.0864973
62.0858
-0.12997
62.2478
-0.173554
62.4148
-0.217221
62.5869
-0.260942
62.764
-0.304688
62.9461
-0.348431
63.1333
-0.39214
63.3253
-0.435789
63.5222
-0.479346
63.724
-0.522783
63.9304
-0.566071
64.1413
-0.60918
64.3567
-0.65208
64.5764
-0.694742
64.8002
-0.737138
65.028
-0.779235
65.2595
-0.821007
65.4946
-0.862422
65.7329
-0.90345
65.9743
-0.944063
66.2184
-0.984229
66.4649
-1.02392
66.7136
-1.0631
66.964
-1.10175
67.2158
-1.13984
67.4686
-1.17732
67.7219
-1.21418
67.9753
-1.25038
68.2282
-1.28589
68.4802
-1.32068
68.7306
-1.35471
68.9785
-1.38797
69.2245
-1.42038
69.4639
-1.45201
69.7073
-1.48257
69.9216
-1.51274
-1.54044
70.1954
56.4334
1.5789
-56.315
56.5445
1.55749
56.6485
1.53475
56.7461
1.51073
56.8379
1.48543
56.9246
1.45888
57.0067
1.43111
57.0847
1.40214
57.1592
1.37199
57.2307
1.34069
57.2996
1.30826
57.3664
1.27473
57.4316
1.24013
57.4956
1.20447
57.5588
1.16778
57.6216
1.1301
57.6843
1.09144
57.7474
1.05183
57.8111
1.01131
57.8759
0.969891
57.9419
0.927611
58.0096
0.884497
58.0793
0.840577
58.1511
0.795879
58.2254
0.750433
58.3024
0.704269
58.3824
0.657417
58.4655
0.609908
58.5521
0.561772
58.6422
0.513041
58.7361
0.463744
58.834
0.413916
58.936
0.363586
59.0424
0.312789
59.1531
0.261555
59.2684
0.209918
59.3883
0.15791
59.513
0.105566
59.6426
0.0529178
59.7771
0
59.9167
-0.0531539
60.0613
-0.10651
60.211
-0.160034
60.3659
-0.213692
60.5259
-0.267449
60.6911
-0.321269
60.8615
-0.37512
61.0369
-0.428965
61.2175
-0.48277
61.4032
-0.536499
61.5938
-0.590117
61.7894
-0.64359
61.9898
-0.696882
62.1949
-0.749956
62.4047
-0.802779
62.6189
-0.855313
62.8375
-0.907525
63.0603
-0.959379
63.287
-1.01084
63.5176
-1.06187
63.7517
-1.11243
63.9892
-1.16249
64.2298
-1.21202
64.4732
-1.26097
64.7192
-1.30931
64.9673
-1.35701
65.2174
-1.40403
65.4691
-1.45033
65.7218
-1.49588
65.9754
-1.54064
66.2292
-1.58457
66.4828
-1.62764
66.7358
-1.66981
66.9872
-1.71105
67.2378
-1.75129
67.4833
-1.79059
67.7328
-1.82864
67.9584
-1.86617
-1.90093
68.2352
55.1187
1.87973
-55.0257
55.2056
1.85352
55.2866
1.8258
55.3623
1.79659
55.4334
1.76592
55.5003
1.73381
55.5635
1.7003
55.6235
1.6654
55.6808
1.62915
55.7358
1.59157
55.789
1.55269
55.8408
1.51254
55.8916
1.47114
55.9417
1.42853
55.9916
1.38474
56.0416
1.33979
56.0921
1.29371
56.1433
1.24655
56.1957
1.19832
56.2494
1.14905
56.3048
1.09879
56.3622
1.04757
56.4218
0.995406
56.4839
0.942347
56.5488
0.888423
56.6166
0.833668
56.6876
0.778116
56.762
0.721804
56.84
0.664766
56.9218
0.607039
57.0075
0.548658
57.0974
0.489661
57.1915
0.430085
57.29
0.369966
57.3931
0.309343
57.5009
0.248253
57.6134
0.186736
57.7309
0.124828
57.8532
0.0625701
57.9806
0
58.1131
-0.0628427
58.2508
-0.125918
58.3936
-0.189187
58.5417
-0.25261
58.695
-0.316147
58.8536
-0.379756
59.0174
-0.443398
59.1864
-0.507033
59.3606
-0.57062
59.54
-0.634118
59.7244
-0.697486
59.9139
-0.760684
60.1084
-0.82367
60.3077
-0.886404
60.5118
-0.948845
60.7205
-1.01095
60.9337
-1.07268
61.1513
-1.134
61.3731
-1.19485
61.5989
-1.25521
61.8286
-1.31503
62.0618
-1.37427
62.2985
-1.43288
62.5384
-1.49083
62.7811
-1.54808
63.0265
-1.60458
63.2741
-1.6603
63.5238
-1.71519
63.7752
-1.76921
64.0279
-1.82232
64.2815
-1.87448
64.5355
-1.92565
64.7897
-1.97578
65.0432
-2.02484
65.2966
-2.07276
65.5463
-2.11959
65.8001
-2.16501
66.0341
-2.20978
-2.25155
66.3122
53.8136
2.17502
-53.7433
53.879
2.14393
53.9395
2.11115
53.9957
2.0767
54.0482
2.04062
54.0974
2.00294
54.1437
1.96367
54.1875
1.92286
54.2294
1.88052
54.2697
1.8367
54.3088
1.79141
54.347
1.7447
54.3848
1.69659
54.4225
1.64712
54.4604
1.59631
54.4989
1.54421
54.5383
1.49084
54.5788
1.43624
54.6207
1.38045
54.6644
1.32349
54.7102
1.26541
54.7581
1.20625
54.8086
1.14603
54.8619
1.0848
54.9181
1.0226
54.9774
0.959464
55.0402
0.89543
55.1066
0.830538
55.1767
0.76483
55.2507
0.698345
55.3289
0.631125
55.4113
0.563211
55.4981
0.494645
55.5894
0.425469
55.6854
0.355725
55.7861
0.285456
55.8917
0.214705
56.0022
0.143516
56.1178
0.0719336
56.2384
0
56.3643
-0.0722395
56.4953
-0.14474
56.6316
-0.217457
56.7732
-0.290346
56.92
-0.363361
57.0722
-0.436458
57.2296
-0.509589
57.3924
-0.582711
57.5604
-0.655776
57.7337
-0.72874
57.9121
-0.801556
58.0956
-0.874178
58.2842
-0.946559
58.4777
-1.01865
58.6761
-1.09042
58.8793
-1.1618
59.0871
-1.23276
59.2995
-1.30325
59.5162
-1.37322
59.7371
-1.44263
59.962
-1.51143
60.1908
-1.57958
60.4233
-1.64702
60.6592
-1.71372
60.8983
-1.77962
61.1403
-1.84468
61.385
-1.90886
61.6322
-1.97211
61.8814
-2.03438
62.1324
-2.09564
62.3849
-2.15582
62.6384
-2.21489
62.8927
-2.2728
63.147
-2.32952
63.4018
-2.38495
63.6541
-2.43917
63.9105
-2.49183
64.1505
-2.5437
-2.59242
64.4289
52.5202
2.46463
-52.4699
52.5664
2.4286
52.6086
2.39071
52.6475
2.351
52.6834
2.30949
52.7167
2.26622
52.7479
2.22121
52.7773
2.1745
52.8054
2.12612
52.8325
2.0761
52.8589
2.02447
52.885
1.97127
52.9111
1.91653
52.9376
1.86029
52.9647
1.80258
52.9927
1.74343
53.022
1.6829
53.0529
1.621
53.0854
1.55779
53.1201
1.4933
53.157
1.42757
53.1964
1.36064
53.2386
1.29255
53.2837
1.22334
53.332
1.15306
53.3837
1.08174
53.4389
1.00944
53.4978
0.936191
53.5607
0.86204
53.6276
0.787032
53.6987
0.711212
53.7742
0.634627
53.8542
0.557322
53.9388
0.479344
54.0281
0.40074
54.1222
0.321557
54.2212
0.241843
54.3253
0.161647
54.4344
0.0810163
54.5487
0
54.6682
-0.0813528
54.793
-0.162993
54.923
-0.24487
55.0584
-0.326936
55.199
-0.409139
55.3451
-0.491429
55.4964
-0.573757
55.6531
-0.656072
55.8151
-0.738322
55.9824
-0.820458
56.1549
-0.902428
56.3326
-0.984181
56.5154
-1.06567
56.7032
-1.14684
56.896
-1.22763
57.0937
-1.30801
57.2961
-1.38792
57.5031
-1.4673
57.7146
-1.54611
57.9305
-1.6243
58.1506
-1.70182
58.3747
-1.7786
58.6027
-1.85462
58.8343
-1.9298
59.0694
-2.00411
59.3077
-2.0775
59.5491
-2.14991
59.7931
-2.22129
60.0396
-2.29159
60.2883
-2.36077
60.5389
-2.42878
60.791
-2.49556
61.0444
-2.56106
61.2984
-2.62525
61.5535
-2.68804
61.807
-2.74948
62.0647
-2.80924
62.309
-2.86807
-2.92363
62.5863
51.2404
2.74844
-51.208
51.2695
2.70743
51.2955
2.66441
51.3189
2.61942
51.34
2.57249
51.3592
2.52364
51.3769
2.47292
51.3934
2.42035
51.4091
2.36597
51.4243
2.30981
51.4394
2.25191
51.4546
2.1923
51.4702
2.13102
51.4866
2.06811
51.504
2.0036
51.5227
1.93754
51.5429
1.86997
51.565
1.80092
51.5891
1.73044
51.6155
1.65857
51.6444
1.58535
51.676
1.51083
51.7106
1.43505
51.7484
1.35805
51.7894
1.27988
51.834
1.2006
51.8823
1.12023
51.9345
1.03884
51.9906
0.956471
52.051
0.873168
52.1156
0.788984
52.1847
0.703967
52.2583
0.618168
52.3366
0.531638
52.4197
0.444429
52.5076
0.35659
52.6006
0.268175
52.6985
0.179237
52.8016
0.0898274
52.9099
0
53.0234
-0.0901918
53.1421
-0.180694
53.2662
-0.271453
53.3956
-0.362414
53.5304
-0.453523
53.6705
-0.544724
53.816
-0.635964
53.9669
-0.727187
54.123
-0.818337
54.2845
-0.90936
54.4513
-1.0002
54.6232
-1.0908
54.8003
-1.18111
54.9825
-1.27107
55.1698
-1.36062
55.3619
-1.44972
55.5589
-1.5383
55.7606
-1.62631
55.9669
-1.71369
56.1777
-1.80039
56.3928
-1.88635
56.6121
-1.97153
56.8354
-2.05586
57.0626
-2.13929
57.2934
-2.22176
57.5276
-2.30323
57.7651
-2.38363
58.0057
-2.46292
58.249
-2.54104
58.4948
-2.61794
58.7428
-2.69356
58.9928
-2.76785
59.2445
-2.84075
59.4974
-2.91223
59.7518
-2.9822
60.0054
-3.0507
60.2631
-3.11741
60.5101
-3.18304
-3.24534
60.7856
49.976
3.02637
-49.9595
49.9899
2.98037
50.0015
2.93221
50.0111
2.88195
50.019
2.8296
50.0257
2.77521
50.0313
2.71881
50.0363
2.66043
50.041
2.60011
50.0456
2.53788
50.0504
2.47378
50.0558
2.40785
50.0621
2.34013
50.0694
2.27066
50.078
2.19948
50.0883
2.12662
50.1004
2.05215
50.1145
1.97608
50.131
1.89849
50.1499
1.81939
50.1716
1.73885
50.1962
1.65691
50.2239
1.57362
50.2549
1.48902
50.2893
1.40317
50.3275
1.31611
50.3694
1.22789
50.4153
1.13857
50.4653
1.0482
50.5195
0.956824
50.5782
0.864503
50.6413
0.771289
50.709
0.677235
50.7815
0.582397
50.8588
0.486828
50.941
0.390585
51.0281
0.293724
51.1204
0.196302
51.2177
0.0983745
51.3203
0
51.4281
-0.0987642
51.5412
-0.19786
51.6596
-0.29723
51.7834
-0.396815
51.9125
-0.496555
52.0469
-0.596393
52.1868
-0.69627
52.332
-0.796125
52.4825
-0.895899
52.6383
-0.995534
52.7995
-1.09497
52.9658
-1.19414
53.1374
-1.293
53.3141
-1.39148
53.4958
-1.48952
53.6825
-1.58706
53.8741
-1.68404
54.0705
-1.78041
54.2715
-1.8761
54.4772
-1.97106
54.6872
-2.06522
54.9016
-2.15853
55.1201
-2.25093
55.3426
-2.34236
55.5689
-2.43276
55.7988
-2.52207
56.0322
-2.61024
56.2688
-2.69721
56.5085
-2.78293
56.7509
-2.86733
56.9959
-2.95036
57.2432
-3.03196
57.4926
-3.11208
57.7436
-3.19066
57.9964
-3.26764
58.2492
-3.34303
58.506
-3.41652
58.7543
-3.4888
-3.55771
59.0272
48.7285
3.29838
-48.7261
48.729
3.24737
48.7278
3.19409
48.7251
3.13858
48.7213
3.08085
48.7167
3.02096
48.7116
2.95892
48.7063
2.89479
48.7011
2.82859
48.6963
2.76037
48.692
2.69016
48.6887
2.61801
48.6865
2.54395
48.6857
2.46803
48.6865
2.39028
48.6892
2.31077
48.6939
2.22952
48.7009
2.14659
48.7104
2.06202
48.7226
1.97587
48.7377
1.88817
48.7559
1.79899
48.7774
1.70836
48.8022
1.61634
48.8307
1.52299
48.8629
1.42836
48.899
1.33249
48.9392
1.23545
48.9835
1.13729
49.0322
1.03807
49.0852
0.937833
49.1428
0.83665
49.2051
0.734573
49.2721
0.631663
49.344
0.527976
49.4208
0.423573
49.5025
0.318513
49.5894
0.212857
49.6814
0.106666
49.7786
0
49.881
-0.107078
49.9887
-0.214508
50.1017
-0.322226
50.22
-0.43017
50.3437
-0.538279
50.4727
-0.646487
50.6071
-0.754733
50.7468
-0.862954
50.8919
-0.971085
51.0423
-1.07906
51.198
-1.18683
51.3589
-1.29431
51.525
-1.40145
51.6963
-1.50818
51.8726
-1.61444
52.0539
-1.72017
52.2401
-1.8253
52.4312
-1.92977
52.627
-2.03351
52.8275
-2.13647
53.0324
-2.23858
53.2417
-2.33978
53.4553
-2.44
53.673
-2.53919
53.8946
-2.63728
54.12
-2.73422
54.3491
-2.82993
54.5815
-2.92436
54.8172
-3.01746
55.0559
-3.10915
55.2974
-3.19938
55.5415
-3.2881
55.788
-3.37524
56.0364
-3.46075
56.287
-3.54454
56.5381
-3.62665
56.7932
-3.70676
57.0417
-3.78553
-3.86091
57.3113
47.4992
3.56443
-47.5093
47.4878
3.50844
47.4752
3.45006
47.4616
3.38932
47.4474
3.32625
47.4328
3.2609
47.4182
3.1933
47.4037
3.12348
47.3898
3.05148
47.3765
2.97735
47.3641
2.90112
47.353
2.82284
47.3432
2.74255
47.3352
2.6603
47.3289
2.57612
47.3248
2.49007
47.3229
2.40219
47.3235
2.31254
47.3268
2.22115
47.3329
2.12809
47.3421
2.0334
47.3545
1.93714
47.3703
1.83936
47.3895
1.74011
47.4125
1.63945
47.4393
1.53743
47.4701
1.43412
47.505
1.32956
47.5441
1.22382
47.5876
1.11696
47.6355
1.00903
47.688
0.900104
47.7452
0.790232
47.8072
0.679479
47.874
0.567908
47.9457
0.455583
48.0224
0.342564
48.1042
0.228918
48.1911
0.114709
48.2832
0
48.3805
-0.115142
48.483
-0.230653
48.5909
-0.346465
48.7041
-0.462514
48.8226
-0.578733
48.9464
-0.695054
49.0755
-0.811411
49.21
-0.927738
49.3498
-1.04397
49.4949
-1.16003
49.6453
-1.27586
49.8009
-1.39139
49.9617
-1.50656
50.1276
-1.62129
50.2986
-1.73551
50.4746
-1.84917
50.6556
-1.96219
50.8414
-2.07452
51.032
-2.18607
51.2272
-2.29678
51.427
-2.4066
51.6313
-2.51544
51.8398
-2.62326
52.0526
-2.72997
52.2694
-2.83553
52.4901
-2.93985
52.7146
-3.04289
52.9426
-3.14457
53.1741
-3.24483
53.4087
-3.34361
53.6464
-3.44084
53.8868
-3.53647
54.1299
-3.63044
54.3753
-3.72268
54.623
-3.81311
54.8718
-3.90176
55.1245
-3.98833
55.3723
-4.07343
-4.15513
55.6382
46.2892
3.82451
-46.3103
46.2672
3.76356
46.2445
3.70011
46.2213
3.63419
46.1978
3.56584
46.1744
3.49509
46.1513
3.42198
46.1288
3.34655
46.107
3.26884
46.0862
3.18889
46.0666
3.10674
46.0485
3.02244
46.032
2.93603
46.0174
2.84756
46.0049
2.75707
45.9947
2.66462
45.9869
2.57025
45.9817
2.47402
45.9794
2.37597
45.9801
2.27616
45.9839
2.17464
45.991
2.07147
46.0016
1.96671
46.0158
1.86041
46.0338
1.75262
46.0557
1.64342
46.0816
1.53285
46.1117
1.42098
46.146
1.30786
46.1847
1.19357
46.2279
1.07816
46.2757
0.961706
46.3281
0.844259
46.3853
0.725889
46.4474
0.606661
46.5144
0.486643
46.5864
0.3659
46.6634
0.2445
46.7455
0.122511
46.8328
0
46.9252
-0.122963
47.0229
-0.24631
47.1259
-0.369971
47.2341
-0.493876
47.3476
-0.617957
47.4665
-0.742141
47.5906
-0.866359
47.72
-0.990541
47.8547
-1.11462
47.9947
-1.23851
48.1399
-1.36216
48.2903
-1.48549
48.4459
-1.60843
48.6066
-1.73091
48.7724
-1.85285
48.9432
-1.9742
49.1189
-2.09487
49.2995
-2.2148
49.4849
-2.33392
49.675
-2.45215
49.8696
-2.56943
50.0688
-2.68569
50.2723
-2.80087
50.4801
-2.91488
50.692
-3.02767
50.9079
-3.13917
51.1276
-3.24931
51.3511
-3.35802
51.578
-3.46523
51.8084
-3.57089
52.0419
-3.67493
52.2784
-3.77728
52.5177
-3.87788
52.7595
-3.97667
53.004
-4.07357
53.2499
-4.16858
53.4996
-4.26144
53.7458
-4.35269
-4.44055
54.0075
45.0993
4.07863
-45.1301
45.068
4.01277
45.0363
3.94429
45.0046
3.87325
44.973
3.79967
44.9418
3.72359
44.9112
3.64505
44.8814
3.56408
44.8527
3.48074
44.8252
3.39507
44.7992
3.3071
44.7749
3.21688
44.7525
3.12447
44.7321
3.0299
44.714
2.93324
44.6983
2.83451
44.6852
2.73379
44.6749
2.63112
44.6675
2.52656
44.6632
2.42016
44.6622
2.31198
44.6646
2.20207
44.6706
2.0905
44.6802
1.97732
44.6936
1.8626
44.711
1.74639
44.7324
1.62876
44.7581
1.50976
44.788
1.38948
44.8223
1.26796
44.8611
1.14528
44.9045
1.02151
44.9526
0.8967
45.0054
0.770931
45.0631
0.644269
45.1256
0.516782
45.1931
0.388541
45.2657
0.259616
45.3433
0.130079
45.426
0
45.5139
-0.130549
45.6069
-0.261494
45.7052
-0.392765
45.8087
-0.524287
45.9175
-0.655987
46.0315
-0.787794
46.1508
-0.91963
46.2754
-1.05143
46.4051
-1.1831
46.5402
-1.31459
46.6804
-1.44581
46.8258
-1.5767
46.9763
-1.70717
47.1319
-1.83716
47.2926
-1.96658
47.4583
-2.09537
47.6289
-2.22345
47.8043
-2.35075
47.9845
-2.4772
48.1694
-2.60272
48.359
-2.72724
48.553
-2.85069
48.7515
-2.973
48.9542
-3.09409
49.1611
-3.2139
49.3721
-3.33235
49.587
-3.44937
49.8057
-3.56491
50.028
-3.67888
50.2538
-3.79122
50.4829
-3.90186
50.7152
-4.01073
50.9504
-4.11778
51.1884
-4.22293
51.4292
-4.32611
51.6717
-4.42731
51.918
-4.52629
52.1619
-4.62352
-4.7174
52.4192
43.9302
4.32682
-43.9697
43.8907
4.25609
43.8512
4.18264
43.8119
4.10653
43.7731
4.02779
43.735
3.94645
43.6978
3.86256
43.6617
3.77615
43.6268
3.68727
43.5935
3.59597
43.5618
3.50229
43.532
3.40627
43.5042
3.30797
43.4787
3.20743
43.4556
3.10471
43.435
2.99985
43.4172
2.89292
43.4023
2.78396
43.3904
2.67303
43.3817
2.5602
43.3764
2.44551
43.3745
2.32903
43.3762
2.21082
43.3816
2.09094
43.391
1.96945
43.4042
1.84643
43.4216
1.72192
43.4432
1.596
43.4691
1.46874
43.4993
1.3402
43.5341
1.21045
43.5734
1.07956
43.6174
0.947601
43.6662
0.814646
43.7197
0.680763
43.7781
0.546026
43.8414
0.410508
43.9098
0.274281
43.9831
0.137421
44.0615
0
44.145
-0.137905
44.2337
-0.27622
44.3276
-0.414869
44.4266
-0.553775
44.5308
-0.692863
44.6402
-0.832056
44.7549
-0.971276
44.8747
-1.11045
44.9997
-1.24949
45.1299
-1.38834
45.2653
-1.5269
45.4058
-1.6651
45.5514
-1.80287
45.7021
-1.94013
45.8578
-2.0768
46.0184
-2.21281
46.1839
-2.34807
46.3543
-2.48251
46.5294
-2.61606
46.7093
-2.74864
46.8937
-2.88018
47.0827
-3.01059
47.276
-3.13981
47.4737
-3.26776
47.6756
-3.39437
47.8816
-3.51957
48.0916
-3.64328
48.3054
-3.76542
48.523
-3.88594
48.7441
-4.00476
48.9686
-4.12181
49.1964
-4.23703
49.4273
-4.35033
49.6611
-4.46167
49.8978
-4.57094
50.1366
-4.67816
50.3791
-4.78308
50.6202
-4.88613
-4.98587
50.8728
42.7826
4.56911
-42.8295
42.7358
4.49356
42.6894
4.41521
42.6436
4.3341
42.5984
4.25027
42.5543
4.16375
42.5112
4.07459
42.4694
3.98283
42.4292
3.88851
42.3907
3.79169
42.354
3.69239
42.3193
3.59069
42.2869
3.48662
42.2568
3.38023
42.2293
3.27158
42.2044
3.16073
42.1824
3.04772
42.1633
2.93262
42.1474
2.81548
42.1347
2.69636
42.1255
2.57533
42.1197
2.45244
42.1176
2.32776
42.1193
2.20135
42.1249
2.07328
42.1345
1.94361
42.1481
1.81241
42.166
1.67975
42.1881
1.5457
42.2147
1.41033
42.2457
1.27371
42.2813
1.13591
42.3215
0.997007
42.3664
0.857072
42.4161
0.716178
42.4707
0.574403
42.5301
0.431821
42.5944
0.288508
42.6637
0.144542
42.7381
-2.90896e-07
42.8175
-0.145041
42.902
-0.290502
42.9916
-0.436304
43.0863
-0.58237
43.1862
-0.728618
43.2912
-0.87497
43.4014
-1.02135
43.5167
-1.16767
43.6371
-1.31385
43.7627
-1.45982
43.8934
-1.60549
44.0291
-1.75079
44.17
-1.89563
44.3158
-2.03994
44.4666
-2.18363
44.6223
-2.32662
44.7828
-2.46884
44.9482
-2.6102
45.1183
-2.75063
45.2931
-2.89005
45.4725
-3.02838
45.6564
-3.16555
45.8447
-3.30147
46.0374
-3.43607
46.2342
-3.56927
46.4352
-3.70101
46.6402
-3.83119
46.8491
-3.95976
47.0618
-4.08663
47.2781
-4.21174
47.4979
-4.335
47.721
-4.45636
47.9474
-4.57574
48.1768
-4.69307
48.4092
-4.80828
48.6439
-4.92134
48.8823
-5.03203
49.1201
-5.14074
-5.24617
49.3677
41.6568
4.80555
-41.7103
41.6037
4.72525
41.5513
4.64206
41.4996
4.55602
41.449
4.46718
41.3995
4.37556
41.3513
4.28123
41.3046
4.18421
41.2597
4.08455
41.2166
3.9823
41.1755
3.87751
41.1365
3.77023
41.1
3.66051
41.0659
3.5484
41.0344
3.43396
41.0057
3.31724
40.9799
3.1983
40.9572
3.07719
40.9377
2.95399
40.9215
2.82874
40.9087
2.70152
40.8996
2.57238
40.894
2.4414
40.8923
2.30863
40.8945
2.17414
40.9007
2.03801
40.9109
1.9003
40.9254
1.76109
40.9442
1.62044
40.9673
1.47843
40.9949
1.33513
41.027
1.19061
41.0637
1.04496
41.1051
0.898245
41.1512
0.750545
41.2021
0.601936
41.2578
0.452499
41.3184
0.30231
41.3839
0.151451
41.4544
0
41.5299
-0.151962
41.6105
-0.304352
41.696
-0.457091
41.7867
-0.610097
41.8824
-0.763287
41.9832
-0.916579
42.089
-1.06989
42.2
-1.22314
42.316
-1.37624
42.4371
-1.52912
42.5633
-1.68168
42.6944
-1.83385
42.8306
-1.98554
42.9717
-2.13667
43.1177
-2.28716
43.2686
-2.43692
43.4243
-2.58588
43.5847
-2.73395
43.7499
-2.88105
43.9198
-3.02709
44.0941
-3.17201
44.273
-3.31571
44.4563
-3.45813
44.6439
-3.59917
44.8358
-3.73876
45.0317
-3.87683
45.2317
-4.0133
45.4356
-4.14808
45.6434
-4.28112
45.8548
-4.41232
46.0697
-4.54161
46.2881
-4.66894
46.5098
-4.79421
46.7346
-4.91736
46.9625
-5.03832
47.1929
-5.15705
47.4268
-5.27335
47.661
-5.38754
-5.49851
47.9035
40.5532
5.03621
-40.6125
40.4946
4.95122
40.4369
4.86326
40.3803
4.77237
40.3248
4.6786
40.2706
4.58198
40.218
4.48255
40.1671
4.38037
40.118
4.27547
40.0709
4.16791
40.0259
4.05774
39.9832
3.945
39.943
3.82975
39.9054
3.71204
39.8705
3.59193
39.8384
3.46948
39.8093
3.34474
39.7834
3.21778
39.7607
3.08866
39.7413
2.95744
39.7254
2.82418
39.7131
2.68895
39.7045
2.55182
39.6997
2.41286
39.6988
2.27213
39.7019
2.12971
39.7091
1.98566
39.7205
1.84007
39.7362
1.693
39.7562
1.54454
39.7806
1.39475
39.8095
1.24371
39.8429
1.0915
39.881
0.938203
39.9237
0.783893
39.9712
0.628652
40.0235
0.472561
40.0806
0.3157
40.1425
0.158152
40.2094
0
40.2812
-0.158673
40.3579
-0.317785
40.4397
-0.47725
40.5264
-0.636984
40.6181
-0.796903
40.7148
-0.956922
40.8166
-1.11696
40.9234
-1.27692
41.0351
-1.43673
41.1519
-1.59629
41.2736
-1.75553
41.4003
-1.91435
41.532
-2.07268
41.6685
-2.23043
41.8098
-2.3875
41.956
-2.54382
42.107
-2.69931
42.2626
-2.85387
42.423
-3.00743
42.5879
-3.1599
42.7574
-3.31119
42.9313
-3.46123
43.1096
-3.60994
43.2922
-3.75722
43.479
-3.90301
43.67
-4.04722
43.865
-4.18977
44.0639
-4.33059
44.2666
-4.46959
44.4731
-4.6067
44.6831
-4.74184
44.8966
-4.87494
45.1135
-5.00593
45.3335
-5.13473
45.5567
-5.26127
45.7826
-5.3855
46.012
-5.50724
46.2422
-5.62676
-5.7431
46.4794
39.472
5.26114
-39.5363
39.4087
5.17153
39.3465
5.07888
39.2854
4.98323
39.2257
4.88461
39.1676
4.78307
39.1111
4.67866
39.0564
4.57141
39.0037
4.46138
38.9532
4.34862
38.9049
4.23317
38.8589
4.11509
38.8155
3.99443
38.7748
3.87125
38.7369
3.7456
38.7018
3.61755
38.6699
3.48716
38.641
3.35448
38.6155
3.21958
38.5933
3.08253
38.5747
2.94339
38.5596
2.80223
38.5483
2.65911
38.5407
2.51412
38.537
2.36731
38.5374
2.21877
38.5418
2.06856
38.5503
1.91677
38.5631
1.76346
38.5802
1.60872
38.6017
1.45262
38.6276
1.29525
38.6581
1.13667
38.6931
0.976981
38.7327
0.816254
38.777
0.654574
38.826
0.492025
38.8798
0.32869
38.9384
0.164653
39.0018
0
39.0701
-0.165184
39.1432
-0.330812
39.2213
-0.496799
39.3043
-0.663056
39.3922
-0.829499
39.4851
-0.996038
39.5829
-1.16259
39.6856
-1.32906
39.7933
-1.49536
39.9058
-1.66141
40.0233
-1.82711
40.1457
-1.99239
40.2729
-2.15715
40.405
-2.3213
40.5418
-2.48475
40.6834
-2.64743
40.8297
-2.80924
40.9807
-2.97009
41.1362
-3.12991
41.2964
-3.28859
41.461
-3.44607
41.63
-3.60225
41.8034
-3.75705
41.9811
-3.91038
42.1629
-4.06217
42.3489
-4.21233
42.5389
-4.36077
42.7328
-4.50743
42.9305
-4.65222
43.1319
-4.79506
43.337
-4.93587
43.5456
-5.07458
43.7576
-5.21111
43.9728
-5.34538
44.1912
-5.47732
44.4124
-5.6069
44.637
-5.73392
44.863
-5.85861
-5.98016
45.0949
38.4134
5.48042
-38.482
38.3461
5.38628
38.2799
5.28902
38.2151
5.18868
38.1518
5.08531
38.0902
4.97895
38.0304
4.86964
37.9725
4.75743
37.9167
4.64237
37.8632
4.52451
37.8119
4.4039
37.7632
4.28059
37.717
4.15465
37.6736
4.02612
37.633
3.89506
37.5954
3.76155
37.5609
3.62563
37.5296
3.48738
37.5015
3.34685
37.4769
3.20411
37.4558
3.05924
37.4382
2.9123
37.4244
2.76336
37.4144
2.61249
37.4082
2.45977
37.406
2.30527
37.4079
2.14907
37.4139
1.99125
37.424
1.83187
37.4385
1.67103
37.4573
1.50881
37.4805
1.34527
37.5081
1.18051
37.5402
1.01461
37.577
0.847655
37.6183
0.679726
37.6643
0.510909
37.7149
0.341291
37.7703
0.170959
37.8305
0
37.8954
-0.171498
37.9652
-0.343446
38.0398
-0.515757
38.1192
-0.68834
38.2035
-0.861105
38.2926
-1.03396
38.3866
-1.20683
38.4855
-1.3796
38.5892
-1.5522
38.6977
-1.72453
38.8111
-1.8965
38.9293
-2.06803
39.0522
-2.23902
39.18
-2.40937
39.3124
-2.57901
39.4495
-2.74784
39.5913
-2.91578
39.7376
-3.08273
39.8886
-3.2486
40.044
-3.41331
40.2038
-3.57677
40.368
-3.7389
40.5366
-3.8996
40.7093
-4.05879
40.8862
-4.21639
41.0672
-4.37231
41.2523
-4.52648
41.4412
-4.67879
41.6339
-4.82919
41.8304
-4.97758
42.0304
-5.12388
42.234
-5.26802
42.441
-5.40992
42.6513
-5.54951
42.8649
-5.68669
43.0813
-5.82144
43.301
-5.95358
43.5226
-6.08328
-6.20988
43.7491
37.3776
5.69414
-37.4498
37.3067
5.59554
37.2372
5.49375
37.1692
5.38882
37.1028
5.28078
37.0382
5.16969
36.9756
5.05558
36.915
4.93851
36.8565
4.81853
36.8004
4.69568
36.7467
4.57003
36.6955
4.44161
36.647
4.3105
36.6012
4.17675
36.5584
4.04042
36.5185
3.90157
36.4818
3.76026
36.4482
3.61657
36.418
3.47055
36.3912
3.32228
36.3679
3.17182
36.3482
3.01924
36.3321
2.86463
36.3199
2.70805
36.3115
2.54957
36.307
2.38928
36.3066
2.22725
36.3102
2.06356
36.318
1.89829
36.3301
1.73152
36.3464
1.56334
36.367
1.39382
36.392
1.22306
36.4215
1.05113
36.4555
0.878125
36.4941
0.704129
36.5372
0.52923
36.5849
0.353516
36.6373
0.177076
36.6944
-2.90872e-07
36.7562
-0.177622
36.8227
-0.3557
36.894
-0.534142
36.97
-0.712857
37.0508
-0.891753
37.1364
-1.07074
37.2267
-1.24972
37.3218
-1.42861
37.4217
-1.60731
37.5264
-1.78572
37.6358
-1.96377
37.7499
-2.14135
37.8687
-2.31837
37.9923
-2.49474
38.1204
-2.67037
38.2532
-2.84516
38.3905
-3.01903
38.5324
-3.19188
38.6787
-3.36363
38.8295
-3.53417
38.9847
-3.70343
39.1442
-3.87132
39.3079
-4.03774
39.4759
-4.20261
39.6479
-4.36584
39.824
-4.52734
40.0041
-4.68704
40.188
-4.84484
40.3758
-5.00066
40.5673
-5.15443
40.7624
-5.30605
40.961
-5.45546
41.163
-5.60256
41.3683
-5.74729
41.5769
-5.88956
41.7884
-6.02932
42.0032
-6.16642
42.2202
-6.30098
-6.43249
42.4413
36.3644
5.90237
-36.4397
36.2906
5.7994
36.2182
5.69316
36.1475
5.58373
36.0785
5.47112
36.0115
5.35539
35.9464
5.23659
35.8835
5.11477
35.8228
4.98997
35.7645
4.86224
35.7086
4.73165
35.6554
4.59825
35.6048
4.46209
35.5571
4.32324
35.5123
4.18175
35.4705
4.0377
35.4318
3.89114
35.3964
3.74214
35.3643
3.59077
35.3355
3.4371
35.3103
3.2812
35.2887
3.12315
35.2707
2.96301
35.2564
2.80087
35.246
2.63679
35.2395
2.47086
35.237
2.30317
35.2385
2.13377
35.2442
1.96277
35.2539
1.79025
35.268
1.61628
35.2863
1.44095
35.3089
1.26435
35.3359
1.08657
35.3674
0.907692
35.4033
0.727807
35.4438
0.547004
35.4887
0.365375
35.5383
0.18301
35.5925
0
35.6513
-0.183562
35.7147
-0.367583
35.7828
-0.551971
35.8556
-0.736632
35.933
-0.92147
36.0152
-1.10639
36.1021
-1.29131
36.1936
-1.47612
36.2898
-1.66073
36.3907
-1.84505
36.4963
-2.02897
36.6065
-2.21242
36.7213
-2.39529
36.8407
-2.57748
36.9647
-2.75891
37.0932
-2.93948
37.2263
-3.1191
37.3638
-3.29767
37.5057
-3.4751
37.6519
-3.6513
37.8025
-3.82617
37.9573
-3.99963
38.1164
-4.17159
38.2796
-4.34196
38.4468
-4.51064
38.6181
-4.67756
38.7933
-4.84261
38.9723
-5.00573
39.1551
-5.16681
39.3416
-5.32579
39.5318
-5.48257
39.7254
-5.63707
39.9224
-5.78922
40.1227
-5.93893
40.3263
-6.08612
40.5329
-6.23074
40.7427
-6.37265
40.955
-6.51192
-6.64817
41.1707
35.3739
6.10521
-35.4518
35.2976
5.99795
35.2229
5.88736
35.1499
5.77351
35.0788