/*--------------------------------*- C++ -*----------------------------------*\
| =========                 |                                                 |
| \\      /  F ield         | OpenFOAM: The Open Source CFD Toolbox           |
|  \\    /   O peration     | Version:  2312                                  |
|   \\  /    A nd           | Website:  www.openfoam.com                      |
|    \\/     M anipulation  |                                                 |
\*---------------------------------------------------------------------------*/
FoamFile
{
    version     2.0;
    format      ascii;
    arch        "LSB;label=32;scalar=64";
    class       surfaceScalarField;
    location    "0.248";
    object      phi;
}
// * * * * * * * * * * * * * * * * * * * * * * * * * * * * * * * * * * * * * //

dimensions      [0 3 -1 0 0 0 0];

oriented        oriented;

internalField   nonuniform List<scalar> 
62015
(
28.2007
0.148444
-28.9485
27.5174
0.142635
26.9103
0.137218
26.3887
0.132227
25.9591
0.127679
25.6244
0.123569
25.3831
0.119871
25.2305
0.116541
25.1591
0.113523
25.1601
0.110758
25.2241
0.108183
25.342
0.105741
25.5053
0.103379
25.7065
0.101053
25.939
0.0987237
26.1973
0.0963578
26.4769
0.093929
26.7739
0.0914151
27.0852
0.0887987
27.4082
0.0860653
27.7409
0.0832036
28.0818
0.0802049
28.4293
0.0770621
28.7825
0.0737699
29.1406
0.0703248
29.5029
0.0667237
29.869
0.0629648
30.2383
0.0590472
30.6108
0.0549707
30.9862
0.0507356
31.3644
0.0463425
31.7453
0.0417925
32.1289
0.0370877
32.5153
0.0322294
32.9045
0.0272201
33.2965
0.0220621
33.6916
0.0167583
34.0897
0.0113111
34.4911
0.00572398
34.8958
0
35.304
-0.00585763
35.716
-0.0118448
36.1317
-0.0179589
36.5514
-0.0241952
36.9753
-0.0305504
37.4035
-0.0370202
37.8362
-0.0436008
38.2735
-0.0502876
38.7156
-0.0570771
39.1626
-0.0639642
39.6147
-0.0709447
40.072
-0.0780142
40.5348
-0.0851683
41.0031
-0.0924022
41.477
-0.0997112
41.9567
-0.10709
42.4423
-0.114535
42.9339
-0.122041
43.4317
-0.129603
43.9357
-0.137215
44.4461
-0.144874
44.9629
-0.152573
45.4862
-0.160309
46.0162
-0.168075
46.5528
-0.175867
47.0961
-0.18368
47.6463
-0.191508
48.2034
-0.199347
48.7673
-0.207191
49.3382
-0.215035
49.9161
-0.222874
50.5011
-0.230702
51.0928
-0.238515
51.6923
-0.246305
52.297
-0.254078
52.9143
-0.261792
53.5214
-0.269553
54.1887
-0.277015
-0.285235
54.7004
26.8805
0.287243
-27.5406
26.2889
0.276636
25.7754
0.266826
25.3466
0.25785
25.0055
0.249706
24.7516
0.242353
24.5813
0.235716
24.4884
0.229698
24.4651
0.224187
24.5029
0.21907
24.5935
0.214236
24.7289
0.209585
24.9019
0.205027
25.1064
0.200486
25.3369
0.195897
25.5889
0.191205
25.8587
0.186365
26.1431
0.181342
26.4396
0.176104
26.7462
0.170629
27.0611
0.164897
27.383
0.158893
27.7109
0.152607
28.0439
0.146028
28.3812
0.139151
28.7224
0.131972
29.0671
0.124487
29.415
0.116695
29.7658
0.108596
30.1195
0.100192
30.4759
0.0914822
30.835
0.0824708
31.1968
0.0731605
31.5614
0.0635554
31.9288
0.0536595
32.2991
0.0434776
32.6723
0.033015
33.0487
0.0222771
33.4283
0.0112702
33.8113
0
34.1978
-0.0115267
34.588
-0.023303
34.982
-0.0353221
35.3799
-0.0475768
35.7819
-0.060059
36.1882
-0.0727617
36.5989
-0.0856767
37.0142
-0.0987957
37.4342
-0.112111
37.859
-0.125614
38.2889
-0.139296
38.7238
-0.153148
39.1641
-0.167162
39.6097
-0.181328
40.0609
-0.195638
40.5177
-0.210082
40.9802
-0.224651
41.4487
-0.239336
41.9231
-0.254127
42.4035
-0.269015
42.8901
-0.283989
43.383
-0.299042
43.8822
-0.314161
44.3879
-0.329339
44.8999
-0.344564
45.4186
-0.359827
45.9438
-0.375118
46.4757
-0.390427
47.0142
-0.405744
47.5595
-0.421059
48.1115
-0.436361
48.6704
-0.451641
49.2359
-0.46689
49.8087
-0.482092
50.3867
-0.497257
50.9767
-0.512309
51.5575
-0.527444
52.1942
-0.542011
-0.558002
52.6883
25.6582
0.417587
-26.2277
25.1596
0.403221
24.7387
0.390029
24.3987
0.378016
24.1396
0.367132
23.9586
0.357282
23.8504
0.348336
23.8084
0.340143
23.8249
0.332543
23.8923
0.325384
24.0033
0.318519
24.1513
0.311822
24.3303
0.305178
24.5351
0.298492
24.7616
0.291682
25.0058
0.28468
25.265
0.277431
25.5364
0.269889
25.8181
0.262018
26.1084
0.253786
26.406
0.245171
26.7096
0.236154
27.0185
0.226721
27.332
0.21686
27.6495
0.206563
27.9705
0.195827
28.2949
0.184646
28.6222
0.173021
28.9525
0.160951
29.2854
0.148438
29.6212
0.135485
29.9595
0.122096
30.3007
0.108275
30.6445
0.0940279
30.9912
0.0793614
31.3408
0.0642823
31.6934
0.0487984
32.0491
0.0329173
32.4081
0.0166484
32.7704
0
33.1362
-0.0170181
33.5057
-0.0343959
33.879
-0.0521232
34.2562
-0.0701896
34.6375
-0.0885843
35.023
-0.107296
35.4128
-0.126313
35.8071
-0.145624
36.2061
-0.165216
36.6098
-0.185078
37.0185
-0.205197
37.4321
-0.225561
37.851
-0.246157
38.2751
-0.266971
38.7046
-0.287991
39.1396
-0.309203
39.5802
-0.330593
40.0265
-0.352149
40.4786
-0.373856
40.9367
-0.3957
41.4007
-0.417667
41.8708
-0.439744
42.347
-0.461915
42.8295
-0.484168
43.3182
-0.506487
43.8132
-0.528857
44.3147
-0.551265
44.8226
-0.573696
45.3369
-0.596135
45.8578
-0.618568
46.3852
-0.64098
46.9191
-0.663355
47.4595
-0.685682
48.007
-0.707937
48.5595
-0.730135
49.1234
-0.752167
49.6791
-0.774311
50.2869
-0.795642
-0.818989
50.7623
24.5456
0.540922
-25.0254
24.1365
0.523771
23.8021
0.508101
23.5426
0.493859
23.3558
0.480935
23.2371
0.469173
23.1807
0.458391
23.18
0.448395
23.2279
0.438992
23.3179
0.430001
23.4438
0.421257
23.6
0.412616
23.7816
0.403952
23.9846
0.395156
24.2053
0.386141
24.441
0.376831
24.689
0.367165
24.9474
0.357092
25.2146
0.34657
25.4891
0.335568
25.7699
0.324058
26.0561
0.312021
26.3469
0.299439
26.6419
0.286302
26.9405
0.272601
27.2425
0.25833
27.5476
0.243486
27.8556
0.228069
28.1663
0.212079
28.4798
0.19552
28.796
0.178394
29.1148
0.160708
29.4363
0.142468
29.7606
0.123681
30.0877
0.104356
30.4178
0.0845021
30.7508
0.0641284
31.087
0.043246
31.4264
0.021866
31.7692
0
32.1155
-0.0223396
32.4654
-0.0451401
32.8191
-0.0683883
33.1766
-0.0920704
33.5382
-0.116172
33.904
-0.14068
34.274
-0.165578
34.6485
-0.190852
35.0275
-0.216486
35.4112
-0.242464
35.7997
-0.26877
36.1931
-0.295388
36.5916
-0.322302
36.9952
-0.349494
37.4041
-0.376948
37.8184
-0.404645
38.2381
-0.43257
38.6634
-0.460703
39.0943
-0.489028
39.531
-0.517527
39.9735
-0.54618
40.4219
-0.57497
40.8762
-0.603879
41.3366
-0.632888
41.8031
-0.661978
42.2757
-0.691131
42.7544
-0.720328
43.2394
-0.74955
43.7307
-0.778778
44.2282
-0.807994
44.7321
-0.837178
45.2423
-0.86631
45.7588
-0.895376
46.282
-0.924344
46.8102
-0.953232
47.3492
-0.981905
47.8807
-1.01071
48.4612
-1.03848
-1.0688
48.9179
23.5424
0.658684
-23.9367
23.2163
0.639599
22.9595
0.622201
22.7701
0.606368
22.6443
0.591929
22.577
0.578675
22.5622
0.566384
22.5938
0.554833
22.6655
0.54381
22.7719
0.533117
22.9076
0.522582
23.0682
0.512052
23.2497
0.501396
23.4488
0.490504
23.6626
0.479283
23.8889
0.467656
24.1255
0.455557
24.371
0.442937
24.6239
0.42975
24.8832
0.415964
25.1479
0.401551
25.4174
0.38649
25.6912
0.370763
25.9686
0.35436
26.2495
0.337272
26.5335
0.319493
26.8204
0.301021
27.1101
0.281856
27.4025
0.262
27.6976
0.241457
27.9954
0.220232
28.2957
0.198331
28.5988
0.175763
28.9047
0.152538
29.2134
0.128664
29.525
0.104154
29.8396
0.0790192
30.1573
0.0532728
30.4783
0.0269283
30.8026
0
31.1304
-0.0274972
31.4618
-0.0555481
31.7969
-0.0841363
32.1359
-0.113245
32.4788
-0.142859
32.8259
-0.172958
33.1771
-0.203526
33.5328
-0.234543
33.8929
-0.265993
34.2576
-0.297854
34.6269
-0.330108
35.0012
-0.362735
35.3803
-0.395715
35.7645
-0.429027
36.1538
-0.462651
36.5483
-0.496565
36.9482
-0.53075
37.3535
-0.565182
37.7642
-0.599841
38.1806
-0.634706
38.6026
-0.669752
39.0303
-0.70496
39.4638
-0.740306
39.9031
-0.775767
40.3483
-0.811322
40.7995
-0.846947
41.2566
-0.88262
41.7198
-0.918319
42.189
-0.954019
42.6643
-0.989698
43.1457
-1.02533
43.6333
-1.0609
44.1268
-1.09638
44.627
-1.13174
45.1318
-1.16699
45.6471
-1.20198
46.1554
-1.23712
46.71
-1.27101
-1.30794
47.1483
22.6417
0.772171
-22.9572
22.3898
0.75184
22.2003
0.733288
22.0701
0.716329
21.9945
0.700739
21.9683
0.686271
21.986
0.672679
22.0419
0.659724
22.1309
0.647182
22.2483
0.634856
22.3898
0.62257
22.5517
0.610171
22.7309
0.597529
22.9246
0.584535
23.1306
0.571095
23.3469
0.557134
23.5721
0.542587
23.8047
0.527402
24.0437
0.511537
24.2883
0.494957
24.5377
0.477635
24.7914
0.459551
25.0489
0.440687
25.3098
0.421032
25.5738
0.400579
25.8409
0.379323
26.1107
0.357262
26.3832
0.334396
26.6584
0.31073
26.9361
0.286268
27.2165
0.261016
27.4996
0.234983
27.7853
0.208179
28.0738
0.180614
28.3651
0.1523
28.6593
0.123252
28.9565
0.0934818
29.2568
0.063006
29.5604
0.0318398
29.8673
0
30.1776
-0.0324961
30.4915
-0.0656305
30.809
-0.0993843
31.1304
-0.133739
31.4557
-0.168673
31.7851
-0.204168
32.1186
-0.240202
32.4563
-0.276753
32.7985
-0.313801
33.1452
-0.351322
33.4964
-0.389295
33.8524
-0.427695
34.2132
-0.4665
34.5789
-0.505685
34.9496
-0.545228
35.3254
-0.585102
35.7064
-0.625284
36.0926
-0.66575
36.4842
-0.706472
36.8811
-0.747427
37.2836
-0.788588
37.6916
-0.829929
38.1052
-0.871426
38.5245
-0.91305
38.9495
-0.954777
39.3802
-0.996579
39.8168
-1.03843
40.2591
-1.0803
40.7073
-1.12217
41.1614
-1.16401
41.6213
-1.20579
42.0873
-1.24749
42.559
-1.28907
43.037
-1.33051
43.5196
-1.37182
44.0122
-1.41281
44.4984
-1.45397
45.0283
-1.49369
-1.53688
45.4487
21.8335
0.882475
-22.0786
21.6459
0.861411
21.5132
0.84211
21.4315
0.824334
21.3962
0.807822
21.4021
0.792306
21.4443
0.777527
21.5181
0.763241
21.619
0.749228
21.7432
0.735292
21.8872
0.721262
22.048
0.70699
22.223
0.692351
22.4102
0.677237
22.6076
0.661561
22.8138
0.645246
23.0274
0.628232
23.2475
0.610467
23.4731
0.591912
23.7036
0.572531
23.9384
0.552299
24.177
0.531196
24.419
0.509206
24.6643
0.486319
24.9125
0.462527
25.1635
0.437827
25.4172
0.412218
25.6736
0.385702
25.9325
0.358283
26.194
0.329968
26.4581
0.300764
26.7247
0.270681
26.9941
0.239731
27.2662
0.207926
27.5411
0.175281
27.819
0.141809
28.0998
0.107528
28.3837
0.0724534
28.6708
0.0366048
28.9612
0
29.255
-0.0373409
29.5524
-0.0753971
29.8534
-0.114148
30.1581
-0.153572
30.4667
-0.193646
30.7793
-0.234346
31.096
-0.275651
31.4168
-0.317534
31.742
-0.359972
32.0716
-0.402939
32.4056
-0.44641
32.7443
-0.490358
33.0876
-0.534757
33.4358
-0.57958
33.7888
-0.6248
34.1468
-0.670389
34.5098
-0.716319
34.8779
-0.762561
35.2512
-0.809089
35.6298
-0.855871
36.0137
-0.90288
36.403
-0.950086
36.7977
-0.997459
37.1978
-1.04497
37.6035
-1.09259
38.0148
-1.14029
38.4316
-1.18803
38.8541
-1.2358
39.2823
-1.28355
39.7161
-1.33125
40.1556
-1.37889
40.6009
-1.42642
41.0517
-1.47382
41.5086
-1.52104
41.9701
-1.56811
42.4409
-1.61482
42.9059
-1.66169
43.4123
-1.70695
-1.75607
43.8155
21.106
0.990466
-21.2901
20.9727
0.969016
20.8868
0.949221
20.8442
0.930809
20.8403
0.913496
20.8707
0.897009
20.931
0.881088
21.0172
0.865494
21.1257
0.850015
21.2534
0.834462
21.3973
0.818674
21.5551
0.80251
21.7248
0.78585
21.9046
0.768595
22.093
0.750659
22.2889
0.73197
22.4911
0.712472
22.699
0.692115
22.9116
0.670859
23.1286
0.648674
23.3494
0.625535
23.5738
0.601422
23.8013
0.576321
24.0317
0.550223
24.265
0.523122
24.5009
0.495015
24.7395
0.465902
24.9806
0.435787
25.2242
0.404676
25.4703
0.372575
25.7191
0.339494
25.9704
0.305445
26.2244
0.27044
26.4811
0.234494
26.7405
0.197621
27.0029
0.15984
27.2683
0.121167
27.5367
0.0816232
27.8083
0.041227
28.0832
0
28.3614
-0.042036
28.6431
-0.0848583
28.9284
-0.128443
29.2174
-0.172767
29.5103
-0.217804
29.807
-0.263529
30.1077
-0.309915
30.4125
-0.356936
30.7216
-0.404565
31.0349
-0.452773
31.3526
-0.501531
31.6749
-0.550811
32.0017
-0.600584
32.3332
-0.650818
32.6694
-0.701485
33.0104
-0.752553
33.3564
-0.803992
33.7073
-0.855769
34.0632
-0.907853
34.4243
-0.960213
34.7905
-1.01282
35.1619
-1.06563
35.5386
-1.11862
35.9206
-1.17175
36.3079
-1.225
36.7006
-1.27832
37.0987
-1.33169
37.5023
-1.38507
37.9113
-1.43843
38.3258
-1.49173
38.7458
-1.54494
39.1713
-1.59803
39.6022
-1.65096
40.039
-1.70368
40.4802
-1.75623
40.9304
-1.80837
41.3752
-1.86068
41.859
-1.9112
-1.96595
42.2457
20.4479
1.0968
-20.5803
20.3593
1.07516
20.3111
1.05501
20.2991
1.03604
20.3193
1.01797
20.3678
1.00053
20.4409
0.98346
20.5353
0.966543
20.648
0.949576
20.7765
0.932381
20.9185
0.914806
21.072
0.896721
21.2354
0.878014
21.4073
0.85859
21.5865
0.838371
21.772
0.817289
21.9631
0.795291
22.1591
0.772329
22.3593
0.748369
22.5634
0.72338
22.7709
0.697339
22.9817
0.670228
23.1954
0.642035
23.4119
0.612752
23.6311
0.582374
23.8528
0.550899
24.0771
0.51833
24.3038
0.48467
24.5331
0.449926
24.7648
0.414108
24.9991
0.377226
25.2359
0.339293
25.4754
0.300323
25.7175
0.260332
25.9625
0.219338
26.2103
0.177358
26.4611
0.134413
26.7149
0.090523
26.9719
0.0457112
27.232
0
27.4956
-0.0465866
27.7625
-0.0940236
28.033
-0.142285
28.3071
-0.191345
28.585
-0.241176
28.8667
-0.29175
29.1523
-0.343038
29.442
-0.39501
29.7357
-0.447638
30.0337
-0.500889
30.3359
-0.554733
30.6426
-0.609138
30.9537
-0.664072
31.2693
-0.719503
31.5896
-0.775396
31.9146
-0.83172
32.2443
-0.888438
32.5788
-0.945517
32.9183
-1.00292
33.2626
-1.06062
33.612
-1.11857
33.9664
-1.17675
34.3259
-1.23511
34.6906
-1.29361
35.0604
-1.35223
35.4354
-1.41093
35.8157
-1.46966
36.2012
-1.5284
36.592
-1.5871
36.9881
-1.64573
37.3895
-1.70426
37.7962
-1.76263
38.2081
-1.82083
38.6257
-1.87879
39.0475
-1.93655
39.4779
-1.99385
39.9034
-2.05133
40.3658
-2.10686
-2.16693
40.7367
19.8481
1.20193
-19.9379
19.7957
1.1802
19.7771
1.15972
19.7887
1.1402
19.8268
1.12136
19.8883
1.10293
19.97
1.08469
20.0692
1.06641
20.1835
1.04792
20.3109
1.02904
20.4494
1.00965
20.5976
0.989606
20.7541
0.968821
20.9178
0.947203
21.0877
0.924678
21.2631
0.901186
21.4433
0.876674
21.6278
0.851101
21.8161
0.824434
22.0079
0.796644
22.2029
0.76771
22.4008
0.737618
22.6015
0.706355
22.8048
0.673916
23.0107
0.640296
23.2191
0.605495
23.4299
0.569518
23.6431
0.532368
23.8588
0.494055
24.077
0.454588
24.2976
0.413981
24.5208
0.372246
24.7466
0.3294
24.9751
0.28546
25.2064
0.240446
25.4405
0.194376
25.6775
0.147274
25.9175
0.0991607
26.1607
0.0500612
26.407
0
26.6566
-0.0509969
26.9096
-0.102903
27.1661
-0.155689
27.4261
-0.209328
27.6898
-0.26379
27.9573
-0.319043
28.2286
-0.375059
28.5039
-0.431804
28.7832
-0.489246
29.0666
-0.547352
29.3541
-0.606088
29.646
-0.665421
29.9422
-0.725315
30.2428
-0.785734
30.5479
-0.846644
30.8576
-0.908007
31.1719
-0.969787
31.4909
-1.03195
31.8146
-1.09445
32.1431
-1.15726
32.4765
-1.22033
32.8147
-1.28363
33.1579
-1.34712
33.506
-1.41076
33.8592
-1.47451
34.2174
-1.53833
34.5806
-1.60219
34.9489
-1.66603
35.3223
-1.72983
35.7008
-1.79354
36.0845
-1.85713
36.4732
-1.92054
36.867
-1.98375
37.2663
-2.0467
37.6696
-2.10941
38.0812
-2.17163
38.4882
-2.23401
38.9301
-2.29431
-2.35941
39.2859
19.2971
1.30618
-19.3524
19.2732
1.28435
19.2774
1.26352
19.3067
1.2434
19.3578
1.22373
19.4281
1.20427
19.5151
1.18479
19.6165
1.1651
19.7304
1.14503
19.8551
1.12443
19.9892
1.10317
20.1314
1.08114
20.2806
1.05825
20.4359
1.03441
20.5966
1.00956
20.7621
0.983644
20.9318
0.95661
21.1053
0.928421
21.2822
0.899048
21.4623
0.868465
21.6453
0.836652
21.8311
0.803597
22.0195
0.76929
22.2104
0.733725
22.4038
0.696901
22.5995
0.658819
22.7977
0.619483
22.9982
0.5789
23.2011
0.53708
23.4065
0.494035
23.6144
0.449777
23.8247
0.404323
24.0377
0.357689
24.2533
0.309895
24.4716
0.260961
24.6928
0.210909
24.9168
0.159762
25.1439
0.107544
25.3739
0.054281
25.6072
0
25.8437
-0.0552714
26.0835
-0.111504
26.3267
-0.168669
26.5734
-0.226735
26.8237
-0.28567
27.0777
-0.345442
27.3355
-0.406018
27.5971
-0.467363
27.8627
-0.529444
28.1323
-0.592224
28.4059
-0.655667
28.6837
-0.719737
28.9658
-0.784396
29.2521
-0.849608
29.5428
-0.915332
29.838
-0.981531
30.1376
-1.04816
30.4418
-1.11519
30.7506
-1.18258
31.064
-1.25028
31.3821
-1.31825
31.705
-1.38645
32.0326
-1.45485
32.365
-1.52339
32.7023
-1.59205
33.0444
-1.66076
33.3914
-1.7295
33.7434
-1.79822
34.1002
-1.86688
34.462
-1.93543
34.8287
-2.00384
35.2003
-2.07205
35.5768
-2.14003
35.9586
-2.20772
36.3443
-2.27515
36.7379
-2.34203
37.1273
-2.40907
37.5496
-2.47391
-2.54377
37.8909
18.7863
1.40972
-18.8144
18.7844
1.38772
18.8059
1.36646
18.848
1.34567
18.9081
1.3251
18.984
1.30453
19.0737
1.28376
19.1753
1.2626
19.2873
1.2409
19.4083
1.21853
19.5371
1.19536
19.6728
1.17131
19.8145
1.14628
19.9615
1.1202
20.1131
1.09301
20.2689
1.06465
20.4285
1.03509
20.5915
1.00428
20.7576
0.972209
20.9266
0.938843
21.0983
0.904168
21.2726
0.868173
21.4494
0.830849
21.6286
0.792193
21.8102
0.752205
21.9941
0.710887
22.1803
0.668245
22.3689
0.624287
22.5598
0.579024
22.7531
0.532469
22.9489
0.484637
23.1472
0.435544
23.348
0.38521
23.5515
0.333655
23.7577
0.2809
23.9666
0.226969
24.1785
0.171887
24.3932
0.11568
24.611
0.0583747
24.8318
0
25.0559
-0.0594146
25.2832
-0.119838
25.5139
-0.181239
25.7481
-0.243586
25.9857
-0.306843
26.227
-0.370977
26.4719
-0.435953
26.7206
-0.501734
26.9732
-0.568283
27.2296
-0.635563
27.4901
-0.703536
27.7545
-0.772162
28.0232
-0.841402
28.296
-0.911215
28.573
-0.981562
28.8543
-1.0524
29.14
-1.12369
29.4302
-1.19538
29.7247
-1.26745
30.0238
-1.33983
30.3274
-1.41249
30.6356
-1.48539
30.9484
-1.55847
31.2659
-1.6317
31.588
-1.70504
31.9149
-1.77843
32.2464
-1.85183
32.5827
-1.9252
32.9238
-1.99849
33.2695
-2.07166
33.6201
-2.14466
33.9754
-2.21744
34.3354
-2.28996
34.7005
-2.36216
35.0694
-2.43407
35.4458
-2.5054
35.8184
-2.57686
36.222
-2.64601
-2.72038
36.5495
18.3086
1.51263
-18.3156
18.3234
1.49036
18.3575
1.46858
18.4086
1.44702
18.4745
1.42546
18.5535
1.4037
18.6438
1.38156
18.7441
1.35886
18.853
1.33548
18.9695
1.3113
19.0926
1.28619
19.2216
1.26008
19.3557
1.23289
19.4944
1.20455
19.6372
1.175
19.7837
1.14419
19.9335
1.1121
20.0865
1.07868
20.2423
1.04392
20.4008
1.00778
20.5618
0.970265
20.7253
0.931354
20.8911
0.891045
21.0593
0.849334
21.2298
0.806223
21.4025
0.761717
21.5775
0.715821
21.7548
0.668547
21.9345
0.619905
22.1165
0.56991
22.3009
0.518579
22.4878
0.465929
22.6772
0.411981
22.8693
0.356756
23.064
0.300277
23.2614
0.24257
23.4617
0.18366
23.6649
0.123576
23.871
0.0623459
24.0802
0
24.2925
-0.0634304
24.5081
-0.127913
24.7269
-0.193414
24.9491
-0.259899
25.1748
-0.327333
25.404
-0.395679
25.6368
-0.4649
25.8732
-0.534957
26.1134
-0.605813
26.3575
-0.677427
26.6054
-0.749759
26.8572
-0.822767
27.1131
-0.89641
27.373
-0.970645
27.637
-1.04543
27.9053
-1.12072
28.1777
-1.19647
28.4545
-1.27264
28.7355
-1.34918
29.0209
-1.42605
29.3107
-1.5032
29.605
-1.58059
29.9037
-1.65816
30.2069
-1.73587
30.5146
-1.81368
30.8269
-1.89153
31.1437
-1.96939
31.4651
-2.04719
31.7911
-2.1249
32.1217
-2.20247
32.4568
-2.27984
32.7966
-2.35697
33.1409
-2.43382
33.49
-2.51031
33.8428
-2.58648
34.2028
-2.66203
34.5593
-2.7377
34.9452
-2.81095
-2.88958
35.2595
17.8581
1.61493
-17.8491
17.8852
1.59227
17.9282
1.56984
17.9851
1.54741
18.0544
1.52477
18.1345
1.50174
18.2239
1.47816
18.3217
1.45387
18.4268
1.42876
18.5383
1.40271
18.6554
1.37563
18.7775
1.34743
18.9041
1.31806
19.0347
1.28743
19.1689
1.25552
19.3064
1.22227
19.447
1.18764
19.5904
1.15162
19.7364
1.11417
19.8849
1.07529
20.0359
1.03495
20.1891
0.993151
20.3447
0.949889
20.5024
0.905162
20.6624
0.858973
20.8247
0.811327
20.9891
0.762232
21.1559
0.7117
21.3249
0.659745
21.4962
0.60638
21.67
0.551624
21.8462
0.495497
22.0248
0.438019
22.2061
0.379214
22.39
0.319107
22.5766
0.257723
22.766
0.195091
22.9582
0.131239
23.1534
0.0661984
23.3515
0
23.5528
-0.0673229
23.7572
-0.135736
23.9648
-0.205205
24.1758
-0.275693
24.3901
-0.347163
24.6078
-0.419576
24.8291
-0.492894
25.0539
-0.567076
25.2825
-0.642082
25.5147
-0.71787
25.7507
-0.794398
25.9905
-0.871621
26.2343
-0.949498
26.482
-1.02798
26.7337
-1.10703
26.9895
-1.18659
27.2493
-1.26663
27.5133
-1.34709
27.7815
-1.42792
28.0539
-1.50909
28.3306
-1.59053
28.6116
-1.67221
28.8969
-1.75407
29.1865
-1.83607
29.4805
-1.91815
29.7789
-2.00027
30.0817
-2.08237
30.3889
-2.16441
30.7005
-2.24633
31.0166
-2.32809
31.337
-2.40963
31.6619
-2.49091
31.9912
-2.57187
32.3251
-2.65245
32.6627
-2.73268
33.007
-2.81224
33.3482
-2.8919
33.7171
-2.96905
-3.05171
34.0186
17.43
1.7166
-17.4092
17.4658
1.69341
17.5147
1.67022
17.5752
1.64681
17.6458
1.62299
17.7254
1.59861
17.8129
1.57352
17.9074
1.54758
18.008
1.52069
18.1141
1.49274
18.2251
1.46365
18.3403
1.43334
18.4595
1.40176
18.5822
1.36885
18.7082
1.33456
18.8371
1.29886
18.9688
1.26171
19.1031
1.22309
19.2399
1.18298
19.379
1.14136
19.5204
1.09823
19.6641
1.05358
19.8099
1.0074
19.9579
0.959694
20.1081
0.910471
20.2604
0.859736
20.4149
0.807497
20.5717
0.753768
20.7307
0.698563
20.892
0.641898
21.0557
0.583792
21.2218
0.524267
21.3904
0.463344
21.5615
0.401048
21.7352
0.337405
21.9116
0.272442
22.0907
0.206189
22.2726
0.138676
22.4574
0.0699357
22.6451
0
22.8359
-0.0710961
23.0298
-0.143317
23.2268
-0.216626
23.4271
-0.290985
23.6306
-0.366355
23.8375
-0.442697
24.0479
-0.519969
24.2618
-0.598129
24.4792
-0.677136
24.7002
-0.756945
24.925
-0.837511
25.1534
-0.918791
25.3857
-1.00074
25.6217
-1.08331
25.8617
-1.16645
26.1056
-1.25011
26.3535
-1.33426
26.6054
-1.41883
26.8614
-1.50378
27.1214
-1.58906
27.3856
-1.67462
27.654
-1.76041
27.9265
-1.84637
28.2032
-1.93247
28.4841
-2.01863
28.7693
-2.10482
29.0587
-2.19098
29.3523
-2.27705
29.6503
-2.363
29.9525
-2.44875
30.2589
-2.53427
30.5697
-2.61949
30.8846
-2.70438
31.204
-2.78884
31.5269
-2.87292
31.8564
-2.9563
32.1829
-3.03976
32.5356
-3.12062
-3.20709
32.825
17.0203
1.81757
-16.9911
17.062
1.79373
17.1145
1.76965
17.1766
1.74515
17.2472
1.72007
17.3252
1.69427
17.4099
1.6676
17.5005
1.63995
17.5963
1.61123
17.6968
1.58135
17.8015
1.55022
17.9101
1.51779
18.022
1.48399
18.1371
1.44878
18.2551
1.41212
18.3759
1.37397
18.4991
1.3343
18.6248
1.2931
18.7529
1.25034
18.8831
1.20602
19.0155
1.16012
19.1501
1.11264
19.2868
1.06358
19.4256
1.01294
19.5665
0.960736
19.7095
0.906962
19.8547
0.851636
20.0021
0.79477
20.1517
0.73638
20.3036
0.676484
20.4578
0.615103
20.6144
0.552257
20.7735
0.487971
20.935
0.422271
21.0991
0.355184
21.2658
0.286738
21.4352
0.216964
21.6074
0.145894
21.7824
0.0735612
21.9603
-1.48986e-07
22.1412
-0.0747534
22.3251
-0.150662
22.5121
-0.227688
22.7022
-0.305792
22.8956
-0.384932
23.0923
-0.465068
23.2923
-0.546157
23.4957
-0.628155
23.7026
-0.711018
23.9131
-0.794701
24.1271
-0.879157
24.3447
-0.96434
24.566
-1.0502
24.7911
-1.13669
25.0199
-1.22377
25.2526
-1.31137
25.4891
-1.39946
25.7295
-1.48798
25.9738
-1.57687
26.2221
-1.6661
26.4744
-1.7556
26.7307
-1.84532
26.991
-1.93521
27.2554
-2.02522
27.5239
-2.11529
27.7964
-2.20536
28.0731
-2.29539
28.3539
-2.38533
28.6387
-2.4751
28.9277
-2.56467
29.2209
-2.65397
29.5181
-2.74295
29.8194
-2.83157
30.1249
-2.91974
30.4339
-3.00749
30.7491
-3.09449
31.0616
-3.18155
31.3988
-3.26594
-3.35601
31.6767
16.626
1.91778
-16.5911
16.6713
1.89314
16.7256
1.86806
16.7879
1.84238
16.8573
1.81596
16.9329
1.78865
17.0142
1.76035
17.1005
1.73096
17.1913
1.70037
17.2862
1.66852
17.3847
1.63534
17.4866
1.60076
17.5915
1.56473
17.6993
1.52722
17.8097
1.48818
17.9227
1.44759
18.0379
1.40542
18.1555
1.36165
18.2752
1.31627
18.3971
1.26926
18.5211
1.22063
18.6471
1.17036
18.7752
1.11846
18.9053
1.06493
19.0375
1.00979
19.1718
0.953027
19.3082
0.894669
19.4468
0.834727
19.5876
0.773217
19.7306
0.71016
19.8759
0.645575
20.0235
0.579487
20.1736
0.51192
20.3261
0.442901
20.4811
0.372458
20.6387
0.300622
20.799
0.227425
20.962
0.152898
21.1278
0.0770782
21.2964
0
21.4679
-0.0782992
21.6423
-0.15778
21.8198
-0.238404
22.0004
-0.320129
22.1842
-0.402914
22.3711
-0.486715
22.5614
-0.571489
22.7549
-0.657189
22.9519
-0.743771
23.1522
-0.831186
23.3561
-0.919388
23.5634
-1.00833
23.7744
-1.09795
23.989
-1.18822
24.2072
-1.27907
24.4292
-1.37046
24.6548
-1.46233
24.8843
-1.55463
25.1175
-1.64731
25.3546
-1.74032
25.5956
-1.83359
25.8404
-1.92708
26.0892
-2.02072
26.3418
-2.11447
26.5984
-2.20827
26.859
-2.30207
27.1235
-2.3958
27.392
-2.48941
27.6644
-2.58284
27.9408
-2.67604
28.2212
-2.76895
28.5055
-2.86152
28.7938
-2.95369
29.0861
-3.04537
29.3818
-3.13661
29.6833
-3.22707
29.9825
-3.31755
30.305
-3.40529
-3.49877
30.5717
16.2446
2.01714
-16.2061
16.2918
1.99158
16.3465
1.96539
16.4079
1.93844
16.4752
1.91059
16.5479
1.88173
16.6254
1.85174
16.7071
1.82055
16.7928
1.78807
16.882
1.75423
16.9745
1.71896
17.0699
1.68223
17.1681
1.64397
17.2688
1.60416
17.372
1.56275
17.4776
1.51973
17.5853
1.47507
17.6951
1.42875
17.8071
1.38077
17.921
1.33111
18.037
1.27977
18.155
1.22675
18.275
1.17205
18.397
1.11568
18.521
1.05764
18.6471
0.997948
18.7752
0.936616
18.9055
0.873658
19.038
0.809094
19.1726
0.742944
19.3095
0.675229
19.4487
0.605974
19.5903
0.535206
19.7343
0.462952
19.8808
0.389242
20.0299
0.314107
20.1815
0.23758
20.3358
0.159696
20.4929
0.0804902
20.6527
0
20.8153
-0.081736
20.9809
-0.164678
21.1494
-0.248784
21.3209
-0.334014
21.4956
-0.420321
21.6733
-0.507664
21.8543
-0.595995
22.0384
-0.685267
22.2259
-0.775434
22.4167
-0.866447
22.6109
-0.958256
22.8086
-1.05081
23.0097
-1.14406
23.2143
-1.23796
23.4225
-1.33244
23.6342
-1.42746
23.8496
-1.52296
24.0686
-1.6189
24.2914
-1.7152
24.5178
-1.81183
24.748
-1.90872
24.9819
-2.00581
25.2196
-2.10305
25.4611
-2.20038
25.7064
-2.29775
25.9555
-2.39509
26.2084
-2.49236
26.4652
-2.58948
26.7258
-2.6864
26.9902
-2.78307
27.2584
-2.87942
27.5304
-2.9754
27.8062
-3.07095
28.086
-3.16598
28.3689
-3.26054
28.6575
-3.35428
28.944
-3.44801
29.2524
-3.53894
-3.63564
29.5085
15.8742
2.11555
-15.8338
15.922
2.08896
15.976
2.06157
16.0357
2.03327
16.1004
2.00392
16.1696
1.97344
16.243
1.94173
16.3201
1.90871
16.4006
1.8743
16.4843
1.83845
16.5708
1.80109
16.66
1.76219
16.7517
1.7217
16.8458
1.67959
16.9421
1.63582
17.0406
1.59038
17.1411
1.54325
17.2437
1.49441
17.3483
1.44385
17.4548
1.39157
17.5633
1.33756
17.6737
1.28182
17.7861
1.22437
17.9004
1.1652
18.0168
1.10432
18.1351
1.04175
18.2555
0.977497
18.378
0.911585
18.5026
0.844031
18.6294
0.774856
18.7584
0.704082
18.8897
0.631737
19.0233
0.557846
19.1593
0.482439
19.2978
0.405548
19.4387
0.327203
19.5822
0.247439
19.7283
0.166293
19.8771
0.0838001
20.0286
0
20.1829
-0.0850678
20.34
-0.171362
20.5
-0.258841
20.663
-0.347459
20.829
-0.437173
20.998
-0.527937
21.1702
-0.619703
21.3455
-0.712423
21.524
-0.806048
21.7057
-0.900529
21.8907
-0.995813
22.0791
-1.09185
22.2709
-1.18859
22.466
-1.28597
22.6646
-1.38394
22.8667
-1.48245
23.0723
-1.58144
23.2814
-1.68086
23.4942
-1.78065
23.7104
-1.88074
23.9304
-1.98109
24.1539
-2.08164
24.3811
-2.18232
24.6119
-2.28308
24.8464
-2.38386
25.0846
-2.48459
25.3265
-2.58523
25.5721
-2.6857
25.8214
-2.78596
26.0743
-2.88593
26.3309
-2.98556
26.5913
-3.08479
26.8552
-3.18356
27.1229
-3.28179
27.3938
-3.3795
27.67
-3.47636
27.9442
-3.57317
28.2392
-3.66714
-3.76688
28.4851
15.5133
2.21294
-15.4722
15.5606
2.18521
15.6131
2.15653
15.6705
2.1268
15.7322
2.09591
15.7977
2.06376
15.8669
2.03028
15.9393
1.9954
16.0147
1.95905
16.0929
1.92117
16.1737
1.88171
16.2569
1.84064
16.3424
1.79792
16.4301
1.75351
16.5199
1.7074
16.6118
1.65956
16.7055
1.60997
16.8013
1.55863
16.8989
1.50553
16.9985
1.45065
17.0999
1.39401
17.2032
1.3356
17.3084
1.27543
17.4156
1.21351
17.5246
1.14984
17.6357
1.08444
17.7488
1.01733
17.864
0.948529
17.9812
0.878049
18.1006
0.805916
18.2222
0.732155
18.346
0.656793
18.4721
0.579857
18.6005
0.501378
18.7314
0.421388
18.8647
0.339921
19.0005
0.25701
19.1389
0.172695
19.2799
0.0870111
19.4235
0
19.5699
-0.0882978
19.719
-0.17784
19.871
-0.268583
20.0259
-0.360481
20.1837
-0.453489
20.3445
-0.547558
20.5083
-0.642642
20.6751
-0.738689
20.8451
-0.83565
21.0183
-0.933472
21.1946
-1.0321
21.3742
-1.13149
21.557
-1.23158
21.7432
-1.33232
21.9327
-1.43365
22.1256
-1.53551
22.3219
-1.63785
22.5216
-1.74062
22.7248
-1.84374
22.9314
-1.94716
23.1416
-2.05083
23.3552
-2.15468
23.5724
-2.25866
23.7931
-2.3627
24.0173
-2.46674
24.2451
-2.57072
24.4765
-2.67457
24.7114
-2.77825
24.9499
-2.88168
25.1919
-2.98481
25.4375
-3.08756
25.6866
-3.18989
25.9392
-3.29173
26.1955
-3.39299
26.4547
-3.4937
26.7191
-3.59353
26.9818
-3.69327
27.264
-3.79013
-3.89274
27.5001
15.1607
2.30922
-15.1199
15.2067
2.28026
15.2573
2.25022
15.3119
2.219
15.3702
2.1865
15.432
2.15265
15.4968
2.11737
15.5646
2.0806
15.635
2.04228
15.7079
2.00236
15.7832
1.96081
15.8607
1.91757
15.9403
1.87262
16.0219
1.82593
16.1055
1.77749
16.1911
1.72726
16.2785
1.67525
16.3678
1.62143
16.4589
1.56581
16.5518
1.50838
16.6466
1.44914
16.7433
1.3881
16.8418
1.32526
16.9421
1.26063
17.0444
1.19423
17.1487
1.12606
17.2549
1.05615
17.3632
0.984509
17.4735
0.911167
17.5859
0.836143
17.7005
0.759465
17.8172
0.681159
17.9363
0.601254
18.0576
0.519783
18.1813
0.436776
18.3074
0.352271
18.4359
0.266302
18.567
0.178907
18.7006
0.0901263
18.8369
-1.48885e-07
18.9758
-0.0914292
19.1174
-0.184118
19.2617
-0.278021
19.4089
-0.373093
19.559
-0.469285
19.7119
-0.56655
19.8678
-0.664837
20.0267
-0.764096
20.1886
-0.864274
20.3536
-0.96532
20.5216
-1.06718
20.6929
-1.16979
20.8673
-1.27311
21.0449
-1.37708
21.2258
-1.48163
21.4099
-1.58672
21.5973
-1.69228
21.7881
-1.79825
21.9822
-1.90457
22.1796
-2.01119
22.3805
-2.11804
22.5847
-2.22506
22.7923
-2.33219
23.0034
-2.43936
23.2178
-2.54652
23.4357
-2.6536
23.6571
-2.76054
23.8818
-2.86727
24.11
-2.97373
24.3416
-3.07987
24.5767
-3.1856
24.8151
-3.29088
25.0569
-3.39564
25.3022
-3.49979
25.5504
-3.60336
25.8035
-3.70601
26.0551
-3.80854
26.3251
-3.90814
-4.01347
26.5519
14.8155
2.40431
-14.7757
14.8598
2.37404
14.9079
2.34257
14.9595
2.30981
15.0143
2.27566
15.0721
2.24007
15.1327
2.20297
15.1959
2.16429
15.2614
2.124
15.3293
2.08203
15.3992
2.03837
15.4713
1.99297
15.5453
1.9458
15.6212
1.89685
15.699
1.84609
15.7786
1.7935
15.86
1.73909
15.9432
1.68283
16.0282
1.62472
16.1149
1.56477
16.2035
1.50297
16.2938
1.43934
16.386
1.37387
16.48
1.30659
16.5759
1.2375
16.6738
1.16661
16.7735
1.09396
16.8753
1.01955
16.9791
0.943405
17.085
0.865557
17.1929
0.786031
17.3031
0.704853
17.4155
0.622054
17.5301
0.537666
17.647
0.451725
17.7663
0.364263
17.888
0.275321
18.0122
0.184936
18.1388
0.0931481
18.268
0
18.3999
-0.0944651
18.5343
-0.190202
18.6715
-0.287166
18.8114
-0.385308
18.9541
-0.48458
19.0996
-0.584933
19.248
-0.686315
19.3993
-0.788674
19.5536
-0.891957
19.7108
-0.99611
19.871
-1.10108
20.0343
-1.2068
20.2007
-1.31323
20.3702