/*--------------------------------*- C++ -*----------------------------------*\
| =========                 |                                                 |
| \\      /  F ield         | OpenFOAM: The Open Source CFD Toolbox           |
|  \\    /   O peration     | Version:  2312                                  |
|   \\  /    A nd           | Website:  www.openfoam.com                      |
|    \\/     M anipulation  |                                                 |
\*---------------------------------------------------------------------------*/
FoamFile
{
    version     2.0;
    format      ascii;
    arch        "LSB;label=32;scalar=64";
    class       volVectorField;
    location    "0.811";
    object      U;
}
// * * * * * * * * * * * * * * * * * * * * * * * * * * * * * * * * * * * * * //

dimensions      [0 1 -1 0 0 0 0];

internalField   nonuniform List<vector> 
31205
(
(195.684 0 0)
(192.586 0 0)
(189.39 0 0)
(186.086 0 0)
(182.67 0 0)
(179.131 0 0)
(175.46 0 0)
(171.648 0 0)
(167.683 0 0)
(163.554 0 0)
(159.249 0 0)
(154.756 0 0)
(150.069 0 0)
(145.188 0 0)
(140.131 0 0)
(134.943 0 0)
(129.716 0 0)
(124.594 0 0)
(119.755 0 0)
(115.382 0 0)
(111.62 0 0)
(108.545 0 0)
(106.164 0 0)
(104.43 0 0)
(103.264 0 0)
(102.578 0 0)
(102.287 0 0)
(102.317 0 0)
(102.603 0 0)
(103.096 0 0)
(103.754 0 0)
(104.545 0 0)
(105.444 0 0)
(106.43 0 0)
(107.488 0 0)
(108.603 0 0)
(109.767 0 0)
(110.97 0 0)
(112.206 0 0)
(113.468 0 0)
(114.753 0 0)
(116.055 0 0)
(117.373 0 0)
(118.703 0 0)
(120.043 0 0)
(121.391 0 0)
(122.745 0 0)
(124.104 0 0)
(125.466 0 0)
(126.831 0 0)
(128.197 0 0)
(129.564 0 0)
(130.931 0 0)
(132.297 0 0)
(133.662 0 0)
(135.026 0 0)
(136.387 0 0)
(137.746 0 0)
(139.102 0 0)
(140.455 0 0)
(141.804 0 0)
(143.15 0 0)
(144.493 0 0)
(145.831 0 0)
(147.165 0 0)
(148.495 0 0)
(149.821 0 0)
(151.143 0 0)
(152.459 0 0)
(153.772 0 0)
(155.079 0 0)
(156.382 0 0)
(157.68 0 0)
(158.972 0 0)
(160.265 0 0)
(161.533 0 0)
(162.858 0 0)
(163.991 0 0)
(165.69 0 0)
(192.392 0 0)
(189.287 0 0)
(186.083 0 0)
(182.771 0 0)
(179.344 0 0)
(175.794 0 0)
(172.111 0 0)
(168.286 0 0)
(164.308 0 0)
(160.165 0 0)
(155.848 0 0)
(151.348 0 0)
(146.664 0 0)
(141.804 0 0)
(136.801 0 0)
(131.722 0 0)
(126.68 0 0)
(121.828 0 0)
(117.339 0 0)
(113.37 0 0)
(110.025 0 0)
(107.343 0 0)
(105.305 0 0)
(103.853 0 0)
(102.907 0 0)
(102.385 0 0)
(102.212 0 0)
(102.321 0 0)
(102.659 0 0)
(103.18 0 0)
(103.85 0 0)
(104.64 0 0)
(105.528 0 0)
(106.495 0 0)
(107.529 0 0)
(108.616 0 0)
(109.747 0 0)
(110.916 0 0)
(112.115 0 0)
(113.34 0 0)
(114.585 0 0)
(115.849 0 0)
(117.126 0 0)
(118.416 0 0)
(119.715 0 0)
(121.021 0 0)
(122.334 0 0)
(123.652 0 0)
(124.974 0 0)
(126.297 0 0)
(127.623 0 0)
(128.95 0 0)
(130.276 0 0)
(131.602 0 0)
(132.928 0 0)
(134.252 0 0)
(135.574 0 0)
(136.894 0 0)
(138.211 0 0)
(139.526 0 0)
(140.838 0 0)
(142.146 0 0)
(143.451 0 0)
(144.752 0 0)
(146.05 0 0)
(147.344 0 0)
(148.633 0 0)
(149.919 0 0)
(151.2 0 0)
(152.477 0 0)
(153.75 0 0)
(155.018 0 0)
(156.282 0 0)
(157.539 0 0)
(158.798 0 0)
(160.034 0 0)
(161.323 0 0)
(162.428 0 0)
(164.077 0 0)
(188.925 0 0)
(185.809 0 0)
(182.592 0 0)
(179.266 0 0)
(175.824 0 0)
(172.258 0 0)
(168.557 0 0)
(164.714 0 0)
(160.717 0 0)
(156.556 0 0)
(152.225 0 0)
(147.72 0 0)
(143.046 0 0)
(138.225 0 0)
(133.31 0 0)
(128.387 0 0)
(123.587 0 0)
(119.067 0 0)
(114.98 0 0)
(111.446 0 0)
(108.531 0 0)
(106.24 0 0)
(104.536 0 0)
(103.352 0 0)
(102.614 0 0)
(102.246 0 0)
(102.183 0 0)
(102.368 0 0)
(102.754 0 0)
(103.303 0 0)
(103.984 0 0)
(104.773 0 0)
(105.65 0 0)
(106.6 0 0)
(107.61 0 0)
(108.669 0 0)
(109.77 0 0)
(110.906 0 0)
(112.07 0 0)
(113.258 0 0)
(114.466 0 0)
(115.69 0 0)
(116.929 0 0)
(118.179 0 0)
(119.438 0 0)
(120.705 0 0)
(121.977 0 0)
(123.255 0 0)
(124.537 0 0)
(125.821 0 0)
(127.107 0 0)
(128.393 0 0)
(129.681 0 0)
(130.968 0 0)
(132.254 0 0)
(133.54 0 0)
(134.823 0 0)
(136.105 0 0)
(137.385 0 0)
(138.662 0 0)
(139.937 0 0)
(141.208 0 0)
(142.477 0 0)
(143.742 0 0)
(145.003 0 0)
(146.261 0 0)
(147.515 0 0)
(148.765 0 0)
(150.012 0 0)
(151.254 0 0)
(152.492 0 0)
(153.726 0 0)
(154.956 0 0)
(156.18 0 0)
(157.406 0 0)
(158.609 0 0)
(159.863 0 0)
(160.942 0 0)
(162.54 0 0)
(185.375 0 0)
(182.244 0 0)
(179.011 0 0)
(175.669 0 0)
(172.208 0 0)
(168.622 0 0)
(164.901 0 0)
(161.036 0 0)
(157.018 0 0)
(152.84 0 0)
(148.498 0 0)
(143.995 0 0)
(139.348 0 0)
(134.595 0 0)
(129.808 0 0)
(125.094 0 0)
(120.593 0 0)
(116.449 0 0)
(112.79 0 0)
(109.696 0 0)
(107.197 0 0)
(105.274 0 0)
(103.875 0 0)
(102.936 0 0)
(102.384 0 0)
(102.156 0 0)
(102.192 0 0)
(102.445 0 0)
(102.874 0 0)
(103.447 0 0)
(104.137 0 0)
(104.925 0 0)
(105.792 0 0)
(106.725 0 0)
(107.712 0 0)
(108.746 0 0)
(109.817 0 0)
(110.921 0 0)
(112.051 0 0)
(113.204 0 0)
(114.376 0 0)
(115.563 0 0)
(116.764 0 0)
(117.976 0 0)
(119.196 0 0)
(120.424 0 0)
(121.658 0 0)
(122.897 0 0)
(124.14 0 0)
(125.385 0 0)
(126.633 0 0)
(127.881 0 0)
(129.13 0 0)
(130.379 0 0)
(131.628 0 0)
(132.875 0 0)
(134.122 0 0)
(135.367 0 0)
(136.609 0 0)
(137.85 0 0)
(139.088 0 0)
(140.323 0 0)
(141.556 0 0)
(142.785 0 0)
(144.012 0 0)
(145.234 0 0)
(146.454 0 0)
(147.669 0 0)
(148.882 0 0)
(150.09 0 0)
(151.294 0 0)
(152.495 0 0)
(153.692 0 0)
(154.883 0 0)
(156.075 0 0)
(157.246 0 0)
(158.467 0 0)
(159.518 0 0)
(161.071 0 0)
(181.782 0 0)
(178.635 0 0)
(175.385 0 0)
(172.023 0 0)
(168.543 0 0)
(164.935 0 0)
(161.192 0 0)
(157.306 0 0)
(153.269 0 0)
(149.078 0 0)
(144.734 0 0)
(140.25 0 0)
(135.656 0 0)
(131.01 0 0)
(126.402 0 0)
(121.952 0 0)
(117.796 0 0)
(114.058 0 0)
(110.831 0 0)
(108.162 0 0)
(106.049 0 0)
(104.458 0 0)
(103.331 0 0)
(102.606 0 0)
(102.217 0 0)
(102.109 0 0)
(102.231 0 0)
(102.542 0 0)
(103.008 0 0)
(103.601 0 0)
(104.299 0 0)
(105.083 0 0)
(105.939 0 0)
(106.855 0 0)
(107.821 0 0)
(108.829 0 0)
(109.872 0 0)
(110.945 0 0)
(112.043 0 0)
(113.162 0 0)
(114.298 0 0)
(115.45 0 0)
(116.614 0 0)
(117.789 0 0)
(118.973 0 0)
(120.163 0 0)
(121.36 0 0)
(122.561 0 0)
(123.766 0 0)
(124.974 0 0)
(126.184 0 0)
(127.395 0 0)
(128.607 0 0)
(129.819 0 0)
(131.03 0 0)
(132.242 0 0)
(133.451 0 0)
(134.66 0 0)
(135.867 0 0)
(137.072 0 0)
(138.274 0 0)
(139.474 0 0)
(140.672 0 0)
(141.866 0 0)
(143.058 0 0)
(144.247 0 0)
(145.432 0 0)
(146.614 0 0)
(147.793 0 0)
(148.968 0 0)
(150.139 0 0)
(151.307 0 0)
(152.471 0 0)
(153.63 0 0)
(154.79 0 0)
(155.93 0 0)
(157.117 0 0)
(158.141 0 0)
(159.65 0 0)
(178.162 0 0)
(174.998 0 0)
(171.729 0 0)
(168.348 0 0)
(164.846 0 0)
(161.217 0 0)
(157.453 0 0)
(153.548 0 0)
(149.497 0 0)
(145.302 0 0)
(140.972 0 0)
(136.531 0 0)
(132.028 0 0)
(127.536 0 0)
(123.161 0 0)
(119.024 0 0)
(115.246 0 0)
(111.926 0 0)
(109.121 0 0)
(106.848 0 0)
(105.085 0 0)
(103.787 0 0)
(102.897 0 0)
(102.356 0 0)
(102.108 0 0)
(102.102 0 0)
(102.296 0 0)
(102.656 0 0)
(103.152 0 0)
(103.761 0 0)
(104.463 0 0)
(105.242 0 0)
(106.087 0 0)
(106.986 0 0)
(107.93 0 0)
(108.913 0 0)
(109.928 0 0)
(110.971 0 0)
(112.038 0 0)
(113.124 0 0)
(114.227 0 0)
(115.344 0 0)
(116.473 0 0)
(117.612 0 0)
(118.759 0 0)
(119.914 0 0)
(121.074 0 0)
(122.239 0 0)
(123.407 0 0)
(124.578 0 0)
(125.752 0 0)
(126.927 0 0)
(128.102 0 0)
(129.278 0 0)
(130.454 0 0)
(131.63 0 0)
(132.804 0 0)
(133.977 0 0)
(135.149 0 0)
(136.319 0 0)
(137.487 0 0)
(138.653 0 0)
(139.816 0 0)
(140.977 0 0)
(142.135 0 0)
(143.29 0 0)
(144.442 0 0)
(145.591 0 0)
(146.737 0 0)
(147.879 0 0)
(149.018 0 0)
(150.154 0 0)
(151.286 0 0)
(152.413 0 0)
(153.542 0 0)
(154.651 0 0)
(155.806 0 0)
(156.803 0 0)
(158.27 0 0)
(174.518 0 0)
(171.337 0 0)
(168.048 0 0)
(164.647 0 0)
(161.125 0 0)
(157.475 0 0)
(153.693 0 0)
(149.774 0 0)
(145.718 0 0)
(141.533 0 0)
(137.24 0 0)
(132.878 0 0)
(128.509 0 0)
(124.223 0 0)
(120.131 0 0)
(116.346 0 0)
(112.966 0 0)
(110.059 0 0)
(107.653 0 0)
(105.74 0 0)
(104.288 0 0)
(103.246 0 0)
(102.561 0 0)
(102.178 0 0)
(102.048 0 0)
(102.129 0 0)
(102.384 0 0)
(102.784 0 0)
(103.305 0 0)
(103.925 0 0)
(104.628 0 0)
(105.401 0 0)
(106.233 0 0)
(107.114 0 0)
(108.037 0 0)
(108.995 0 0)
(109.984 0 0)
(110.998 0 0)
(112.033 0 0)
(113.088 0 0)
(114.158 0 0)
(115.241 0 0)
(116.336 0 0)
(117.441 0 0)
(118.553 0 0)
(119.672 0 0)
(120.797 0 0)
(121.927 0 0)
(123.06 0 0)
(124.196 0 0)
(125.334 0 0)
(126.473 0 0)
(127.614 0 0)
(128.755 0 0)
(129.896 0 0)
(131.037 0 0)
(132.177 0 0)
(133.316 0 0)
(134.453 0 0)
(135.589 0 0)
(136.724 0 0)
(137.856 0 0)
(138.986 0 0)
(140.113 0 0)
(141.238 0 0)
(142.361 0 0)
(143.48 0 0)
(144.597 0 0)
(145.711 0 0)
(146.821 0 0)
(147.929 0 0)
(149.033 0 0)
(150.134 0 0)
(151.23 0 0)
(152.328 0 0)
(153.406 0 0)
(154.53 0 0)
(155.501 0 0)
(156.926 0 0)
(170.852 0 0)
(167.652 0 0)
(164.344 0 0)
(160.922 0 0)
(157.381 0 0)
(153.714 0 0)
(149.918 0 0)
(145.993 0 0)
(141.946 0 0)
(137.794 0 0)
(133.569 0 0)
(129.325 0 0)
(125.141 0 0)
(121.112 0 0)
(117.345 0 0)
(113.936 0 0)
(110.957 0 0)
(108.447 0 0)
(106.409 0 0)
(104.82 0 0)
(103.64 0 0)
(102.82 0 0)
(102.309 0 0)
(102.061 0 0)
(102.031 0 0)
(102.185 0 0)
(102.491 0 0)
(102.924 0 0)
(103.464 0 0)
(104.092 0 0)
(104.794 0 0)
(105.559 0 0)
(106.378 0 0)
(107.241 0 0)
(108.142 0 0)
(109.076 0 0)
(110.038 0 0)
(111.024 0 0)
(112.03 0 0)
(113.053 0 0)
(114.091 0 0)
(115.142 0 0)
(116.204 0 0)
(117.275 0 0)
(118.354 0 0)
(119.439 0 0)
(120.529 0 0)
(121.625 0 0)
(122.723 0 0)
(123.825 0 0)
(124.929 0 0)
(126.034 0 0)
(127.14 0 0)
(128.247 0 0)
(129.355 0 0)
(130.462 0 0)
(131.568 0 0)
(132.674 0 0)
(133.778 0 0)
(134.881 0 0)
(135.982 0 0)
(137.082 0 0)
(138.179 0 0)
(139.274 0 0)
(140.367 0 0)
(141.458 0 0)
(142.546 0 0)
(143.631 0 0)
(144.713 0 0)
(145.793 0 0)
(146.869 0 0)
(147.943 0 0)
(149.013 0 0)
(150.079 0 0)
(151.146 0 0)
(152.195 0 0)
(153.288 0 0)
(154.233 0 0)
(155.618 0 0)
(167.162 0 0)
(163.943 0 0)
(160.616 0 0)
(157.176 0 0)
(153.617 0 0)
(149.937 0 0)
(146.136 0 0)
(142.219 0 0)
(138.201 0 0)
(134.11 0 0)
(129.992 0 0)
(125.915 0 0)
(121.964 0 0)
(118.237 0 0)
(114.825 0 0)
(111.802 0 0)
(109.214 0 0)
(107.073 0 0)
(105.368 0 0)
(104.065 0 0)
(103.122 0 0)
(102.493 0 0)
(102.131 0 0)
(101.996 0 0)
(102.051 0 0)
(102.266 0 0)
(102.614 0 0)
(103.074 0 0)
(103.627 0 0)
(104.26 0 0)
(104.96 0 0)
(105.716 0 0)
(106.52 0 0)
(107.365 0 0)
(108.245 0 0)
(109.155 0 0)
(110.091 0 0)
(111.049 0 0)
(112.026 0 0)
(113.02 0 0)
(114.027 0 0)
(115.046 0 0)
(116.076 0 0)
(117.114 0 0)
(118.16 0 0)
(119.212 0 0)
(120.27 0 0)
(121.332 0 0)
(122.397 0 0)
(123.465 0 0)
(124.536 0 0)
(125.608 0 0)
(126.681 0 0)
(127.755 0 0)
(128.829 0 0)
(129.904 0 0)
(130.977 0 0)
(132.05 0 0)
(133.122 0 0)
(134.193 0 0)
(135.262 0 0)
(136.33 0 0)
(137.396 0 0)
(138.459 0 0)
(139.521 0 0)
(140.58 0 0)
(141.637 0 0)
(142.692 0 0)
(143.744 0 0)
(144.793 0 0)
(145.839 0 0)
(146.882 0 0)
(147.923 0 0)
(148.959 0 0)
(149.997 0 0)
(151.017 0 0)
(152.079 0 0)
(152.998 0 0)
(154.345 0 0)
(163.447 0 0)
(160.21 0 0)
(156.866 0 0)
(153.409 0 0)
(149.839 0 0)
(146.154 0 0)
(142.36 0 0)
(138.47 0 0)
(134.508 0 0)
(130.514 0 0)
(126.548 0 0)
(122.686 0 0)
(119.015 0 0)
(115.622 0 0)
(112.58 0 0)
(109.939 0 0)
(107.719 0 0)
(105.917 0 0)
(104.508 0 0)
(103.455 0 0)
(102.717 0 0)
(102.25 0 0)
(102.014 0 0)
(101.976 0 0)
(102.102 0 0)
(102.367 0 0)
(102.75 0 0)
(103.231 0 0)
(103.795 0 0)
(104.43 0 0)
(105.125 0 0)
(105.871 0 0)
(106.66 0 0)
(107.487 0 0)
(108.346 0 0)
(109.233 0 0)
(110.143 0 0)
(111.074 0 0)
(112.023 0 0)
(112.987 0 0)
(113.965 0 0)
(114.953 0 0)
(115.952 0 0)
(116.959 0 0)
(117.973 0 0)
(118.993 0 0)
(120.018 0 0)
(121.048 0 0)
(122.081 0 0)
(123.117 0 0)
(124.155 0 0)
(125.195 0 0)
(126.236 0 0)
(127.278 0 0)
(128.32 0 0)
(129.362 0 0)
(130.404 0 0)
(131.445 0 0)
(132.486 0 0)
(133.525 0 0)
(134.563 0 0)
(135.6 0 0)
(136.635 0 0)
(137.668 0 0)
(138.699 0 0)
(139.728 0 0)
(140.755 0 0)
(141.779 0 0)
(142.801 0 0)
(143.82 0 0)
(144.837 0 0)
(145.851 0 0)
(146.862 0 0)
(147.87 0 0)
(148.878 0 0)
(149.87 0 0)
(150.902 0 0)
(151.797 0 0)
(153.105 0 0)
(159.709 0 0)
(156.455 0 0)
(153.096 0 0)
(149.628 0 0)
(146.054 0 0)
(142.376 0 0)
(138.608 0 0)
(134.77 0 0)
(130.898 0 0)
(127.045 0 0)
(123.278 0 0)
(119.676 0 0)
(116.32 0 0)
(113.281 0 0)
(110.61 0 0)
(108.333 0 0)
(106.454 0 0)
(104.956 0 0)
(103.807 0 0)
(102.97 0 0)
(102.407 0 0)
(102.078 0 0)
(101.951 0 0)
(101.993 0 0)
(102.179 0 0)
(102.486 0 0)
(102.897 0 0)
(103.394 0 0)
(103.966 0 0)
(104.6 0 0)
(105.289 0 0)
(106.024 0 0)
(106.798 0 0)
(107.607 0 0)
(108.445 0 0)
(109.309 0 0)
(110.194 0 0)
(111.099 0 0)
(112.021 0 0)
(112.956 0 0)
(113.905 0 0)
(114.864 0 0)
(115.832 0 0)
(116.809 0 0)
(117.792 0 0)
(118.781 0 0)
(119.775 0 0)
(120.773 0 0)
(121.775 0 0)
(122.779 0 0)
(123.786 0 0)
(124.795 0 0)
(125.804 0 0)
(126.815 0 0)
(127.826 0 0)
(128.837 0 0)
(129.848 0 0)
(130.858 0 0)
(131.868 0 0)
(132.877 0 0)
(133.885 0 0)
(134.891 0 0)
(135.896 0 0)
(136.899 0 0)
(137.9 0 0)
(138.9 0 0)
(139.897 0 0)
(140.892 0 0)
(141.885 0 0)
(142.875 0 0)
(143.863 0 0)
(144.848 0 0)
(145.831 0 0)
(146.81 0 0)
(147.791 0 0)
(148.755 0 0)
(149.758 0 0)
(150.628 0 0)
(151.898 0 0)
(155.948 0 0)
(152.68 0 0)
(149.311 0 0)
(145.841 0 0)
(142.274 0 0)
(138.622 0 0)
(134.903 0 0)
(131.151 0 0)
(127.411 0 0)
(123.744 0 0)
(120.221 0 0)
(116.916 0 0)
(113.898 0 0)
(111.217 0 0)
(108.905 0 0)
(106.968 0 0)
(105.397 0 0)
(104.166 0 0)
(103.244 0 0)
(102.593 0 0)
(102.179 0 0)
(101.968 0 0)
(101.931 0 0)
(102.041 0 0)
(102.277 0 0)
(102.619 0 0)
(103.052 0 0)
(103.562 0 0)
(104.138 0 0)
(104.771 0 0)
(105.452 0 0)
(106.175 0 0)
(106.934 0 0)
(107.724 0 0)
(108.542 0 0)
(109.383 0 0)
(110.244 0 0)
(111.123 0 0)
(112.018 0 0)
(112.927 0 0)
(113.847 0 0)
(114.777 0 0)
(115.716 0 0)
(116.663 0 0)
(117.616 0 0)
(118.575 0 0)
(119.539 0 0)
(120.507 0 0)
(121.478 0 0)
(122.452 0 0)
(123.428 0 0)
(124.406 0 0)
(125.386 0 0)
(126.366 0 0)
(127.347 0 0)
(128.328 0 0)
(129.309 0 0)
(130.289 0 0)
(131.269 0 0)
(132.248 0 0)
(133.226 0 0)
(134.203 0 0)
(135.179 0 0)
(136.153 0 0)
(137.125 0 0)
(138.095 0 0)
(139.064 0 0)
(140.03 0 0)
(140.995 0 0)
(141.957 0 0)
(142.916 0 0)
(143.874 0 0)
(144.829 0 0)
(145.78 0 0)
(146.733 0 0)
(147.67 0 0)
(148.645 0 0)
(149.491 0 0)
(150.724 0 0)
(152.169 0 0)
(148.893 0 0)
(145.521 0 0)
(142.06 0 0)
(138.519 0 0)
(134.915 0 0)
(131.279 0 0)
(127.651 0 0)
(124.087 0 0)
(120.65 0 0)
(117.408 0 0)
(114.426 0 0)
(111.754 0 0)
(109.424 0 0)
(107.448 0 0)
(105.821 0 0)
(104.524 0 0)
(103.527 0 0)
(102.8 0 0)
(102.309 0 0)
(102.022 0 0)
(101.91 0 0)
(101.949 0 0)
(102.117 0 0)
(102.394 0 0)
(102.764 0 0)
(103.215 0 0)
(103.734 0 0)
(104.312 0 0)
(104.94 0 0)
(105.613 0 0)
(106.324 0 0)
(107.067 0 0)
(107.839 0 0)
(108.636 0 0)
(109.455 0 0)
(110.293 0 0)
(111.147 0 0)
(112.016 0 0)
(112.898 0 0)
(113.791 0 0)
(114.693 0 0)
(115.604 0 0)
(116.522 0 0)
(117.446 0 0)
(118.376 0 0)
(119.311 0 0)
(120.249 0 0)
(121.191 0 0)
(122.135 0 0)
(123.082 0 0)
(124.03 0 0)
(124.98 0 0)
(125.931 0 0)
(126.882 0 0)
(127.834 0 0)
(128.785 0 0)
(129.737 0 0)
(130.688 0 0)
(131.638 0 0)
(132.587 0 0)
(133.535 0 0)
(134.482 0 0)
(135.428 0 0)
(136.372 0 0)
(137.314 0 0)
(138.255 0 0)
(139.193 0 0)
(140.13 0 0)
(141.064 0 0)
(141.996 0 0)
(142.926 0 0)
(143.854 0 0)
(144.778 0 0)
(145.704 0 0)
(146.615 0 0)
(147.562 0 0)
(148.385 0 0)
(149.582 0 0)
(148.377 0 0)
(145.1 0 0)
(141.739 0 0)
(138.304 0 0)
(134.811 0 0)
(131.288 0 0)
(127.771 0 0)
(124.311 0 0)
(120.966 0 0)
(117.797 0 0)
(114.864 0 0)
(112.215 0 0)
(109.884 0 0)
(107.886 0 0)
(106.22 0 0)
(104.869 0 0)
(103.812 0 0)
(103.018 0 0)
(102.458 0 0)
(102.102 0 0)
(101.923 0 0)
(101.896 0 0)
(101.999 0 0)
(102.214 0 0)
(102.525 0 0)
(102.918 0 0)
(103.383 0 0)
(103.908 0 0)
(104.486 0 0)
(105.109 0 0)
(105.772 0 0)
(106.47 0 0)
(107.198 0 0)
(107.952 0 0)
(108.729 0 0)
(109.526 0 0)
(110.341 0 0)
(111.171 0 0)
(112.015 0 0)
(112.87 0 0)
(113.737 0 0)
(114.612 0 0)
(115.495 0 0)
(116.386 0 0)
(117.282 0 0)
(118.183 0 0)
(119.089 0 0)
(119.999 0 0)
(120.912 0 0)
(121.828 0 0)
(122.746 0 0)
(123.666 0 0)
(124.587 0 0)
(125.509 0 0)
(126.432 0 0)
(127.355 0 0)
(128.278 0 0)
(129.201 0 0)
(130.124 0 0)
(131.046 0 0)
(131.967 0 0)
(132.887 0 0)
(133.807 0 0)
(134.724 0 0)
(135.641 0 0)
(136.556 0 0)
(137.469 0 0)
(138.38 0 0)
(139.29 0 0)
(140.197 0 0)
(141.103 0 0)
(142.006 0 0)
(142.907 0 0)
(143.805 0 0)
(144.704 0 0)
(145.589 0 0)
(146.509 0 0)
(147.309 0 0)
(148.471 0 0)
(144.583 0 0)
(141.318 0 0)
(137.984 0 0)
(134.599 0 0)
(131.185 0 0)
(127.778 0 0)
(124.423 0 0)
(121.172 0 0)
(118.083 0 0)
(115.209 0 0)
(112.598 0 0)
(110.281 0 0)
(108.276 0 0)
(106.585 0 0)
(105.196 0 0)
(104.09 0 0)
(103.241 0 0)
(102.621 0 0)
(102.204 0 0)
(101.963 0 0)
(101.875 0 0)
(101.918 0 0)
(102.075 0 0)
(102.33 0 0)
(102.669 0 0)
(103.08 0 0)
(103.554 0 0)
(104.083 0 0)
(104.659 0 0)
(105.276 0 0)
(105.93 0 0)
(106.614 0 0)
(107.326 0 0)
(108.062 0 0)
(108.819 0 0)
(109.595 0 0)
(110.387 0 0)
(111.194 0 0)
(112.013 0 0)
(112.844 0 0)
(113.684 0 0)
(114.534 0 0)
(115.39 0 0)
(116.254 0 0)
(117.123 0 0)
(117.997 0 0)
(118.875 0 0)
(119.757 0 0)
(120.643 0 0)
(121.531 0 0)
(122.421 0 0)
(123.313 0 0)
(124.206 0 0)
(125.1 0 0)
(125.995 0 0)
(126.89 0 0)
(127.786 0 0)
(128.682 0 0)
(129.577 0 0)
(130.471 0 0)
(131.365 0 0)
(132.259 0 0)
(133.151 0 0)
(134.041 0 0)
(134.931 0 0)
(135.819 0 0)
(136.706 0 0)
(137.59 0 0)
(138.474 0 0)
(139.355 0 0)
(140.234 0 0)
(141.111 0 0)
(141.986 0 0)
(142.858 0 0)
(143.732 0 0)
(144.591 0 0)
(145.485 0 0)
(146.263 0 0)
(147.391 0 0)
(140.8 0 0)
(137.565 0 0)
(134.282 0 0)
(130.976 0 0)
(127.677 0 0)
(124.427 0 0)
(121.274 0 0)
(118.27 0 0)
(115.464 0 0)
(112.901 0 0)
(110.611 0 0)
(108.613 0 0)
(106.911 0 0)
(105.496 0 0)
(104.353 0 0)
(103.46 0 0)
(102.79 0 0)
(102.32 0 0)
(102.024 0 0)
(101.88 0 0)
(101.869 0 0)
(101.972 0 0)
(102.173 0 0)
(102.461 0 0)
(102.822 0 0)
(103.248 0 0)
(103.729 0 0)
(104.26 0 0)
(104.832 0 0)
(105.442 0 0)
(106.084 0 0)
(106.755 0 0)
(107.452 0 0)
(108.17 0 0)
(108.908 0 0)
(109.663 0 0)
(110.433 0 0)
(111.217 0 0)
(112.012 0 0)
(112.819 0 0)
(113.634 0 0)
(114.458 0 0)
(115.289 0 0)
(116.126 0 0)
(116.969 0 0)
(117.816 0 0)
(118.668 0 0)
(119.523 0 0)
(120.381 0 0)
(121.242 0 0)
(122.105 0 0)
(122.97 0 0)
(123.836 0 0)
(124.704 0 0)
(125.572 0 0)
(126.44 0 0)
(127.309 0 0)
(128.178 0 0)
(129.046 0 0)
(129.914 0 0)
(130.782 0 0)
(131.648 0 0)
(132.514 0 0)
(133.379 0 0)
(134.242 0 0)
(135.104 0 0)
(135.965 0 0)
(136.824 0 0)
(137.681 0 0)
(138.536 0 0)
(139.39 0 0)
(140.242 0 0)
(141.092 0 0)
(141.939 0 0)
(142.787 0 0)
(143.622 0 0)
(144.489 0 0)
(145.246 0 0)
(146.34 0 0)
(137.051 0 0)
(133.869 0 0)
(130.666 0 0)
(127.474 0 0)
(124.329 0 0)
(121.276 0 0)
(118.361 0 0)
(115.63 0 0)
(113.124 0 0)
(110.872 0 0)
(108.893 0 0)
(107.193 0 0)
(105.765 0 0)
(104.597 0 0)
(103.669 0 0)
(102.959 0 0)
(102.443 0 0)
(102.1 0 0)
(101.907 0 0)
(101.845 0 0)
(101.898 0 0)
(102.051 0 0)
(102.29 0 0)
(102.604 0 0)
(102.984 0 0)
(103.42 0 0)
(103.906 0 0)
(104.436 0 0)
(105.004 0 0)
(105.606 0 0)
(106.237 0 0)
(106.894 0 0)
(107.574 0 0)
(108.275 0 0)
(108.994 0 0)
(109.729 0 0)
(110.478 0 0)
(111.239 0 0)
(112.012 0 0)
(112.794 0 0)
(113.585 0 0)
(114.384 0 0)
(115.19 0 0)
(116.002 0 0)
(116.819 0 0)
(117.641 0 0)
(118.467 0 0)
(119.296 0 0)
(120.128 0 0)
(120.963 0 0)
(121.8 0 0)
(122.639 0 0)
(123.479 0 0)
(124.32 0 0)
(125.161 0 0)
(126.004 0 0)
(126.846 0 0)
(127.689 0 0)
(128.532 0 0)
(129.374 0 0)
(130.215 0 0)
(131.056 0 0)
(131.896 0 0)
(132.735 0 0)
(133.573 0 0)
(134.41 0 0)
(135.245 0 0)
(136.079 0 0)
(136.911 0 0)
(137.742 0 0)
(138.571 0 0)
(139.398 0 0)
(140.223 0 0)
(141.045 0 0)
(141.869 0 0)
(142.68 0 0)
(143.522 0 0)
(144.257 0 0)
(145.318 0 0)
(133.363 0 0)
(130.262 0 0)
(127.175 0 0)
(124.135 0 0)
(121.182 0 0)
(118.36 0 0)
(115.71 0 0)
(113.269 0 0)
(111.065 0 0)
(109.116 0 0)
(107.428 0 0)
(105.999 0 0)
(104.817 0 0)
(103.864 0 0)
(103.122 0 0)
(102.569 0 0)
(102.185 0 0)
(101.949 0 0)
(101.843 0 0)
(101.851 0 0)
(101.958 0 0)
(102.152 0 0)
(102.422 0 0)
(102.758 0 0)
(103.151 0 0)
(103.596 0 0)
(104.084 0 0)
(104.612 0 0)
(105.174 0 0)
(105.767 0 0)
(106.387 0 0)
(107.03 0 0)
(107.695 0 0)
(108.378 0 0)
(109.078 0 0)
(109.793 0 0)
(110.521 0 0)
(111.261 0 0)
(112.011 0 0)
(112.771 0 0)
(113.538 0 0)
(114.313 0 0)
(115.095 0 0)
(115.882 0 0)
(116.675 0 0)
(117.472 0 0)
(118.272 0 0)
(119.076 0 0)
(119.883 0 0)
(120.693 0 0)
(121.504 0 0)
(122.317 0 0)
(123.132 0 0)
(123.947 0 0)
(124.764 0 0)
(125.581 0 0)
(126.398 0 0)
(127.215 0 0)
(128.032 0 0)
(128.849 0 0)
(129.666 0 0)
(130.482 0 0)
(131.297 0 0)
(132.111 0 0)
(132.924 0 0)
(133.736 0 0)
(134.547 0 0)
(135.356 0 0)
(136.164 0 0)
(136.97 0 0)
(137.775 0 0)
(138.577 0 0)
(139.379 0 0)
(140.177 0 0)
(140.976 0 0)
(141.764 0 0)
(142.581 0 0)
(143.296 0 0)
(144.325 0 0)
(129.77 0 0)
(126.786 0 0)
(123.85 0 0)
(120.999 0 0)
(118.272 0 0)
(115.707 0 0)
(113.338 0 0)
(111.189 0 0)
(109.28 0 0)
(107.615 0 0)
(106.194 0 0)
(105.008 0 0)
(104.041 0 0)
(103.275 0 0)
(102.693 0 0)
(102.275 0 0)
(102.001 0 0)
(101.856 0 0)
(101.824 0 0)
(101.89 0 0)
(102.043 0 0)
(102.271 0 0)
(102.566 0 0)
(102.919 0 0)
(103.324 0 0)
(103.773 0 0)
(104.263 0 0)
(104.787 0 0)
(105.343 0 0)
(105.926 0 0)
(106.534 0 0)
(107.164 0 0)
(107.813 0 0)
(108.479 0 0)
(109.16 0 0)
(109.856 0 0)
(110.564 0 0)
(111.282 0 0)
(112.011 0 0)
(112.748 0 0)
(113.493 0 0)
(114.245 0 0)
(115.003 0 0)
(115.767 0 0)
(116.535 0 0)
(117.307 0 0)
(118.084 0 0)
(118.863 0 0)
(119.646 0 0)
(120.43 0 0)
(121.217 0 0)
(122.006 0 0)
(122.795 0 0)
(123.586 0 0)
(124.378 0 0)
(125.17 0 0)
(125.963 0 0)
(126.756 0 0)
(127.549 0 0)
(128.341 0 0)
(129.133 0 0)
(129.925 0 0)
(130.715 0 0)
(131.505 0 0)
(132.294 0 0)
(133.082 0 0)
(133.869 0 0)
(134.654 0 0)
(135.438 0 0)
(136.221 0 0)
(137.002 0 0)
(137.781 0 0)
(138.558 0 0)
(139.333 0 0)
(140.11 0 0)
(140.874 0 0)
(141.667 0 0)
(142.361 0 0)
(143.359 0 0)
(126.312 0 0)
(123.481 0 0)
(120.733 0 0)
(118.103 0 0)
(115.626 0 0)
(113.333 0 0)
(111.248 0 0)
(109.385 0 0)
(107.753 0 0)
(106.35 0 0)
(105.168 0 0)
(104.194 0 0)
(103.414 0 0)
(102.81 0 0)
(102.365 0 0)
(102.06 0 0)
(101.882 0 0)
(101.813 0 0)
(101.843 0 0)
(101.958 0 0)
(102.148 0 0)
(102.405 0 0)
(102.721 0 0)
(103.087 0 0)
(103.5 0 0)
(103.953 0 0)
(104.441 0 0)
(104.961 0 0)
(105.509 0 0)
(106.083 0 0)
(106.678 0 0)
(107.294 0 0)
(107.928 0 0)
(108.577 0 0)
(109.241 0 0)
(109.917 0 0)
(110.605 0 0)
(111.303 0 0)
(112.011 0 0)
(112.726 0 0)
(113.449 0 0)
(114.179 0 0)
(114.914 0 0)
(115.654 0 0)
(116.399 0 0)
(117.149 0 0)
(117.901 0 0)
(118.657 0 0)
(119.416 0 0)
(120.177 0 0)
(120.939 0 0)
(121.704 0 0)
(122.47 0 0)
(123.237 0 0)
(124.004 0 0)
(124.773 0 0)
(125.541 0 0)
(126.31 0 0)
(127.079 0 0)
(127.848 0 0)
(128.616 0 0)
(129.384 0 0)
(130.151 0 0)
(130.918 0 0)
(131.683 0 0)
(132.447 0 0)
(133.211 0 0)
(133.973 0 0)
(134.734 0 0)
(135.493 0 0)
(136.251 0 0)
(137.007 0 0)
(137.762 0 0)
(138.514 0 0)
(139.267 0 0)
(140.009 0 0)
(140.779 0 0)
(141.453 0 0)
(142.421 0 0)
(123.033 0 0)
(120.387 0 0)
(117.857 0 0)
(115.472 0 0)
(113.26 0 0)
(111.243 0 0)
(109.434 0 0)
(107.841 0 0)
(106.464 0 0)
(105.295 0 0)
(104.324 0 0)
(103.536 0 0)
(102.918 0 0)
(102.452 0 0)
(102.122 0 0)
(101.915 0 0)
(101.816 0 0)
(101.812 0 0)
(101.893 0 0)
(102.049 0 0)
(102.271 0 0)
(102.551 0 0)
(102.883 0 0)
(103.261 0 0)
(103.679 0 0)
(104.133 0 0)
(104.619 0 0)
(105.133 0 0)
(105.674 0 0)
(106.237 0 0)
(106.82 0 0)
(107.422 0 0)
(108.04 0 0)
(108.673 0 0)
(109.319 0 0)
(109.977 0 0)
(110.646 0 0)
(111.324 0 0)
(112.011 0 0)
(112.705 0 0)
(113.407 0 0)
(114.114 0 0)
(114.828 0 0)
(115.546 0 0)
(116.268 0 0)
(116.995 0 0)
(117.725 0 0)
(118.457 0 0)
(119.193 0 0)
(119.931 0 0)
(120.67 0 0)
(121.411 0 0)
(122.154 0 0)
(122.898 0 0)
(123.642 0 0)
(124.387 0 0)
(125.133 0 0)
(125.878 0 0)
(126.624 0 0)
(127.37 0 0)
(128.115 0 0)
(128.86 0 0)
(129.604 0 0)
(130.347 0 0)
(131.09 0 0)
(131.832 0 0)
(132.572 0 0)
(133.312 0 0)
(134.05 0 0)
(134.787 0 0)
(135.522 0 0)
(136.256 0 0)
(136.988 0 0)
(137.718 0 0)
(138.449 0 0)
(139.169 0 0)
(139.917 0 0)
(140.571 0 0)
(141.509 0 0)
(119.97 0 0)
(117.54 0 0)
(115.249 0 0)
(113.121 0 0)
(111.177 0 0)
(109.428 0 0)
(107.881 0 0)
(106.536 0 0)
(105.388 0 0)
(104.426 0 0)
(103.639 0 0)
(103.012 0 0)
(102.532 0 0)
(102.183 0 0)
(101.953 0 0)
(101.827 0 0)
(101.795 0 0)
(101.846 0 0)
(101.971 0 0)
(102.16 0 0)
(102.408 0 0)
(102.707 0 0)
(103.052 0 0)
(103.437 0 0)
(103.859 0 0)
(104.313 0 0)
(104.795 0 0)
(105.304 0 0)
(105.835 0 0)
(106.388 0 0)
(106.959 0 0)
(107.547 0 0)
(108.15 0 0)
(108.766 0 0)
(109.395 0 0)
(110.035 0 0)
(110.685 0 0)
(111.344 0 0)
(112.011 0 0)
(112.685 0 0)
(113.366 0 0)
(114.052 0 0)
(114.744 0 0)
(115.441 0 0)
(116.141 0 0)
(116.846 0 0)
(117.553 0 0)
(118.264 0 0)
(118.977 0 0)
(119.692 0 0)
(120.409 0 0)
(121.128 0 0)
(121.848 0 0)
(122.569 0 0)
(123.291 0 0)
(124.014 0 0)
(124.737 0 0)
(125.46 0 0)
(126.183 0 0)
(126.906 0 0)
(127.629 0 0)
(128.351 0 0)
(129.073 0 0)
(129.794 0 0)
(130.515 0 0)
(131.234 0 0)
(131.953 0 0)
(132.67 0 0)
(133.386 0 0)
(134.101 0 0)
(134.814 0 0)
(135.526 0 0)
(136.237 0 0)
(136.945 0 0)
(137.655 0 0)
(138.354 0 0)
(139.078 0 0)
(139.714 0 0)
(140.623 0 0)
(117.158 0 0)
(114.962 0 0)
(112.922 0 0)
(111.054 0 0)
(109.37 0 0)
(107.875 0 0)
(106.569 0 0)
(105.447 0 0)
(104.501 0 0)
(103.721 0 0)
(103.092 0 0)
(102.603 0 0)
(102.241 0 0)
(101.992 0 0)
(101.844 0 0)
(101.788 0 0)
(101.813 0 0)
(101.909 0 0)
(102.07 0 0)
(102.288 0 0)
(102.557 0 0)
(102.871 0 0)
(103.226 0 0)
(103.617 0 0)
(104.04 0 0)
(104.492 0 0)
(104.97 0 0)
(105.472 0 0)
(105.994 0 0)
(106.536 0 0)
(107.095 0 0)
(107.669 0 0)
(108.257 0 0)
(108.858 0 0)
(109.47 0 0)
(110.092 0 0)
(110.724 0 0)
(111.364 0 0)
(112.011 0 0)
(112.666 0 0)
(113.326 0 0)
(113.992 0 0)
(114.663 0 0)
(115.339 0 0)
(116.018 0 0)
(116.701 0 0)
(117.388 0 0)
(118.077 0 0)
(118.768 0 0)
(119.461 0 0)
(120.157 0 0)
(120.854 0 0)
(121.552 0 0)
(122.251 0 0)
(122.951 0 0)
(123.652 0 0)
(124.353 0 0)
(125.054 0 0)
(125.755 0 0)
(126.456 0 0)
(127.157 0 0)
(127.858 0 0)
(128.558 0 0)
(129.258 0 0)
(129.956 0 0)
(130.654 0 0)
(131.351 0 0)
(132.047 0 0)
(132.742 0 0)
(133.435 0 0)
(134.128 0 0)
(134.818 0 0)
(135.508 0 0)
(136.195 0 0)
(136.883 0 0)
(137.561 0 0)
(138.264 0 0)
(138.882 0 0)
(139.762 0 0)
(114.618 0 0)
(112.667 0 0)
(110.879 0 0)
(109.263 0 0)
(107.824 0 0)
(106.562 0 0)
(105.473 0 0)
(104.549 0 0)
(103.78 0 0)
(103.156 0 0)
(102.664 0 0)
(102.293 0 0)
(102.03 0 0)
(101.865 0 0)
(101.789 0 0)
(101.79 0 0)
(101.862 0 0)
(101.997 0 0)
(102.188 0 0)
(102.429 0 0)
(102.715 0 0)
(103.041 0 0)
(103.403 0 0)
(103.798 0 0)
(104.221 0 0)
(104.67 0 0)
(105.143 0 0)
(105.637 0 0)
(106.151 0 0)
(106.681 0 0)
(107.228 0 0)
(107.788 0 0)
(108.362 0 0)
(108.947 0 0)
(109.542 0 0)
(110.147 0 0)
(110.761 0 0)
(111.383 0 0)
(112.012 0 0)
(112.647 0 0)
(113.288 0 0)
(113.934 0 0)
(114.585 0 0)
(115.24 0 0)
(115.899 0 0)
(116.562 0 0)
(117.227 0 0)
(117.895 0 0)
(118.565 0 0)
(119.238 0 0)
(119.912 0 0)
(120.588 0 0)
(121.265 0 0)
(121.943 0 0)
(122.621 0 0)
(123.301 0 0)
(123.98 0 0)
(124.66 0 0)
(125.341 0 0)
(126.021 0 0)
(126.7 0 0)
(127.38 0 0)
(128.059 0 0)
(128.737 0 0)
(129.415 0 0)
(130.092 0 0)
(130.768 0 0)
(131.443 0 0)
(132.117 0 0)
(132.789 0 0)
(133.461 0 0)
(134.131 0 0)
(134.8 0 0)
(135.466 0 0)
(136.134 0 0)
(136.792 0 0)
(137.474 0 0)
(138.073 0 0)
(138.925 0 0)
(112.362 0 0)
(110.655 0 0)
(109.111 0 0)
(107.732 0 0)
(106.518 0 0)
(105.466 0 0)
(104.569 0 0)
(103.818 0 0)
(103.203 0 0)
(102.713 0 0)
(102.337 0 0)
(102.065 0 0)
(101.887 0 0)
(101.794 0 0)
(101.776 0 0)
(101.827 0 0)
(101.939 0 0)
(102.106 0 0)
(102.322 0 0)
(102.581 0 0)
(102.881 0 0)
(103.216 0 0)
(103.583 0 0)
(103.979 0 0)
(104.402 0 0)
(104.847 0 0)
(105.314 0 0)
(105.8 0 0)
(106.304 0 0)
(106.824 0 0)
(107.358 0 0)
(107.905 0 0)
(108.464 0 0)
(109.033 0 0)
(109.613 0 0)
(110.201 0 0)
(110.798 0 0)
(111.402 0 0)
(112.012 0 0)
(112.629 0 0)
(113.251 0 0)
(113.878 0 0)
(114.509 0 0)
(115.145 0 0)
(115.784 0 0)
(116.426 0 0)
(117.072 0 0)
(117.719 0 0)
(118.369 0 0)
(119.021 0 0)
(119.675 0 0)
(120.33 0 0)
(120.986 0 0)
(121.644 0 0)
(122.302 0 0)
(122.961 0 0)
(123.62 0 0)
(124.279 0 0)
(124.939 0 0)
(125.598 0 0)
(126.257 0 0)
(126.916 0 0)
(127.575 0 0)
(128.233 0 0)
(128.89 0 0)
(129.546 0 0)
(130.202 0 0)
(130.857 0 0)
(131.51 0 0)
(132.163 0 0)
(132.814 0 0)
(133.464 0 0)
(134.112 0 0)
(134.759 0 0)
(135.407 0 0)
(136.045 0 0)
(136.706 0 0)
(137.288 0 0)
(138.113 0 0)
(110.389 0 0)
(108.918 0 0)
(107.602 0 0)
(106.44 0 0)
(105.429 0 0)
(104.563 0 0)
(103.833 0 0)
(103.232 0 0)
(102.748 0 0)
(102.372 0 0)
(102.096 0 0)
(101.908 0 0)
(101.802 0 0)
(101.769 0 0)
(101.801 0 0)
(101.893 0 0)
(102.038 0 0)
(102.231 0 0)
(102.467 0 0)
(102.743 0 0)
(103.053 0 0)
(103.395 0 0)
(103.765 0 0)
(104.161 0 0)
(104.581 0 0)
(105.022 0 0)
(105.483 0 0)
(105.961 0 0)
(106.455 0 0)
(106.963 0 0)
(107.485 0 0)
(108.019 0 0)
(108.563 0 0)
(109.118 0 0)
(109.682 0 0)
(110.254 0 0)
(110.834 0 0)
(111.42 0 0)
(112.013 0 0)
(112.611 0 0)
(113.215 0 0)
(113.823 0 0)
(114.436 0 0)
(115.053 0 0)
(115.672 0 0)
(116.295 0 0)
(116.921 0 0)
(117.549 0 0)
(118.179 0 0)
(118.812 0 0)
(119.445 0 0)
(120.08 0 0)
(120.717 0 0)
(121.354 0 0)
(121.992 0 0)
(122.631 0 0)
(123.27 0 0)
(123.909 0 0)
(124.549 0 0)
(125.188 0 0)
(125.828 0 0)
(126.466 0 0)
(127.105 0 0)
(127.743 0 0)
(128.38 0 0)
(129.017 0 0)
(129.653 0 0)
(130.288 0 0)
(130.922 0 0)
(131.554 0 0)
(132.186 0 0)
(132.816 0 0)
(133.445 0 0)
(134.072 0 0)
(134.7 0 0)
(135.319 0 0)
(135.96 0 0)
(136.525 0 0)
(137.324 0 0)
(108.687 0 0)
(107.437 0 0)
(106.33 0 0)
(105.363 0 0)
(104.532 0 0)
(103.828 0 0)
(103.243 0 0)
(102.77 0 0)
(102.398 0 0)
(102.12 0 0)
(101.927 0 0)
(101.811 0 0)
(101.766 0 0)
(101.783 0 0)
(101.857 0 0)
(101.983 0 0)
(102.156 0 0)
(102.371 0 0)
(102.623 0 0)
(102.911 0 0)
(103.229 0 0)
(103.575 0 0)
(103.948 0 0)
(104.343 0 0)
(104.76 0 0)
(105.196 0 0)
(105.649 0 0)
(106.118 0 0)
(106.602 0 0)
(107.1 0 0)
(107.609 0 0)
(108.13 0 0)
(108.66 0 0)
(109.2 0 0)
(109.749 0 0)
(110.305 0 0)
(110.868 0 0)
(111.438 0 0)
(112.014 0 0)
(112.595 0 0)