/*--------------------------------*- C++ -*----------------------------------*\
| =========                 |                                                 |
| \\      /  F ield         | OpenFOAM: The Open Source CFD Toolbox           |
|  \\    /   O peration     | Version:  2312                                  |
|   \\  /    A nd           | Website:  www.openfoam.com                      |
|    \\/     M anipulation  |                                                 |
\*---------------------------------------------------------------------------*/
FoamFile
{
    version     2.0;
    format      ascii;
    arch        "LSB;label=32;scalar=64";
    class       surfaceScalarField;
    location    "0.869";
    object      phi;
}
// * * * * * * * * * * * * * * * * * * * * * * * * * * * * * * * * * * * * * //

dimensions      [0 3 -1 0 0 0 0];

oriented        oriented;

internalField   nonuniform List<scalar> 
62015
(
73.9539
0.144304
-73.4827
74.4089
0.142472
74.8483
0.140506
75.2729
0.13841
75.6836
0.136187
76.0809
0.133838
76.4656
0.131367
76.8383
0.128777
77.1996
0.126071
77.5499
0.12325
77.8899
0.120319
78.22
0.117279
78.5407
0.114134
78.8523
0.110886
79.1554
0.107538
79.4502
0.104093
79.7371
0.100554
80.0166
0.0969232
80.2888
0.0932038
80.5542
0.0893989
80.8129
0.0855115
81.0653
0.081544
81.3116
0.0774998
81.552
0.0733819
81.7868
0.069193
82.0162
0.0649366
82.2403
0.0606151
82.4594
0.0562325
82.6735
0.0517914
82.8829
0.0472949
83.0877
0.0427461
83.288
0.0381485
83.4839
0.0335057
83.6756
0.0288197
83.863
0.0240953
84.0463
0.0193343
84.2255
0.0145412
84.4007
0.00971905
84.5719
0.00487052
84.7391
0
84.9024
-0.00488956
85.0616
-0.00979521
85.2169
-0.0147125
85.3682
-0.0196387
85.5154
-0.0245704
85.6584
-0.0295033
85.7972
-0.034435
85.9317
-0.0393607
86.0617
-0.0442779
86.1872
-0.0491829
86.3081
-0.0540716
86.424
-0.0589405
86.5349
-0.0637862
86.6405
-0.0686052
86.7407
-0.0733933
86.8351
-0.0781474
86.9235
-0.0828631
87.0056
-0.0875372
87.0811
-0.092166
87.1496
-0.0967449
87.2107
-0.101271
87.264
-0.10574
87.309
-0.110148
87.3453
-0.11449
87.3721
-0.118764
87.3889
-0.122964
87.3951
-0.127087
87.3899
-0.131128
87.3725
-0.135083
87.3417
-0.138948
87.2971
-0.142716
87.2367
-0.146384
87.16
-0.149947
87.0655
-0.153399
86.9521
-0.156733
86.8082
-0.159953
86.6671
-0.163002
86.435
-0.166046
-0.16858
86.3677
72.3415
0.28673
-71.9209
72.7484
0.282942
73.1418
0.278901
73.5225
0.274612
73.8911
0.270081
74.2481
0.265312
74.5941
0.260312
74.9298
0.255084
75.2555
0.249634
75.5717
0.243967
75.8789
0.238088
76.1775
0.232003
76.4678
0.225716
76.7504
0.219232
77.0254
0.212558
77.2934
0.205697
77.5544
0.198657
77.809
0.191441
78.0573
0.184055
78.2996
0.176506
78.5362
0.168798
78.7673
0.160937
78.9932
0.152929
79.2139
0.144779
79.4299
0.136493
79.6411
0.128078
79.8478
0.119538
80.0502
0.11088
80.2484
0.10211
80.4425
0.0932341
80.6327
0.0842578
80.819
0.0751878
81.0016
0.0660298
81.1806
0.056791
81.356
0.0474765
81.5279
0.0380933
81.6963
0.0286476
81.8613
0.0191457
82.023
0.0095944
82.1813
0
82.3363
-0.00963097
82.4879
-0.0192919
82.6361
-0.0289765
82.781
-0.0386778
82.9224
-0.048389
83.0603
-0.0581037
83.1947
-0.0678145
83.3254
-0.0775158
83.4524
-0.0871999
83.5756
-0.0968603
83.6948
-0.10649
83.8099
-0.116082
83.9207
-0.125629
84.0271
-0.135125
84.1289
-0.144563
84.2258
-0.153935
84.3177
-0.163234
84.4042
-0.172454
84.4851
-0.181587
84.5601
-0.190626
84.6288
-0.199564
84.6909
-0.208392
84.7461
-0.217105
84.7937
-0.225695
84.8335
-0.234153
84.8648
-0.242472
84.8872
-0.250645
84.9
-0.258664
84.9024
-0.26652
84.8939
-0.274205
84.8735
-0.28171
84.8404
-0.289028
84.7936
-0.296147
84.7312
-0.303062
84.6556
-0.309753
84.5546
-0.316243
84.4534
-0.322416
84.2778
-0.328557
-0.333817
84.2304
70.7516
0.4272
-70.377
71.1144
0.42135
71.4657
0.415141
71.8059
0.408579
72.1357
0.401671
72.4555
0.394424
72.7659
0.386846
73.0672
0.378943
73.36
0.370722
73.6445
0.36219
73.9212
0.353355
74.1905
0.344224
74.4527
0.334803
74.7081
0.325101
74.9571
0.315124
75.1998
0.304881
75.4367
0.294378
75.6679
0.283624
75.8938
0.272626
76.1145
0.261393
76.3303
0.249931
76.5414
0.238249
76.7479
0.226355
76.9501
0.214258
77.1482
0.201965
77.3423
0.189485
77.5325
0.176827
77.7191
0.163998
77.902
0.151009
78.0816
0.137866
78.2578
0.124579
78.4307
0.111157
78.6005
0.0976091
78.7673
0.0839439
78.9311
0.07017
79.0919
0.0562974
79.2498
0.0423349
79.405
0.0282913
79.5572
0.0141766
79.7068
0
79.8535
-0.0142292
79.9974
-0.0285016
80.1385
-0.0428079
80.2768
-0.0571377
80.4123
-0.071482
80.5449
-0.0858314
80.6745
-0.100175
80.801
-0.114505
80.9245
-0.12881
81.0448
-0.14308
81.1617
-0.157307
81.2752
-0.171479
81.3852
-0.185588
81.4914
-0.199622
81.5938
-0.213572
81.6921
-0.227428
81.7861
-0.24118
81.8756
-0.254817
81.9605
-0.268331
82.0403
-0.281709
82.1148
-0.294942
82.1838
-0.30802
82.2469
-0.320931
82.3037
-0.333666
82.3538
-0.346214
82.3968
-0.358565
82.4323
-0.370706
82.4596
-0.382628
82.4784
-0.394319
82.4879
-0.405768
82.4875
-0.416963
82.4764
-0.427892
82.4541
-0.438541
82.4187
-0.448904
82.372
-0.458952
82.3054
-0.468714
82.2389
-0.478051
82.1096
-0.487312
-0.495425
82.0891
69.1697
0.565559
-68.8366
69.4928
0.557565
69.8059
0.549115
70.1095
0.540217
70.4041
0.53088
70.6901
0.521113
70.968
0.510923
71.2381
0.50032
71.5007
0.489312
71.7563
0.477907
72.0052
0.466116
72.2476
0.453947
72.484
0.441409
72.7145
0.428511
72.9394
0.415263
73.159
0.401674
73.3735
0.387753
73.5833
0.373511
73.7884
0.358958
73.9891
0.344102
74.1856
0.328955
74.3781
0.313526
74.5667
0.297826
74.7517
0.281866
74.9331
0.265656
75.1112
0.249205
75.2861
0.232527
75.4578
0.21563
75.6265
0.198527
75.7924
0.181229
75.9555
0.163745
76.1158
0.146089
76.2736
0.128271
76.4288
0.110304
76.5816
0.0921972
76.7319
0.0739641
76.8799
0.0556158
77.0255
0.0371646
77.1688
0.0186219
77.3099
0
77.4486
-0.018689
77.5851
-0.0374331
77.7193
-0.0562201
77.8511
-0.075037
77.9807
-0.0938731
78.1078
-0.112714
78.2325
-0.131549
78.3548
-0.150365
78.4745
-0.169149
78.5915
-0.187889
78.7059
-0.206572
78.8174
-0.225186
78.9259
-0.243717
79.0314
-0.262154
79.1336
-0.280483
79.2325
-0.298692
79.3278
-0.316767
79.4194
-0.334696
79.507
-0.352466
79.5904
-0.370064
79.6694
-0.387476
79.7438
-0.404691
79.8132
-0.421694
79.8773
-0.438472
79.9358
-0.455012
79.9883
-0.471301
80.0345
-0.487325
80.0739
-0.50307
80.106
-0.518523
80.1304
-0.533669
80.1466
-0.548494
80.1537
-0.562985
80.1515
-0.577123
80.1385
-0.590902
80.1161
-0.604286
80.0769
-0.61731
80.0384
-0.629813
79.9476
-0.642196
-0.65323
79.949
67.5925
0.701658
-67.2966
67.8799
0.691456
68.1586
0.680711
68.4292
0.669432
68.6921
0.657629
68.9475
0.645311
69.196
0.63249
69.4377
0.619173
69.6731
0.605373
69.9023
0.591099
70.1258
0.576361
70.3438
0.56117
70.5565
0.545538
70.7642
0.529474
70.9672
0.51299
71.1656
0.496098
71.3597
0.478807
71.5497
0.461132
71.7358
0.443081
71.9181
0.424669
72.0969
0.405907
72.2722
0.386807
72.4444
0.367381
72.6134
0.347642
72.7795
0.327603
72.9428
0.307276
73.1034
0.286675
73.2613
0.265812
73.4169
0.244701
73.57
0.223354
73.7208
0.201787
73.8695
0.180012
74.016
0.158042
74.1604
0.135893
74.3028
0.113577
74.4433
0.0911087
74.5819
0.068503
74.7185
0.0457732
74.8533
0.0229339
74.9863
0
75.1175
-0.0230143
75.2468
-0.0460947
75.3743
-0.069226
75.4999
-0.0923933
75.6237
-0.115583
75.7455
-0.138778
75.8654
-0.161966
75.9833
-0.18513
76.0992
-0.208255
76.2129
-0.231328
76.3244
-0.254332
76.4336
-0.277251
76.5404
-0.300072
76.6447
-0.322779
76.7463
-0.345356
76.8452
-0.367789
76.9411
-0.390061
77.034
-0.412158
77.1236
-0.434063
77.2097
-0.455762
77.2921
-0.477239
77.3707
-0.498479
77.4451
-0.519465
77.5151
-0.540183
77.5805
-0.560616
77.6408
-0.580749
77.6958
-0.600566
77.7452
-0.62005
77.7885
-0.639186
77.8253
-0.657958
77.8552
-0.676348
77.8776
-0.694341
77.8922
-0.711918
77.8977
-0.729067
77.8955
-0.745752
77.8794
-0.76201
77.864
-0.777666
77.8047
-0.793152
-0.807143
77.8242
66.0215
0.835371
-65.759
66.2767
0.822916
66.5246
0.809837
66.7654
0.796145
66.9996
0.781852
67.2275
0.766969
67.4493
0.751505
67.6654
0.735474
67.8759
0.718885
68.0813
0.701751
68.2818
0.684084
68.4775
0.665896
68.6687
0.647198
68.8557
0.628004
69.0386
0.608325
69.2177
0.588176
69.3931
0.567567
69.565
0.546515
69.7336
0.525031
69.8991
0.503129
70.0616
0.480823
70.2212
0.458128
70.3782
0.435057
70.5326
0.411625
70.6845
0.387846
70.8341
0.363735
70.9815
0.339307
71.1268
0.314578
71.27
0.289562
71.4114
0.264275
71.5509
0.238733
71.6886
0.212951
71.8246
0.186946
71.959
0.160732
72.0917
0.134327
72.223
0.107746
72.3527
0.0810069
72.4809
0.0541251
72.6077
0.0271171
72.7331
0
72.857
-0.0272094
72.9795
-0.0544945
73.1006
-0.0818378
73.2203
-0.109223
73.3384
-0.136632
73.4551
-0.164048
73.5703
-0.191454
73.6839
-0.218833
73.7959
-0.246167
73.9062
-0.273438
74.0148
-0.300631
74.1215
-0.327725
74.2264
-0.354705
74.3292
-0.381553
74.4298
-0.40825
74.5283
-0.434781
74.6243
-0.461126
74.7179
-0.487268
74.8087
-0.51319
74.8968
-0.538874
74.9818
-0.564302
75.0636
-0.589456
75.142
-0.614318
75.2168
-0.638871
75.2877
-0.663097
75.3544
-0.686979
75.4167
-0.710496
75.4743
-0.733633
75.5268
-0.756371
75.574
-0.778691
75.6154
-0.800575
75.6505
-0.822004
75.6791
-0.84296
75.7003
-0.863427
75.715
-0.883369
75.718
-0.902821
75.722
-0.921602
75.6888
-0.940159
-0.957116
75.7233
64.4596
0.966603
-64.227
64.6859
0.951861
64.9059
0.936423
65.12
0.9203
65.3283
0.903505
65.5312
0.886049
65.7289
0.867944
65.9218
0.849203
66.1099
0.829839
66.2936
0.809864
66.4731
0.789291
66.6486
0.768133
66.8203
0.746405
66.9884
0.72412
67.153
0.701292
67.3144
0.677935
67.4727
0.654065
67.6281
0.629695
67.7808
0.604841
67.9308
0.579518
68.0783
0.553742
68.2235
0.527529
68.3665
0.500893
68.5074
0.473852
68.6463
0.446422
68.7833
0.41862
68.9185
0.390461
69.052
0.361964
69.184
0.333146
69.3144
0.304023
69.4433
0.274614
69.5709
0.244936
69.6972
0.215006
69.8221
0.184843
69.9459
0.154466
70.0685
0.123892
70.1899
0.0931396
70.3103
0.0622277
70.4295
0.031175
70.5477
0
70.6648
-0.0312782
70.7808
-0.0626403
70.8958
-0.0940678
71.0098
-0.125541
71.1226
-0.157041
71.2343
-0.188548
71.3449
-0.220043
71.4543
-0.251507
71.5624
-0.282919
71.6693
-0.314261
71.7748
-0.345513
71.879
-0.376654
71.9816
-0.407666
72.0827
-0.438529
72.1821
-0.469223
72.2797
-0.499729
72.3755
-0.530026
72.4692
-0.560095
72.5608
-0.589916
72.6502
-0.619469
72.737
-0.648735
72.8213
-0.677694
72.9028
-0.706326
72.9813
-0.734611
73.0567
-0.76253
73.1286
-0.790062
73.1968
-0.817188
73.2612
-0.843888
73.3214
-0.870142
73.3771
-0.89593
73.428
-0.921232
73.4738
-0.946028
73.5142
-0.970297
73.5483
-0.994022
73.5771
-1.01717
73.5962
-1.03976
73.6164
-1.06163
73.605
-1.08321
-1.10313
73.6518
62.9098
1.09528
-62.7041
63.1102
1.07823
63.3051
1.06042
63.495
1.04186
63.6799
1.02256
63.8603
1.00253
64.0362
0.981792
64.208
0.960356
64.3758
0.938235
64.5398
0.915443
64.7003
0.891993
64.8574
0.867901
65.0113
0.843182
65.1621
0.81785
65.3101
0.791921
65.4553
0.76541
65.598
0.738334
65.7383
0.710709
65.8763
0.68255
66.0122
0.653876
66.1461
0.624704
66.278
0.595049
66.4081
0.56493
66.5366
0.534365
66.6635
0.503372
66.7889
0.471968
66.9129
0.440174
67.0356
0.408006
67.157
0.375485
67.2773
0.342629
67.3965
0.309457
67.5146
0.27599
67.6318
0.242246
67.748
0.208247
67.8634
0.174011
67.9779
0.139559
68.0916
0.104911
68.2045
0.0700884
68.3166
0.035111
68.428
0
68.5387
-0.035224
68.6486
-0.07054
68.7578
-0.105927
68.8662
-0.141364
68.9739
-0.176829
69.0808
-0.212301
69.1869
-0.24776
69.2922
-0.283182
69.3965
-0.318547
69.5
-0.353834
69.6025
-0.389021
69.7039
-0.424085
69.8042
-0.459006
69.9034
-0.493762
70.0013
-0.528331
70.0978
-0.562692
70.1929
-0.596822
70.2864
-0.630701
70.3783
-0.664306
70.4683
-0.697616
70.5564
-0.73061
70.6425
-0.763265
70.7263
-0.79556
70.8077
-0.827475
70.8865
-0.858986
70.9626
-0.890072
71.0357
-0.920713
71.1055
-0.950886
71.172
-0.98057
71.2348
-1.00974
71.2936
-1.03838
71.3482
-1.06647
71.3983
-1.09398
71.4433
-1.1209
71.4839
-1.14719
71.5164
-1.17287
71.55
-1.19777
71.5569
-1.22234
-1.24519
71.6137
61.3749
1.22135
-61.1934
61.5519
1.20198
61.7243
1.18179
61.8923
1.16079
62.0562
1.13899
62.2161
1.1164
62.3724
1.09305
62.525
1.06894
62.6744
1.04408
62.8205
1.0185
62.9637
0.99221
63.1041
0.965222
63.2417
0.937554
63.3769
0.909222
63.5096
0.880243
63.6402
0.850634
63.7686
0.820412
63.8951
0.789594
64.0197
0.758198
64.1426
0.726243
64.2639
0.693748
64.3836
0.660729
64.502
0.627208
64.619
0.593203
64.7349
0.558733
64.8495
0.523819
64.9632
0.48848
65.0758
0.452738
65.1876
0.416611
65.2985
0.380122
65.4086
0.343291
65.518
0.306141
65.6267
0.26869
65.7348
0.230962
65.8423
0.192979
65.9493
0.154762
66.0557
0.116333
66.1617
0.0777147
66.2671
0.0389295
66.3721
0
66.4767
-0.0390511
66.5808
-0.0782013
66.6844
-0.117427
66.7876
-0.156706
66.8904
-0.196015
66.9926
-0.235331
67.0944
-0.27463
67.1956
-0.31389
67.2962
-0.353086
67.3963
-0.392196
67.4956
-0.431196
67.5943
-0.470063
67.6922
-0.508773
67.7893
-0.547302
67.8855
-0.585628
67.9806
-0.623727
68.0748
-0.661576
68.1677
-0.69915
68.2594
-0.736427
68.3497
-0.773384
68.4385
-0.809996
68.5257
-0.846241
68.6112
-0.882095
68.6947
-0.917536
68.7762
-0.95254
68.8555
-0.987084
68.9324
-1.02115
69.0067
-1.0547
69.0783
-1.08773
69.1468
-1.1202
69.2121
-1.1521
69.274
-1.1834
69.3322
-1.21408
69.3861
-1.24412
69.4365
-1.27348
69.4802
-1.3022
69.5249
-1.33008
69.5471
-1.35756
-1.38331
69.612
59.8574
1.34477
-59.6977
60.0134
1.32308
60.1654
1.30052
60.3137
1.27708
60.4585
1.25279
60.6
1.22767
60.7383
1.20171
60.8737
1.17495
61.0063
1.1474
61.1363
1.11906
61.2637
1.08997
61.3888
1.06012
61.5117
1.02955
61.6326
0.99827
61.7515
0.966295
61.8685
0.933644
61.9839
0.900336
62.0978
0.86639
62.2101
0.831825
62.3211
0.79666
62.4309
0.760915
62.5395
0.724611
62.647
0.687767
62.7535
0.650405
62.8592
0.612545
62.964
0.574208
63.068
0.535417
63.1714
0.496193
63.2742
0.456558
63.3764
0.416534
63.4781
0.376145
63.5794
0.335413
63.6803
0.29436
63.7808
0.25301
63.881
0.211387
63.9809
0.169514
64.0805
0.127414
64.1799
0.085113
64.2791
0.0426332
64.378
0
64.4768
-0.0427627
64.5754
-0.0856308
64.6738
-0.128579
64.772
-0.171583
64.87
-0.214618
64.9678
-0.257659
65.0653
-0.300681
65.1626
-0.343659
65.2595
-0.386568
65.3562
-0.429383
65.4525
-0.472079
65.5483
-0.514631
65.6437
-0.557013
65.7386
-0.599201
65.8329
-0.641169
65.9265
-0.682893
66.0194
-0.724346
66.1115
-0.765505
66.2026
-0.806344
66.2928
-0.846838
66.3819
-0.886962
66.4697
-0.926692
66.5562
-0.966003
66.6413
-1.00487
66.7248
-1.04327
66.8065
-1.08117
66.8864
-1.11856
66.9642
-1.15541
67.0397
-1.19169
67.1129
-1.22738
67.1835
-1.26245
67.2513
-1.29689
67.3161
-1.33066
67.3774
-1.36375
67.4359
-1.39612
67.4888
-1.42779
67.5427
-1.45859
67.5777
-1.48894
-1.51753
67.6491
58.3593
1.46551
-58.2192
58.4963
1.44152
58.6299
1.41658
58.7604
1.39073
58.888
1.36397
59.0128
1.33633
59.1349
1.3078
59.2547
1.27842
59.372
1.2482
59.4873
1.21715
59.6004
1.18529
59.7117
1.15263
59.8211
1.11921
59.9289
1.08503
60.0352
1.05011
60.14
1.01448
60.2435
0.978147
60.3457
0.941138
60.4469
0.903471
60.547
0.865167
60.6462
0.826248
60.7445
0.786734
60.842
0.746648
60.9389
0.706011
61.0352
0.664845
61.1309
0.623174
61.2261
0.58102
61.3209
0.538406
61.4154
0.495356
61.5096
0.451895
61.6035
0.408045
61.6972
0.36383
61.7908
0.319277
61.8842
0.274409
61.9775
0.229251
62.0708
0.183828
62.1641
0.138166
62.2574
0.0922905
62.3506
0.0462264
62.4439
0
62.5372
-0.0463628
62.6306
-0.0928361
62.724
-0.139393
62.8174
-0.186008
62.9108
-0.232655
63.0043
-0.279307
63.0978
-0.325937
63.1912
-0.372519
63.2846
-0.419026
63.3779
-0.465432
63.4711
-0.51171
63.5641
-0.557833
63.6569
-0.603774
63.7495
-0.649508
63.8418
-0.695006
63.9336
-0.740243
64.0251
-0.785192
64.116
-0.829826
64.2064
-0.87412
64.296
-0.918045
64.385
-0.961577
64.473
-1.00469
64.5601
-1.04735
64.6461
-1.08955
64.7309
-1.13124
64.8145
-1.17241
64.8965
-1.21303
64.977
-1.25308
65.0557
-1.29252
65.1326
-1.33134
65.2074
-1.36951
65.2799
-1.407
65.3501
-1.44379
65.4175
-1.47985
65.4825
-1.51516
65.543
-1.54972
65.6046
-1.58337
65.6501
-1.61651
-1.64791
65.7268
56.8824
1.58357
-56.7599
57.0022
1.55727
57.1192
1.52999
57.2336
1.50174
57.3456
1.47254
57.4553
1.4424
57.5628
1.41133
57.6683
1.37936
57.7719
1.34651
57.8737
1.31278
57.9739
1.2782
58.0726
1.24279
58.1698
1.20656
58.2657
1.16954
58.3604
1.13173
58.454
1.09318
58.5466
1.05388
58.6383
1.01388
58.7292
0.973178
58.8193
0.931807
58.9088
0.889787
58.9977
0.84714
59.0861
0.80389
59.174
0.760059
59.2616
0.715672
59.349
0.670752
59.436
0.625322
59.523
0.57941
59.6097
0.533038
59.6965
0.486231
59.7831
0.439017
59.8699
0.391418
59.9566
0.343464
60.0435
0.295177
60.1304
0.246587
60.2175
0.197718
60.3048
0.148598
60.3923
0.0992533
60.48
0.0497117
60.5679
0
60.6561
-0.0498542
60.7445
-0.0998234
60.8331
-0.14988
60.922
-0.199996
61.0111
-0.250144
61.1004
-0.300295
61.1899
-0.350422
61.2797
-0.400497
61.3695
-0.450492
61.4595
-0.500377
61.5497
-0.550126
61.6398
-0.59971
61.73
-0.649101
61.8202
-0.69827
61.9104
-0.747191
62.0004
-0.795833
62.0902
-0.84417
62.1798
-0.892174
62.2691
-0.939817
62.3579
-0.98707
62.4464
-1.03391
62.5342
-1.0803
62.6215
-1.12622
62.7079
-1.17164
62.7936
-1.21654
62.8783
-1.26088
62.9619
-1.30464
63.0444
-1.3478
63.1255
-1.39032
63.2052
-1.43218
63.2833
-1.47336
63.3596
-1.51382
63.4341
-1.55354
63.5063
-1.59251
63.5767
-1.63067
63.6434
-1.66805
63.7111
-1.70449
63.7654
-1.74036
-1.77449
63.8462
55.4279
1.69893
-55.3214
55.5323
1.67035
55.6343
1.64074
55.7342
1.61012
55.8321
1.5785
55.9281
1.54589
56.0224
1.51232
56.115
1.47781
56.2061
1.44236
56.2958
1.406
56.3841
1.36875
56.4713
1.33062
56.5574
1.29164
56.6425
1.25183
56.7267
1.2112
56.81
1.16978
56.8927
1.12759
56.9747
1.08465
57.0561
1.04099
57.1371
0.996621
57.2177
0.951573
57.298
0.905869
57.3779
0.859533
57.4577
0.812589
57.5374
0.765062
57.617
0.716977
57.6966
0.66836
57.7762
0.619236
57.8558
0.569632
57.9356
0.519573
58.0156
0.469087
58.0958
0.4182
58.1762
0.36694
58.2569
0.315334
58.338
0.26341
58.4193
0.211195
58.501
0.158719
58.5831
0.106008
58.6655
0.0530925
58.7484
0
58.8317
-0.0532404
58.9154
-0.1066
58.9995
-0.160049
59.084
-0.213559
59.1689
-0.267101
59.2543
-0.320645
59.34
-0.374161
59.4261
-0.427621
59.5125
-0.480995
59.5993
-0.534252
59.6864
-0.587365
59.7737
-0.640302
59.8613
-0.693036
59.9491
-0.745535
60.037
-0.797771
60.125
-0.849715
60.2131
-0.901336
60.3011
-0.952606
60.3891
-1.0035
60.4769
-1.05398
60.5646
-1.10402
60.6519
-1.15359
60.7389
-1.20267
60.8255
-1.25123
60.9115
-1.29923
60.9969
-1.34665
61.0816
-1.39346
61.1654
-1.43964
61.2483
-1.48515
61.33
-1.52997
61.4107
-1.57407
61.4899
-1.61742
61.5677
-1.66
61.6438
-1.70179
61.7185
-1.74273
61.7902
-1.78286
61.8629
-1.82202
61.9243
-1.86054
-1.89735
62.0083
53.9973
1.8116
-53.9051
54.0877
1.78076
54.1762
1.74885
54.263
1.71588
54.3481
1.68187
54.4318
1.64684
54.514
1.61081
54.5949
1.57378
54.6746
1.53578
54.7533
1.49684
54.8309
1.45696
54.9077
1.41617
54.9836
1.3745
55.0588
1.33195
55.1334
1.28855
55.2074
1.24433
55.281
1.19931
55.3542
1.1535
55.427
1.10694
55.4996
1.05965
55.5721
1.01165
55.6444
0.96296
55.7166
0.913616
55.7889
0.863638
55.8612
0.813052
55.9337
0.761886
56.0063
0.710165
56.0792
0.657917
56.1523
0.605168
56.2257
0.551947
56.2994
0.49828
56.3736
0.444198
56.4481
0.389727
56.5231
0.334896
56.5985
0.279735
56.6745
0.224273
56.7509
0.168538
56.8279
0.112561
56.9055
0.0563721
56.9836
0
57.0622
-0.0565247
57.1415
-0.113172
57.2213
-0.169911
57.3017
-0.226711
57.3826
-0.283543
57.4641
-0.340375
57.5462
-0.397176
57.6288
-0.453917
57.7119
-0.510565
57.7955
-0.56709
57.8796
-0.623462
57.9641
-0.67965
58.049
-0.735622
58.1343
-0.791348
58.22
-0.846798
58.3059
-0.90194
58.3921
-0.956744
58.4784
-1.01118
58.565
-1.06522
58.6516
-1.11883
58.7382
-1.17197
58.8248
-1.22464
58.9112
-1.27678
58.9975
-1.32837
59.0835
-1.37939
59.1691
-1.42979
59.2543
-1.47957
59.339
-1.52867
59.423
-1.57709
59.5063
-1.62478
59.5887
-1.67172
59.6702
-1.71788
59.7506
-1.76324
59.8297
-1.80777
59.9077
-1.85143
59.9833
-1.89423
60.06
-1.93603
60.1273
-1.97714
-2.01656
60.2136
52.5913
1.92159
-52.512
52.6692
1.88852
52.7455
1.85434
52.8204
1.81905
52.894
1.78269
52.9665
1.74527
53.0378
1.70681
53.1081
1.66731
53.1776
1.62681
53.2462
1.58533
53.3141
1.54288
53.3813
1.49948
53.448
1.45516
53.5143
1.40993
53.5801
1.36383
53.6456
1.31687
53.7109
1.26908
53.776
1.22047
53.8409
1.17108
53.9059
1.12093
53.9708
1.07005
54.0359
1.01845
54.101
0.966177
54.1664
0.913243
54.232
0.859679
54.2978
0.805512
54.3641
0.75077
54.4307
0.695483
54.4977
0.639676
54.5652
0.583379
54.6331
0.526622
54.7017
0.469433
54.7707
0.411843
54.8404
0.353881
54.9106
0.295577
54.9815
0.236962
55.0531
0.178065
55.1253
0.118919
55.1982
0.0595534
55.2718
0
55.3461
-0.05971
55.4211
-0.119545
55.4969
-0.179474
55.5733
-0.239465
55.6504
-0.299485
55.7283
-0.359504
55.8068
-0.41949
55.886
-0.479409
55.9659
-0.539231
56.0464
-0.598923
56.1275
-0.658453
56.2092
-0.71779
56.2915
-0.7769
56.3743
-0.835753
56.4577
-0.894317
56.5415
-0.952559
56.6257
-1.01045
56.7102
-1.06795
56.7951
-1.12504
56.8803
-1.18168
56.9657
-1.23784
57.0513
-1.29349
57.1369
-1.3486
57.2226
-1.40314
57.3083
-1.45708
57.3938
-1.51039
57.4791
-1.56303
57.5642
-1.61498
57.6489
-1.66621
57.7331
-1.71669
57.8168
-1.76639
57.8998
-1.81529
57.9821
-1.86334
58.0634
-1.91054
58.144
-1.95683
58.2227
-2.00223
58.3023
-2.0466
58.3744
-2.09023
-2.13219
58.4624
51.2109
2.02891
-51.1432
51.2774
1.99364
51.3427
1.95722
51.4069
1.91966
51.4701
1.88099
51.5324
1.84121
51.5939
1.80036
51.6546
1.75844
51.7147
1.71549
51.7742
1.67151
51.8333
1.62654
51.8919
1.58058
51.9502
1.53367
52.0083
1.48583
52.0661
1.43708
52.1239
1.38744
52.1816
1.33694
52.2393
1.2856
52.297
1.23345
52.355
1.18051
52.4131
1.12682
52.4714
1.07239
52.53
1.01726
52.589
0.961441
52.6484
0.904977
52.7082
0.847889
52.7686
0.790209
52.8294
0.731963
52.8908
0.673183
52.9528
0.613897
53.0154
0.554136
53.0787
0.493929
53.1426
0.433309
53.2073
0.372305
53.2727
0.31095
53.3389
0.249274
53.4059
0.187308
53.4736
0.125086
53.5422
0.0626394
53.6115
0
53.6817
-0.0627994
53.7527
-0.125726
53.8246
-0.188748
53.8973
-0.251831
53.9708
-0.314943
54.0451
-0.378052
54.1202
-0.441123
54.1961
-0.504123
54.2729
-0.567021
54.3503
-0.629781
54.4286
-0.692372
54.5075
-0.75476
54.5872
-0.816911
54.6675
-0.878794
54.7485
-0.940374
54.8301
-1.00162
54.9123
-1.0625
54.9949
-1.12297
55.0781
-1.18302
55.1617
-1.2426
55.2457
-1.30168
55.3301
-1.36023
55.4147
-1.41822
55.4995
-1.47561
55.5845
-1.53239
55.6696
-1.5885
55.7548
-1.64393
55.8398
-1.69864
55.9247
-1.75261
56.0095
-1.80579
56.0939
-1.85817
56.1779
-1.90971
56.2615
-1.96039
56.3444
-2.01017
56.4269
-2.05902
56.5079
-2.10694
56.5898
-2.15382
56.6656
-2.19989
-2.24433
56.7547
49.8565
2.1336
-49.7994
49.9129
2.09616
49.9682
2.05753
50.0228
2.01773
50.0766
1.97678
50.1297
1.9347
50.1822
1.8915
50.2343
1.84721
50.2859
1.80184
50.3372
1.75543
50.3882
1.70798
50.439
1.65952
50.4897
1.61008
50.5403
1.55968
50.5909
1.50834
50.6415
1.45608
50.6923
1.40294
50.7433
1.34893
50.7945
1.29409
50.8459
1.23843
50.8978
1.182
50.95
1.12481
51.0026
1.06689
51.0558
1.00827
51.1094
0.94898
51.1637
0.889051
51.2185
0.828511
51.2741
0.767389
51.3302
0.705717
51.3871
0.643525
51.4448
0.580845
51.5032
0.517707
51.5625
0.454143
51.6225
0.390185
51.6834
0.325867
51.7452
0.261219
51.8078
0.196276
51.8714
0.131069
51.9358
0.0656329
52.0012
0
52.0675
-0.0657958
52.1347
-0.131721
52.2029
-0.197741
52.2719
-0.263823
52.342
-0.329932
52.4129
-0.396035
52.4848
-0.462097
52.5575
-0.528083
52.6312
-0.593961
52.7057
-0.659695
52.7812
-0.725251
52.8574
-0.790595
52.9345
-0.855693
53.0123
-0.920511
53.091
-0.985014
53.1703
-1.04917
53.2504
-1.11294
53.3311
-1.1763
53.4124
-1.23921
53.4944
-1.30163
53.5768
-1.36354
53.6598
-1.4249
53.7432
-1.48568
53.827
-1.54585
53.9111
-1.60537
53.9955
-1.66421
54.0801
-1.72234
54.1648
-1.77973
54.2496
-1.83634
54.3345
-1.89215
54.4192
-1.94713
54.5038
-2.00124
54.5881
-2.05445
54.6721
-2.10675
54.7558
-2.15808
54.8385
-2.20846
54.9221
-2.25776
55.0007
-2.30621
-2.35306
55.0904
48.5289
2.23567
-48.4812
48.576
2.1961
48.6224
2.1553
48.6682
2.1133
48.7135
2.07011
48.7583
2.02576
48.8028
1.98027
48.847
1.93365
48.8909
1.88592
48.9347
1.83712
48.9785
1.78725
49.0221
1.73634
49.0659
1.68443
49.1097
1.63152
49.1537
1.57765
49.1979
1.52284
49.2423
1.46711
49.2871
1.4105
49.3323
1.35303
49.3779
1.29473
49.424
1.23562
49.4706
1.17574
49.5177
1.11511
49.5655
1.05376
49.6139
0.991725
49.663
0.92903
49.7128
0.865708
49.7634
0.801789
49.8148
0.737306
49.867
0.672289
49.92
0.606771
49.974
0.540785
50.0288
0.474362
50.0845
0.407537
50.1412
0.340341
50.1988
0.27281
50.2574
0.204976
50.317
0.136873
50.3776
0.0685367
50.4392
0
50.5019
-0.0687019
50.5655
-0.137534
50.6301
-0.206462
50.6958
-0.275451
50.7625
-0.344466
50.8302
-0.413471
50.899
-0.482432
50.9687
-0.551312
51.0394
-0.620078
51.1111
-0.688693
51.1837
-0.757123
51.2573
-0.825331
51.3318
-0.893284
51.4072
-0.960946
51.4835
-1.02828
51.5606
-1.09526
51.6385
-1.16183
51.7172
-1.22798
51.7967
-1.29367
51.8768
-1.35885
51.9577
-1.4235
52.0391
-1.48758
52.1211
-1.55107
52.2037
-1.61392
52.2867
-1.6761
52.3702
-1.73758
52.454
-1.79832
52.5381
-1.8583
52.6225
-1.91749
52.707
-1.97585
52.7917
-2.03334
52.8764
-2.08994
52.9611
-2.14563
53.0457
-2.20036
53.1302
-2.2541
53.214
-2.30686
53.2987
-2.35851
53.3793
-2.40926
-2.45845
53.4692
47.2281
2.33516
-47.189
47.267
2.29349
47.3053
2.25056
47.3432
2.2064
47.3808
2.16103
47.4182
2.11445
47.4554
2.06671
47.4924
2.0178
47.5295
1.96777
47.5665
1.91662
47.6036
1.86439
47.6408
1.81109
47.6782
1.75675
47.7159
1.7014
47.7538
1.64506
47.7922
1.58775
47.8309
1.52951
47.87
1.47036
47.9097
1.41033
47.9499
1.34945
47.9907
1.28774
48.0322
1.22523
48.0743
1.16196
48.1171
1.09795
48.1607
1.03324
48.2051
0.967857
48.2503
0.901829
48.2963
0.835191
48.3432
0.767975
48.3911
0.700213
48.4398
0.631938
48.4896
0.563185
48.5403
0.493986
48.592
0.424375
48.6447
0.354387
48.6985
0.284056
48.7533
0.213416
48.8092
0.142504
48.8662
0.0713532
48.9243
0
48.9834
-0.0715204
49.0436
-0.143173
49.105
-0.21492
49.1674
-0.286727
49.2309
-0.358559
49.2955
-0.430377
49.3613
-0.502147
49.428
-0.573832
49.4959
-0.645397
49.5648
-0.716804
49.6347
-0.788018
49.7057
-0.859002
49.7777
-0.929721
49.8507
-1.00014
49.9246
-1.07022
49.9995
-1.13992
50.0752
-1.20922
50.1519
-1.27807
50.2294
-1.34644
50.3077
-1.4143
50.3868
-1.48161
50.4666
-1.54833
50.5471
-1.61443
50.6283
-1.67988
50.7101
-1.74464
50.7924
-1.80867
50.8752
-1.87196
50.9585
-1.93445
51.0422
-1.99613
51.1262
-2.05695
51.2105
-2.11689
51.295
-2.17591
51.3797
-2.23398
51.4644
-2.29108
51.5492
-2.34716
51.6336
-2.40222
51.7189
-2.45616
51.8011
-2.50915
-2.5606
51.8908
45.9546
2.4321
-45.9231
45.986
2.38837
46.017
2.34336
46.0479
2.29708
46.0785
2.24956
46.1092
2.20081
46.1397
2.15085
46.1704
2.09972
46.2011
2.04742
46.232
1.99399
46.2631
1.93944
46.2945
1.8838
46.3262
1.8271
46.3582
1.76936
46.3907
1.71061
46.4237
1.65087
46.4571
1.59018
46.4912
1.52855
46.5258
1.46602
46.5611
1.40262
46.5971
1.33837
46.6338
1.27331
46.6713
1.20747
46.7096
1.14088
46.7488
1.07357
46.7888
1.00556
46.8297
0.936905
46.8715
0.867622
46.9143
0.79775
46.9581
0.72732
47.0029
0.656367
47.0488
0.584926
47.0957
0.51303
47.1436
0.440715
47.1927
0.368015
47.2429
0.294967
47.2941
0.221605
47.3466
0.147966
47.4001
0.0740856
47.4548
0
47.5107
-0.0742542
47.5677
-0.14864
47.6259
-0.223122
47.6852
-0.297662
47.7457
-0.372223
47.8074
-0.446769
47.8702
-0.521262
47.9342
-0.595665
47.9992
-0.669942
48.0655
-0.744055
48.1328
-0.817966
48.2012
-0.89164
48.2707
-0.965038
48.3413
-1.03812
48.4129
-1.11086
48.4855
-1.18321
48.5591
-1.25514
48.6337
-1.32661
48.7092
-1.39759
48.7856
-1.46803
48.8629
-1.53791
48.941
-1.60719
49.0199
-1.67583
49.0995
-1.74379
49.1799
-1.81105
49.261
-1.87757
49.3426
-1.94331
49.4249
-2.00824
49.5076
-2.07233
49.5909
-2.13554
49.6745
-2.19785
49.7586
-2.25921
49.8429
-2.3196
49.9274
-2.37899
50.0122
-2.43733
50.0968
-2.49463
50.1823
-2.55078
50.2655
-2.60594
-2.65959
50.3546
44.7085
2.52653
-44.6838
44.7331
2.48079
44.7576
2.43373
44.782
2.38537
44.8065
2.33574
44.831
2.28486
44.8556
2.23275
44.8805
2.17943
44.9055
2.12492
44.9308
2.06925
44.9565
2.01245
44.9826
1.95452
45.0091
1.89552
45.036
1.83545
45.0635
1.77434
45.0916
1.71223
45.1203
1.64914
45.1497
1.5851
45.1797
1.52014
45.2105
1.45429
45.2421
1.38757
45.2745
1.32003
45.3078
1.25168
45.3419
1.18257
45.377
1.11273
45.413
1.04218
45.4499
0.970963
45.4879
0.89911
45.5269
0.826656
45.567
0.753633
45.6081
0.680079
45.6503
0.606026
45.6937
0.531512
45.7381
0.456571
45.7838
0.38124
45.8305
0.305553
45.8785
0.22955
45.9277
0.153265
45.978
0.076736
46.0296
0
46.0823
-0.0769057
46.1363
-0.153944
46.1915
-0.231076
46.2479
-0.308265
46.3055
-0.385473
46.3643
-0.462663
46.4244
-0.539795
46.4856
-0.616833
46.548
-0.693738
46.6116
-0.770472
46.6764
-0.846998
46.7424
-0.923276
46.8094
-0.999271
46.8776
-1.07494
46.947
-1.15026
47.0173
-1.22517
47.0888
-1.29965
47.1613
-1.37366
47.2348
-1.44716
47.3092
-1.52011
47.3846
-1.59248
47.461
-1.66423
47.5382
-1.73533
47.6162
-1.80573
47.6951
-1.87541
47.7747
-1.94433
47.8551
-2.01245
47.9361
-2.07974
48.0178
-2.14617
48.1
-2.2117
48.1828
-2.27629
48.2661
-2.33992
48.3498
-2.40256
48.4338
-2.46416
48.5183
-2.5247
48.6027
-2.58417
48.6881
-2.64247
48.7717
-2.69972
-2.75551
48.8602
43.4897
2.61849
-43.4713
43.5083
2.57077
43.5269
2.52171
43.5456
2.47132
43.5644
2.41964
43.5835
2.36667
43.6027
2.31245
43.6223
2.25699
43.6422
2.20032
43.6625
2.14247
43.6833
2.08345
43.7045
2.0233
43.7263
1.96204
43.7486
1.8997
43.7716
1.8363
43.7953
1.77188
43.8196
1.70645
43.8447
1.64006
43.8706
1.57273
43.8973
1.50449
43.9249
1.43537
43.9533
1.36541
43.9827
1.29463
44.013
1.22307
44.0443
1.15076
44.0766
1.07774
44.1099
1.00403
44.1443
0.929681
44.1798
0.854717
44.2164
0.779176
44.2541
0.703094
44.293
0.626506
44.333
0.549448
44.3742
0.471958
44.4167
0.394071
44.4603
0.315825
44.5051
0.237257
44.5512
0.158405
44.5986
0.0793069
44.6471
0
44.697
-0.0794773
44.7481
-0.159086
44.8004
-0.238789
44.854
-0.318547
44.9089
-0.398321
44.965
-0.478073
45.0224
-0.557764
45.081
-0.637355
45.1409
-0.716807