/*--------------------------------*- C++ -*----------------------------------*\
| =========                 |                                                 |
| \\      /  F ield         | OpenFOAM: The Open Source CFD Toolbox           |
|  \\    /   O peration     | Version:  2312                                  |
|   \\  /    A nd           | Website:  www.openfoam.com                      |
|    \\/     M anipulation  |                                                 |
\*---------------------------------------------------------------------------*/
FoamFile
{
    version     2.0;
    format      ascii;
    arch        "LSB;label=32;scalar=64";
    class       volVectorField;
    location    "0.4";
    object      flux;
}
// * * * * * * * * * * * * * * * * * * * * * * * * * * * * * * * * * * * * * //

dimensions      [0 1 -1 1 0 0 0];

internalField   nonuniform List<vector> 
100
(
(1.42531 0 0)
(1.13825 0 0)
(0.868574 0 0)
(0.615699 0 0)
(0.379061 0 0)
(0.15809 0 0)
(-0.0477825 0 0)
(-0.239121 0 0)
(-0.416489 0 0)
(-0.580444 0 0)
(-0.731536 0 0)
(-0.870313 0 0)
(-0.997309 0 0)
(-1.11305 0 0)
(-1.21807 0 0)
(-1.31286 0 0)
(-1.39793 0 0)
(-1.47376 0 0)
(-1.54084 0 0)
(-1.59962 0 0)
(-1.65055 0 0)
(-1.69408 0 0)
(-1.73064 0 0)
(-1.76063 0 0)
(-1.78445 0 0)
(-1.8025 0 0)
(-1.81515 0 0)
(-1.82275 0 0)
(-1.82566 0 0)
(-1.82421 0 0)
(-1.81872 0 0)
(-1.80949 0 0)
(-1.79682 0 0)
(-1.781 0 0)
(-1.76229 0 0)
(-1.74095 0 0)
(-1.71722 0 0)
(-1.69133 0 0)
(-1.66351 0 0)
(-1.63397 0 0)
(-1.60291 0 0)
(-1.5705 0 0)
(-1.53694 0 0)
(-1.50237 0 0)
(-1.46698 0 0)
(-1.43088 0 0)
(-1.39424 0 0)
(-1.35717 0 0)
(-1.31979 0 0)
(-1.28222 0 0)
(-1.24456 0 0)
(-1.2069 0 0)
(-1.16934 0 0)
(-1.13194 0 0)
(-1.09479 0 0)
(-1.05796 0 0)
(-1.02149 0 0)
(-0.985461 0 0)
(-0.949904 0 0)
(-0.91487 0 0)
(-0.880394 0 0)
(-0.846512 0 0)
(-0.813252 0 0)
(-0.780638 0 0)
(-0.748691 0 0)
(-0.717427 0 0)
(-0.686858 0 0)
(-0.656994 0 0)
(-0.62784 0 0)
(-0.599399 0 0)
(-0.571671 0 0)
(-0.544652 0 0)
(-0.518337 0 0)
(-0.492719 0 0)
(-0.467787 0 0)
(-0.443528 0 0)
(-0.41993 0 0)
(-0.396975 0 0)
(-0.374647 0 0)
(-0.352927 0 0)
(-0.331793 0 0)
(-0.311225 0 0)
(-0.291199 0 0)
(-0.271692 0 0)
(-0.252678 0 0)
(-0.234131 0 0)
(-0.216025 0 0)
(-0.198333 0 0)
(-0.181025 0 0)
(-0.164074 0 0)
(-0.14745 0 0)
(-0.131124 0 0)
(-0.115064 0 0)
(-0.0992413 0 0)
(-0.0836239 0 0)
(-0.0681809 0 0)
(-0.052881 0 0)
(-0.0376924 0 0)
(-0.0225835 0 0)
(-0.00752253 0 0)
)
;

boundaryField
{
    movingWall
    {
        type            calculated;
        value           uniform (1.57324 0 0);
    }
    fixedWalls
    {
        type            calculated;
        value           nonuniform List<vector> 
201
(
(1.42531 0 0)
(1.13825 0 0)
(0.868574 0 0)
(0.615699 0 0)
(0.379061 0 0)
(0.15809 0 0)
(-0.0477825 0 0)
(-0.239121 0 0)
(-0.416489 0 0)
(-0.580444 0 0)
(-0.731536 0 0)
(-0.870313 0 0)
(-0.997309 0 0)
(-1.11305 0 0)
(-1.21807 0 0)
(-1.31286 0 0)
(-1.39793 0 0)
(-1.47376 0 0)
(-1.54084 0 0)
(-1.59962 0 0)
(-1.65055 0 0)
(-1.69408 0 0)
(-1.73064 0 0)
(-1.76063 0 0)
(-1.78445 0 0)
(-1.8025 0 0)
(-1.81515 0 0)
(-1.82275 0 0)
(-1.82566 0 0)
(-1.82421 0 0)
(-1.81872 0 0)
(-1.80949 0 0)
(-1.79682 0 0)
(-1.781 0 0)
(-1.76229 0 0)
(-1.74095 0 0)
(-1.71722 0 0)
(-1.69133 0 0)
(-1.66351 0 0)
(-1.63397 0 0)
(-1.60291 0 0)
(-1.5705 0 0)
(-1.53694 0 0)
(-1.50237 0 0)
(-1.46698 0 0)
(-1.43088 0 0)
(-1.39424 0 0)
(-1.35717 0 0)
(-1.31979 0 0)
(-1.28222 0 0)
(-1.24456 0 0)
(-1.2069 0 0)
(-1.16934 0 0)
(-1.13194 0 0)
(-1.09479 0 0)
(-1.05796 0 0)
(-1.02149 0 0)
(-0.985461 0 0)
(-0.949904 0 0)
(-0.91487 0 0)
(-0.880394 0 0)
(-0.846512 0 0)
(-0.813252 0 0)
(-0.780638 0 0)
(-0.748691 0 0)
(-0.717427 0 0)
(-0.686858 0 0)
(-0.656994 0 0)
(-0.62784 0 0)
(-0.599399 0 0)
(-0.571671 0 0)
(-0.544652 0 0)
(-0.518337 0 0)
(-0.492719 0 0)
(-0.467787 0 0)
(-0.443528 0 0)
(-0.41993 0 0)
(-0.396975 0 0)
(-0.374647 0 0)
(-0.352927 0 0)
(-0.331793 0 0)
(-0.311225 0 0)
(-0.291199 0 0)
(-0.271692 0 0)
(-0.252678 0 0)
(-0.234131 0 0)
(-0.216025 0 0)
(-0.198333 0 0)
(-0.181025 0 0)
(-0.164074 0 0)
(-0.14745 0 0)
(-0.131124 0 0)
(-0.115064 0 0)
(-0.0992413 0 0)
(-0.0836239 0 0)
(-0.0681809 0 0)
(-0.052881 0 0)
(-0.0376924 0 0)
(-0.0225835 0 0)
(-0.00752253 0 0)
(0 0 0)
(1.42531 0 0)
(1.13825 0 0)
(0.868574 0 0)
(0.615699 0 0)
(0.379061 0 0)
(0.15809 0 0)
(-0.0477825 0 0)
(-0.239121 0 0)
(-0.416489 0 0)
(-0.580444 0 0)
(-0.731536 0 0)
(-0.870313 0 0)
(-0.997309 0 0)
(-1.11305 0 0)
(-1.21807 0 0)
(-1.31286 0 0)
(-1.39793 0 0)
(-1.47376 0 0)
(-1.54084 0 0)
(-1.59962 0 0)
(-1.65055 0 0)
(-1.69408 0 0)
(-1.73064 0 0)
(-1.76063 0 0)
(-1.78445 0 0)
(-1.8025 0 0)
(-1.81515 0 0)
(-1.82275 0 0)
(-1.82566 0 0)
(-1.82421 0 0)
(-1.81872 0 0)
(-1.80949 0 0)
(-1.79682 0 0)
(-1.781 0 0)
(-1.76229 0 0)
(-1.74095 0 0)
(-1.71722 0 0)
(-1.69133 0 0)
(-1.66351 0 0)
(-1.63397 0 0)
(-1.60291 0 0)
(-1.5705 0 0)
(-1.53694 0 0)
(-1.50237 0 0)
(-1.46698 0 0)
(-1.43088 0 0)
(-1.39424 0 0)
(-1.35717 0 0)
(-1.31979 0 0)
(-1.28222 0 0)
(-1.24456 0 0)
(-1.2069 0 0)
(-1.16934 0 0)
(-1.13194 0 0)
(-1.09479 0 0)
(-1.05796 0 0)
(-1.02149 0 0)
(-0.985461 0 0)
(-0.949904 0 0)
(-0.91487 0 0)
(-0.880394 0 0)
(-0.846512 0 0)
(-0.813252 0 0)
(-0.780638 0 0)
(-0.748691 0 0)
(-0.717427 0 0)
(-0.686858 0 0)
(-0.656994 0 0)
(-0.62784 0 0)
(-0.599399 0 0)
(-0.571671 0 0)
(-0.544652 0 0)
(-0.518337 0 0)
(-0.492719 0 0)
(-0.467787 0 0)
(-0.443528 0 0)
(-0.41993 0 0)
(-0.396975 0 0)
(-0.374647 0 0)
(-0.352927 0 0)
(-0.331793 0 0)
(-0.311225 0 0)
(-0.291199 0 0)
(-0.271692 0 0)
(-0.252678 0 0)
(-0.234131 0 0)
(-0.216025 0 0)
(-0.198333 0 0)
(-0.181025 0 0)
(-0.164074 0 0)
(-0.14745 0 0)
(-0.131124 0 0)
(-0.115064 0 0)
(-0.0992413 0 0)
(-0.0836239 0 0)
(-0.0681809 0 0)
(-0.052881 0 0)
(-0.0376924 0 0)
(-0.0225835 0 0)
(-0.00752253 0 0)
)
;
    }
    frontAndBack
    {
        type            empty;
    }
}


// ************************************************************************* //
