/*--------------------------------*- C++ -*----------------------------------*\
| =========                 |                                                 |
| \\      /  F ield         | OpenFOAM: The Open Source CFD Toolbox           |
|  \\    /   O peration     | Version:  2312                                  |
|   \\  /    A nd           | Website:  www.openfoam.com                      |
|    \\/     M anipulation  |                                                 |
\*---------------------------------------------------------------------------*/
FoamFile
{
    version     2.0;
    format      ascii;
    arch        "LSB;label=32;scalar=64";
    class       volScalarField;
    location    "0.4";
    object      gradTx;
}
// * * * * * * * * * * * * * * * * * * * * * * * * * * * * * * * * * * * * * //

dimensions      [0 -1 0 1 0 0 0];

internalField   nonuniform List<scalar> 
100
(
1.42531
1.13825
0.868574
0.615699
0.379061
0.15809
-0.0477825
-0.239121
-0.416489
-0.580444
-0.731536
-0.870313
-0.997309
-1.11305
-1.21807
-1.31286
-1.39793
-1.47376
-1.54084
-1.59962
-1.65055
-1.69408
-1.73064
-1.76063
-1.78445
-1.8025
-1.81515
-1.82275
-1.82566
-1.82421
-1.81872
-1.80949
-1.79682
-1.781
-1.76229
-1.74095
-1.71722
-1.69133
-1.66351
-1.63397
-1.60291
-1.5705
-1.53694
-1.50237
-1.46698
-1.43088
-1.39424
-1.35717
-1.31979
-1.28222
-1.24456
-1.2069
-1.16934
-1.13194
-1.09479
-1.05796
-1.02149
-0.985461
-0.949904
-0.91487
-0.880394
-0.846512
-0.813252
-0.780638
-0.748691
-0.717427
-0.686858
-0.656994
-0.62784
-0.599399
-0.571671
-0.544652
-0.518337
-0.492719
-0.467787
-0.443528
-0.41993
-0.396975
-0.374647
-0.352927
-0.331793
-0.311225
-0.291199
-0.271692
-0.252678
-0.234131
-0.216025
-0.198333
-0.181025
-0.164074
-0.14745
-0.131124
-0.115064
-0.0992413
-0.0836239
-0.0681809
-0.052881
-0.0376924
-0.0225835
-0.00752253
)
;

boundaryField
{
    movingWall
    {
        type            calculated;
        value           uniform 1.57324;
    }
    fixedWalls
    {
        type            calculated;
        value           nonuniform List<scalar> 
201
(
1.42531
1.13825
0.868574
0.615699
0.379061
0.15809
-0.0477825
-0.239121
-0.416489
-0.580444
-0.731536
-0.870313
-0.997309
-1.11305
-1.21807
-1.31286
-1.39793
-1.47376
-1.54084
-1.59962
-1.65055
-1.69408
-1.73064
-1.76063
-1.78445
-1.8025
-1.81515
-1.82275
-1.82566
-1.82421
-1.81872
-1.80949
-1.79682
-1.781
-1.76229
-1.74095
-1.71722
-1.69133
-1.66351
-1.63397
-1.60291
-1.5705
-1.53694
-1.50237
-1.46698
-1.43088
-1.39424
-1.35717
-1.31979
-1.28222
-1.24456
-1.2069
-1.16934
-1.13194
-1.09479
-1.05796
-1.02149
-0.985461
-0.949904
-0.91487
-0.880394
-0.846512
-0.813252
-0.780638
-0.748691
-0.717427
-0.686858
-0.656994
-0.62784
-0.599399
-0.571671
-0.544652
-0.518337
-0.492719
-0.467787
-0.443528
-0.41993
-0.396975
-0.374647
-0.352927
-0.331793
-0.311225
-0.291199
-0.271692
-0.252678
-0.234131
-0.216025
-0.198333
-0.181025
-0.164074
-0.14745
-0.131124
-0.115064
-0.0992413
-0.0836239
-0.0681809
-0.052881
-0.0376924
-0.0225835
-0.00752253
0
1.42531
1.13825
0.868574
0.615699
0.379061
0.15809
-0.0477825
-0.239121
-0.416489
-0.580444
-0.731536
-0.870313
-0.997309
-1.11305
-1.21807
-1.31286
-1.39793
-1.47376
-1.54084
-1.59962
-1.65055
-1.69408
-1.73064
-1.76063
-1.78445
-1.8025
-1.81515
-1.82275
-1.82566
-1.82421
-1.81872
-1.80949
-1.79682
-1.781
-1.76229
-1.74095
-1.71722
-1.69133
-1.66351
-1.63397
-1.60291
-1.5705
-1.53694
-1.50237
-1.46698
-1.43088
-1.39424
-1.35717
-1.31979
-1.28222
-1.24456
-1.2069
-1.16934
-1.13194
-1.09479
-1.05796
-1.02149
-0.985461
-0.949904
-0.91487
-0.880394
-0.846512
-0.813252
-0.780638
-0.748691
-0.717427
-0.686858
-0.656994
-0.62784
-0.599399
-0.571671
-0.544652
-0.518337
-0.492719
-0.467787
-0.443528
-0.41993
-0.396975
-0.374647
-0.352927
-0.331793
-0.311225
-0.291199
-0.271692
-0.252678
-0.234131
-0.216025
-0.198333
-0.181025
-0.164074
-0.14745
-0.131124
-0.115064
-0.0992413
-0.0836239
-0.0681809
-0.052881
-0.0376924
-0.0225835
-0.00752253
)
;
    }
    frontAndBack
    {
        type            empty;
    }
}


// ************************************************************************* //
