/*--------------------------------*- C++ -*----------------------------------*\
| =========                 |                                                 |
| \\      /  F ield         | OpenFOAM: The Open Source CFD Toolbox           |
|  \\    /   O peration     | Version:  2312                                  |
|   \\  /    A nd           | Website:  www.openfoam.com                      |
|    \\/     M anipulation  |                                                 |
\*---------------------------------------------------------------------------*/
FoamFile
{
    version     2.0;
    format      ascii;
    arch        "LSB;label=32;scalar=64";
    class       surfaceScalarField;
    location    "0.857";
    object      phi;
}
// * * * * * * * * * * * * * * * * * * * * * * * * * * * * * * * * * * * * * //

dimensions      [0 3 -1 0 0 0 0];

oriented        oriented;

internalField   nonuniform List<scalar> 
62015
(
74.1335
0.3899
-74.2539
74.0075
0.383226
73.8766
0.376293
73.7413
0.369107
73.6022
0.361674
73.4597
0.354001
73.3143
0.346093
73.1666
0.337957
73.017
0.3296
72.8658
0.321028
72.7135
0.312247
72.5605
0.303264
72.4072
0.294086
72.2537
0.28472
72.1006
0.275173
71.948
0.265451
71.7962
0.255563
71.6456
0.245515
71.4962
0.235315
71.3484
0.22497
71.2023
0.214487
71.0581
0.203875
70.916
0.193142
70.776
0.182294
70.6383
0.17134
70.503
0.160288
70.3701
0.149146
70.2397
0.137922
70.1118
0.126625
69.9863
0.115263
69.8633
0.103845
69.7427
0.0923782
69.6244
0.0808733
69.5084
0.0693376
69.3943
0.0577811
69.2822
0.0462119
69.1717
0.0346403
69.0627
0.0230744
68.9548
0.0115245
68.8478
0
68.7412
-0.0114897
68.6348
-0.0229335
68.5279
-0.0343233
68.4202
-0.0456467
68.3111
-0.0568948
68.1999
-0.0680558
68.086
-0.0791195
67.9685
-0.0900735
67.8465
-0.100908
67.7192
-0.111608
67.5854
-0.122164
67.4439
-0.13256
67.2932
-0.142785
67.1319
-0.152823
66.958
-0.162659
66.7697
-0.172277
66.5644
-0.181658
66.339
-0.190785
66.0897
-0.199633
65.8153
-0.208177
65.5152
-0.2164
65.1708
-0.224288
64.7341
-0.231756
64.2251
-0.238594
63.9073
-0.244848
63.961
-0.251617
63.0136
-0.259782
57.7094
-0.263344
47.308
-0.246527
36.768
-0.205125
30.528
-0.162617
28.1301
-0.139213
27.5208
-0.132126
27.5404
-0.132409
27.7663
-0.135267
28.0692
-0.138948
28.3927
-0.142964
28.7668
-0.146922
-0.151428
29.0521
72.1334
0.770555
-72.2677
71.9947
0.757195
71.8521
0.743337
71.7061
0.728994
71.5571
0.714177
71.4056
0.698897
71.2522
0.683166
71.0971
0.666997
70.9408
0.650402
70.7836
0.633392
70.626
0.615981
70.4683
0.598181
70.3108
0.580006
70.1537
0.561468
69.9975
0.542581
69.8423
0.523358
69.6884
0.503814
69.5361
0.483962
69.3855
0.463816
69.2368
0.443391
69.0903
0.422701
68.946
0.401761
68.8042
0.380586
68.6649
0.35919
68.5282
0.33759
68.3943
0.315801
68.2631
0.293838
68.1347
0.271717
68.0091
0.249455
67.8864
0.227067
67.7665
0.20457
67.6493
0.181981
67.5348
0.159315
67.4228
0.136592
67.3133
0.113827
67.2061
0.091038
67.101
0.0682428
66.9978
0.0454591
66.8963
0.0227056
66.7961
0
66.6969
-0.0226387
66.5984
-0.0451913
66.5002
-0.0676392
66.4018
-0.0899623
66.3028
-0.11214
66.2025
-0.134153
66.1003
-0.155979
65.9957
-0.177598
65.8877
-0.198987
65.7755
-0.220123
65.6582
-0.240983
65.5347
-0.261543
65.4039
-0.281777
65.2643
-0.301657
65.1144
-0.321157
64.9524
-0.340246
64.7765
-0.358891
64.5843
-0.377059
64.3724
-0.394711
64.1376
-0.411802
63.8793
-0.428282
63.5961
-0.444124
63.265
-0.459295
62.8388
-0.473584
62.3645
-0.486559
62.1359
-0.49855
62.2257
-0.512141
60.9505
-0.528217
54.9976
-0.531293
44.4524
-0.488778
34.6123
-0.400348
29.1807
-0.31818
27.2092
-0.276521
26.7527
-0.265126
26.8148
-0.266616
27.0512
-0.272452
27.339
-0.279803
27.6842
-0.287328
-0.295961
27.9536
70.1827
1.14209
-70.3294
70.0326
1.12205
69.8796
1.10129
69.7239
1.07983
69.5662
1.05769
69.4068
1.03488
69.2461
1.01141
69.0844
0.987321
68.9222
0.962611
68.7598
0.937303
68.5975
0.911415
68.4356
0.884965
68.2744
0.857973
68.1143
0.830456
67.9554
0.802435
67.798
0.773928
67.6423
0.744956
67.4885
0.715539
67.3369
0.685697
67.1876
0.65545
67.0408
0.624821
66.8966
0.593829
66.7551
0.562497
66.6165
0.530847
66.4808
0.4989
66.3481
0.466679
66.2185
0.434206
66.0921
0.401506
65.9687
0.3686
65.8485
0.335511
65.7314
0.302266
65.6173
0.268886
65.5062
0.235396
65.398
0.201821
65.2926
0.168186
65.1898
0.134516
65.0896
0.100837
64.9916
0.0671727
64.8956
0.0335523
64.8015
0
64.7089
-0.0334565
64.6175
-0.0667894
64.5269
-0.0999716
64.4368
-0.132975
64.3467
-0.165771
64.256
-0.198329
64.1643
-0.230622
64.0709
-0.262616
63.9751
-0.294282
63.8763
-0.325587
63.7735
-0.356498
63.6658
-0.386981
63.5522
-0.416999
63.4315
-0.446515
63.3024
-0.475491
63.1634
-0.503885
63.0127
-0.531652
62.8487
-0.558746
62.6687
-0.585117
62.4696
-0.610708
62.2486
-0.63545
62.0056
-0.659275
61.738
-0.68215
61.4185
-0.704013
61.0033
-0.72448
60.5691
-0.742916
60.4286
-0.76025
60.5171
-0.780833
58.8457
-0.804124
52.2627
-0.801308
41.7051
-0.723775
32.6267
-0.584628
27.9489
-0.467249
26.3461
-0.412374
26.0153
-0.399023
26.1152
-0.402362
26.3468
-0.411403
26.6574
-0.421814
-0.434113
26.9088
68.2748
1.50455
-68.4322
68.115
1.47785
67.953
1.45023
67.7892
1.42171
67.624
1.39232
67.4578
1.36207
67.291
1.33098
67.1238
1.29908
66.9567
1.26639
66.7899
1.23293
66.6237
1.19872
66.4584
1.16379
66.2944
1.12817
66.1317
1.09187
65.9707
1.05492
65.8116
1.01734
65.6546
0.97917
65.4998
0.940424
65.3476
0.901132
65.198
0.861319
65.0511
0.821013
64.9072
0.780242
64.7663
0.739032
64.6285
0.697412
64.4939
0.65541
64.3627
0.613055
64.2347
0.570377
64.1101
0.527404
63.9889
0.484167
63.8711
0.440695
63.7566
0.397021
63.6455
0.353173
63.5376
0.309184
63.4329
0.265085
63.3313
0.220908
63.2327
0.176685
63.1368
0.13245
63.0436
0.0882346
62.9527
0.0440735
62.8641
0
62.7774
-0.0439513
62.6924
-0.0877453
62.6087
-0.131347
62.526
-0.17472
62.4438
-0.217828
62.3617
-0.260634
62.2792
-0.303099
62.1959
-0.345186
62.111
-0.386854
62.0239
-0.428063
61.9339
-0.46877
61.8401
-0.508934
61.7417
-0.548508
61.6376
-0.587448
61.5267
-0.625704
61.4077
-0.663225
61.2791
-0.699958
61.1393
-0.735845
60.9865
-0.770825
60.8183
-0.804833
60.6315
-0.837794
60.4237
-0.869616
60.1955
-0.900217
59.9425
-0.929565
59.6329
-0.957546
59.2298
-0.983558
58.8417
-1.00683
58.789
-1.02927
58.8369
-1.0571
56.7085
-1.08626
49.5358
-1.07097
39.0967
-0.949838
30.816
-0.75886
26.8266
-0.611479
25.536
-0.547581
25.3115
-0.533853
25.4301
-0.53965
25.6896
-0.551258
-0.566467
25.9185
66.4072
1.85797
-66.5735
66.2393
1.82465
66.0698
1.79023
65.8992
1.75473
65.7279
1.71817
65.5561
1.68058
65.3843
1.64198
65.2127
1.6024
65.0416
1.56187
64.8713
1.52041
64.7021
1.47805
64.5342
1.43482
64.3679
1.39075
64.2034
1.34586
64.041
1.30019
63.8807
1.25377
63.7229
1.20662
63.5677
1.15879
63.4152
1.11029
63.2656
1.06116
63.1191
1.01144
62.9758
0.961152
62.8357
0.910338
62.699
0.859028
62.5657
0.807256
62.436
0.755059
62.3098
0.70247
62.1871
0.649526
62.0681
0.596262
61.9527
0.542715
61.8409
0.488922
61.7326
0.43492
61.6278
0.380747
61.5265
0.326441
61.4285
0.272041
61.3336
0.217584
61.2419
0.163112
61.1531
0.108664
61.067
0.0542792
60.9835
0
60.9023
-0.0541329
60.8231
-0.108078
60.7456
-0.161792
60.6696
-0.215232
60.5946
-0.268355
60.5203
-0.321116
60.4462
-0.37347
60.3718
-0.425371
60.2967
-0.476771
60.2202
-0.527622
60.1416
-0.577876
60.0602
-0.627481
59.9753
-0.676384
59.886
-0.724532
59.7912
-0.771868
59.6898
-0.818333
59.5807
-0.863866
59.4623
-0.9084
59.3331
-0.951866
59.1914
-0.994189
59.0347
-1.03529
58.86
-1.07507
58.6653
-1.11343
58.4516
-1.15027
58.2124
-1.18556
57.9125
-1.21911
57.5237
-1.25007
57.1863
-1.27764
57.2135
-1.30506
57.1857
-1.34028
54.5914
-1.37342
46.9394
-1.33913
36.7409
-1.16804
29.2278
-0.926052
25.8211
-0.753158
24.7817
-0.682881
24.6287
-0.669902
24.7897
-0.67756
-0.693859
24.9834
64.5791
2.20239
-64.7527
64.4044
2.16252
64.2288
2.12138
64.0528
2.07898
63.8765
2.03536
63.7003
1.99054
63.5246
1.94456
63.3495
1.89744
63.1754
1.84921
63.0025
1.79991
62.831
1.74957
62.6613
1.69822
62.4935
1.64589
62.3278
1.59262
62.1645
1.53844
62.0036
1.48338
61.8455
1.42749
61.6902
1.37079
61.538
1.31332
61.3888
1.25513
61.243
1.19625
61.1005
1.13671
60.9615
1.07656
60.8261
1.01583
60.6944
0.954572
60.5663
0.892816
60.442
0.830605
60.3214
0.767982
60.2047
0.704988
60.0917
0.641665
59.9825
0.578056
59.877
0.514205
59.7753
0.450154
59.6772
0.385949
59.5826
0.321633
59.4915
0.257253
59.4036
0.192853
59.319
0.128479
59.2374
0.0641794
59.1586
0
59.0824
-0.0640111
59.0086
-0.127806
58.9369
-0.191335
58.867
-0.254548
58.7987
-0.317397
58.7314
-0.379829
58.6649
-0.441793
58.5988
-0.503236
58.5324
-0.564104
58.4654
-0.624342
58.3971
-0.683894
58.3269
-0.742703
58.2541
-0.800709
58.178
-0.85785
58.0975
-0.914066
58.0119
-0.969288
57.92
-1.02345
57.8205
-1.07647
57.7122
-1.12829
57.5936
-1.17881
57.4628
-1.22796
57.3175
-1.27563
57.1547
-1.32172
56.9732
-1.3661
56.7739
-1.40866
56.5481
-1.44939
56.2583
-1.488
55.8867
-1.52334
55.6011
-1.55476
55.6958
-1.58709
55.5702
-1.62965
52.5494
-1.66465
44.5583
-1.60589
34.6834
-1.38102
27.8586
-1.08968
24.9242
-0.894139
24.0672
-0.819091
23.9924
-0.806321
-0.818183
24.1151
62.7903
2.53789
-62.9699
62.6102
2.49155
62.4298
2.44377
62.2494
2.39457
62.0693
2.344
61.8897
2.29208
61.711
2.23884
61.5333
2.18433
61.357
2.12856
61.1823
2.07159
61.0094
2.01344
60.8384
1.95415
60.6697
1.89375
60.5035
1.83229
60.3398
1.76981
60.1789
1.70634
60.0209
1.64192
59.866
1.57659
59.7143
1.5104
59.566
1.44339
59.4211
1.3756
59.2798
1.30706
59.1422
1.23784
59.0083
1.16796
58.8782
1.09749
58.752
1.02645
58.6297
0.954897
58.5113
0.882879
58.3968
0.810444
58.2864
0.737636
58.1798
0.664505
58.0772
0.591099
57.9784
0.517469
57.8834
0.443663
57.7922
0.369732
57.7045
0.295727
57.6205
0.221699
57.5398
0.1477
57.4623
0.0737829
57.388
0
57.3165
-0.0735947
57.2477
-0.146946
57.1813
-0.220001
57.1172
-0.292703
57.0548
-0.364996
56.9941
-0.436822
56.9346
-0.508125
56.8758
-0.578845
56.8175
-0.648921
56.7591
-0.718295
56.7001
-0.786903
56.64
-0.854681
56.5781
-0.921565
56.5137
-0.987487
56.4461
-1.05238
56.3745
-1.11617
56.2979
-1.17878
56.2153
-1.24014
56.1255
-1.30016
56.0271
-1.35875
55.9188
-1.41584
55.7989
-1.4713
55.6649
-1.52505
55.5142
-1.57695
55.3457
-1.62685
55.1607
-1.67467
54.9483
-1.72036
54.6695
-1.76354
54.3173
-1.80279
54.0817
-1.83765
54.2298
-1.87478
54.0017
-1.92446
50.6284
-1.95938
42.4378
-1.87244
32.9224
-1.59222
26.6859
-1.25286
24.1103
-1.0362
23.4093
-0.955683
-0.945121
23.3561
61.0411
2.86456
-61.2254
60.8568
2.81184
60.6726
2.75752
60.4889
2.70164
60.3059
2.64424
60.1238
2.58534
59.943
2.52499
59.7635
2.46323
59.5858
2.40009
59.4099
2.3356
59.2361
2.26982
59.0646
2.20277
58.8956
2.1345
58.7293
2.06506
58.5657
1.99448
58.4052
1.92281
58.2478
1.85008
58.0936
1.77636
57.9429
1.70168
57.7957
1.62609
57.6521
1.54963
57.5122
1.47236
57.3761
1.39431
57.244
1.31555
57.1157
1.23612
56.9915
1.15607
56.8713
1.07546
56.7551
0.994323
56.6431
0.912726
56.5351
0.830716
56.4312
0.748348
56.3313
0.665677
56.2355
0.582754
56.1436
0.499638
56.0555
0.416382
55.9713
0.333043
55.8908
0.249678
55.8139
0.166344
55.7404
0.0830982
55.6702
0
55.6031
-0.0828918
55.539
-0.165518
55.4776
-0.247817
55.4186
-0.32973
55.3619
-0.411193
55.3071
-0.492145
55.2539
-0.572521
55.202
-0.652259
55.1509
-0.731293
55.1003
-0.809555
55.0497
-0.886979
54.9987
-0.963496
54.9466
-1.03904
54.8928
-1.11352
54.8367
-1.18689
54.7776
-1.25905
54.7147
-1.32994
54.647
-1.39946
54.5735
-1.46753
54.4932
-1.53407
54.4047
-1.59896
54.3066
-1.66212
54.1974
-1.72344
54.0747
-1.78279
53.936
-1.84003
53.7806
-1.895
53.6096
-1.94761
53.4107
-1.99783
53.1443
-2.04514
52.813
-2.08784
52.6225
-2.1258
52.8112
-2.16755
52.4929
-2.22395
48.8629
-2.25746
40.5945
-2.14081
31.4392
-1.80528
25.6728
-1.41882
23.3775
-1.17974
-1.09338
22.8459
59.3316
3.18253
-59.5195
59.1441
3.12352
58.9571
3.06277
58.771
3.00032
58.5859
2.93621
58.4022
2.87048
58.2199
2.80317
58.0394
2.73431
57.8609
2.66394
57.6845
2.59212
57.5104
2.51888
57.3389
2.44426
57.1701
2.36832
57.0041
2.29108
56.8411
2.21261
56.6814
2.13295
56.5249
2.05215
56.3718
1.97025
56.2223
1.88731
56.0765
1.80338
55.9344
1.7185
55.7962
1.63273
55.6619
1.54612
55.5316
1.45873
55.4053
1.37061
55.2832
1.28181
55.1652
1.1924
55.0514
1.10242
54.9418
1.01193
54.8363
0.920993
54.735
0.829665
54.6379
0.738006
54.5449
0.646073
54.456
0.553926
54.3711
0.461627
54.2902
0.369237
54.2131
0.276816
54.1397
0.184428
54.0699
0.0921346
54.0037
0
53.9407
-0.091912
53.8809
-0.183536
53.8241
-0.274808
53.77
-0.365661
53.7184
-0.456029
53.6691
-0.545843
53.6217
-0.635037
53.5759
-0.72354
53.5315
-0.811281
53.488
-0.898192
53.445
-0.984198
53.4021
-1.06923
53.3588
-1.1532
53.3146
-1.23605
53.2688
-1.31768
53.2209
-1.39803
53.1701
-1.477
53.1156
-1.55452
53.0567
-1.63048
52.9922
-1.70481
52.9212
-1.77739
52.8425
-1.84813
52.7546
-1.91691
52.656
-1.98361
52.5445
-2.04811
52.4176
-2.11025
52.2752
-2.16985
52.1182
-2.22684
51.933
-2.28117
51.6803
-2.3322
51.3702
-2.37798
51.2181
-2.41872
51.4369
-2.46476
51.0554
-2.52741
47.2745
-2.55914
39.0322
-2.41341
30.2035
-2.02435
24.781
-1.59035
-1.31943
23.0228
57.6617
3.49192
-57.8523
57.472
3.42672
57.2831
3.35966
57.0954
3.29077
56.909
3.22008
56.7243
3.14766
56.5413
3.07352
56.3604
2.99772
56.1816
2.9203
56.0052
2.84131
55.8314
2.76079
55.6603
2.67879
55.4921
2.59536
55.3269
2.51054
55.1649
2.42438
55.0062
2.33694
54.851
2.24827
54.6993
2.15843
54.5513
2.06745
54.4071
1.9754
54.2667
1.88234
54.1303
1.78832
53.998
1.69339
53.8697
1.59762
53.7456
1.50106
53.6256
1.40378
53.5099
1.30582
53.3985
1.20725
53.2913
1.10814
53.1884
1.00855
53.0898
0.908531
52.9954
0.808153
52.9052
0.707482
52.8193
0.606579
52.7374
0.50551
52.6596
0.404341
52.5857
0.303138
52.5157
0.201969
52.4495
0.1009
52.3869
0
52.3278
-0.100663
52.2721
-0.201019
52.2195
-0.300997
52.1699
-0.40053
52.123
-0.499542
52.0787
-0.597964
52.0366
-0.695723
51.9965
-0.792744
51.9581
-0.888954
51.921
-0.984275
51.8849
-1.07863
51.8493
-1.17195
51.814
-1.26414
51.7783
-1.35513
51.7417
-1.44484
51.7038
-1.53318
51.6638
-1.62006
51.6212
-1.70539
51.5751
-1.78909
51.5247
-1.87105
51.4691
-1.95118
51.4073
-2.02936
51.338
-2.10549
51.2601
-2.17946
51.1721
-2.25112
51.0717
-2.32035
50.9566
-2.38697
50.827
-2.45079
50.6837
-2.51174
50.5126
-2.56981
50.2749
-2.6242
49.9855
-2.67273
49.8638
-2.71594
50.1051
-2.76579
49.6967
-2.83422
45.8756
-2.86481
37.7515
-2.69267
29.0936
-2.25739
-1.73808
25.057
56.0316
3.79286
-56.2239
55.8403
3.7216
55.6502
3.64834
55.4616
3.57313
55.2747
3.49601
55.0895
3.41703
54.9065
3.33622
54.7256
3.25364
54.5472
3.16934
54.3713
3.08335
54.1981
2.99573
54.0279
2.90652
53.8606
2.81579
53.6966
2.72358
53.5359
2.62995
53.3786
2.53494
53.2249
2.43862
53.0749
2.34103
52.9286
2.24225
52.7862
2.14232
52.6477
2.04131
52.5133
1.93927
52.3831
1.83626
52.2569
1.73235
52.135
1.6276
52.0174
1.52207
51.904
1.41583
51.795
1.30894
51.6903
1.20146
51.59
1.09347
51.4939
0.985018
51.4022
0.876187
51.3148
0.767039
51.2317
0.657644
51.1527
0.54807
51.0779
0.438389
51.0072
0.328669
50.9404
0.218983
50.8776
0.109403
50.8184
0
50.763
-0.109152
50.711
-0.21798
50.6624
-0.326409
50.6169
-0.434365
50.5744
-0.541772
50.5346
-0.648553
50.4974
-0.754632
50.4624
-0.859931
50.4294
-0.964371
50.3982
-1.06787
50.3683
-1.17036
50.3394
-1.27174
50.3111
-1.37194
50.2831
-1.47087
50.2548
-1.56844
50.2258
-1.66458
50.1955
-1.75918
50.1633
-1.85216
50.1286
-1.94342
50.0906
-2.03286
50.0487
-2.12039
50.0017
-2.20589
49.9489
-2.28925
49.889
-2.37035
49.8209
-2.44908
49.7432
-2.52529
49.6537
-2.59884
49.5504
-2.66954
49.4333
-2.7372
49.3036
-2.80176
49.1469
-2.86319
48.9254
-2.92062
48.6557
-2.97164
48.5557
-3.01698
48.8141
-3.06998
48.4135
-3.14412
44.7188
-3.17211
36.389
-2.99897
-2.40952
30.6661
54.4408
4.08551
-54.6342
54.2488
4.00829
54.0582
3.92897
53.8693
3.84757
53.6823
3.76416
53.4974
3.67877
53.3147
3.59145
53.1344
3.50224
52.9567
3.41121
52.7817
3.3184
52.6096
3.22385
52.4406
3.12763
52.2747
3.02979
52.1121
2.93039
51.953
2.82947
51.7974
2.7271
51.6454
2.62333
51.4972
2.51823
51.3529
2.41185
51.2125
2.30426
51.0761
2.19552
50.9438
2.0857
50.8157
1.97485
50.6919
1.86304
50.5723
1.75034
50.457
1.63681
50.346
1.52253
50.2394
1.40756
50.1372
1.29196
50.0394
1.17582
49.946
1.0592
49.857
0.942168
49.7723
0.824801
49.6919
0.70717
49.6157
0.589349
49.5438
0.471412
49.4761
0.353433
49.4124
0.235487
49.3527
0.117651
49.2968
0
49.2447
-0.117388
49.1963
-0.234436
49.1513
-0.351065
49.1096
-0.467198
49.0711
-0.582753
49.0356
-0.697652
49.0028
-0.811813
48.9725
-0.925155
48.9445
-1.0376
48.9184
-1.14905
48.8942
-1.25944
48.8712
-1.36867
48.8494
-1.47666
48.8282
-1.58333
48.8073
-1.68858
48.7863
-1.79232
48.7646
-1.89446
48.7417
-1.99491
48.7171
-2.09356
48.6901
-2.19033
48.6601
-2.2851
48.6263
-2.37777
48.5878
-2.46823
48.5437
-2.55635
48.493
-2.64203
48.4346
-2.72512
48.367
-2.80548
48.2883
-2.88297
48.1964
-2.95739
48.0918
-3.02853
47.9753
-3.09633
47.8334
-3.1608
47.6293
-3.22097
47.3771
-3.27433
47.2955
-3.32116
47.5323
-3.37839
47.3689
-3.44763
42.9693
-3.52478
-3.1473
38.6852
52.8892
4.37001
-53.083
52.697
4.28697
52.5065
4.2017
52.3179
4.11426
52.1314
4.02469
51.9471
3.93304
51.7653
3.83936
51.586
3.74369
51.4094
3.6461
51.2357
3.54663
51.065
3.44534
50.8975
3.34229
50.7332
3.23752
50.5724
3.13111
50.415
3.02311
50.2613
2.91357
50.1113
2.80257
49.9652
2.69016
49.8229
2.57641
49.6847
2.46138
49.5505
2.34513
49.4205
2.22775
49.2947
2.10928
49.1732
1.9898
49.0559
1.86939
48.943
1.7481
48.8345
1.62602
48.7304
1.5032
48.6307
1.37974
48.5354
1.25569
48.4446
1.13114
48.3581
1.00616
48.2761
0.880821
48.1984
0.755204
48.125
0.629385
48.0558
0.503441
47.9909
0.377452
47.9301
0.251496
47.8734
0.125651
47.8206
0
47.7717
-0.125378
47.7265
-0.250402
47.6849
-0.374989
47.6468
-0.499057
47.612
-0.622524
47.5803
-0.745304
47.5515
-0.867315
47.5255
-0.988471
47.502
-1.10869
47.4807
-1.22788
47.4615
-1.34595
47.444
-1.46282
47.4279
-1.5784
47.4128
-1.6926
47.3985
-1.80532
47.3846
-1.91648
47.3705
-2.02598
47.3559
-2.13372
47.3402
-2.2396
47.323
-2.34352
47.3035
-2.44539
47.2812
-2.54508
47.2554
-2.6425
47.2251
-2.73752
47.1896
-2.83002
47.1479
-2.91987
47.0988
-3.00695
47.0412
-3.0911
46.973
-3.17216
46.8925
-3.24994
46.7999
-3.32422
46.6963
-3.39495
46.57
-3.46211
46.3813
-3.52497
46.1613
-3.57955
46.0128
-3.63197
46.5567
-3.67351
45.4476
-3.8107
-3.69673
43.8571
51.3764
4.64654
-51.57
51.1846
4.55779
50.9946
4.46672
50.8068
4.37336
50.6212
4.27778
50.438
4.18002
50.2574
4.08012
50.0795
3.97816
49.9044
3.87417
49.7323
3.76822
49.5633
3.66036
49.3976
3.55065
49.2352
3.43915
49.0763
3.32592
48.921
3.21103
48.7694
3.09453
48.6215
2.97649
48.4776
2.85698
48.3376
2.73606
48.2016
2.6138
48.0698
2.49027
47.9421
2.36554
47.8186
2.23968
47.6995
2.11276
47.5847
1.98485
47.4742
1.85604
47.3682
1.72639
47.2665
1.59597
47.1693
1.46487
47.0766
1.33316
46.9882
1.20092
46.9043
1.06822
46.8249
0.935152
46.7498
0.80179
46.679
0.668215
46.6126
0.534507
46.5504
0.400749
46.4923
0.267023
46.4384
0.133412
46.3886
0
46.3426
-0.13313
46.3005
-0.265892
46.262
-0.398201
46.2272
-0.529972
46.1957
-0.661117
46.1676
-0.791552
46.1425
-0.921186
46.1204
-1.04993
46.1009
-1.1777
46.084
-1.30441
46.0693
-1.42996
46.0566
-1.55426
46.0456
-1.67722
46.0361
-1.79876
46.0277
-1.91876
46.02
-2.03715
46.0127
-2.15382
46.0054
-2.26867
45.9977
-2.38161
45.989
-2.49253
45.9789
-2.60133
45.9667
-2.7079
45.9519
-2.81213
45.9338
-2.91391
45.9115
-3.01311
45.8844
-3.10961
45.8513
-3.20328
45.8114
-3.29397
45.7635
-3.38156
45.7057
-3.46586
45.6363
-3.54667
45.5551
-3.6238
45.4655
-3.69706
45.3484
-3.76702
45.2039
-3.83058
44.9097
-3.89313
45.0301
-3.92703
44.9702
-4.02444
-4.04287
44.7129
49.9019
4.91525
-50.0948
49.7109
4.82093
49.5221
4.72417
49.3354
4.62505
49.1511
4.52359
48.9694
4.41987
48.7904
4.31392
48.6141
4.20581
48.4408
4.09559
48.2706
3.98333
48.1036
3.86907
47.9399
3.75288
47.7796
3.63483
47.6229
3.51497
47.4698
3.39338
47.3204
3.27011
47.1748
3.14523
47.0332
3.01882
46.8956
2.89094
46.762
2.76166
46.6325
2.63105
46.5073
2.49919
46.3863
2.36616
46.2696
2.23202
46.1572
2.09685
46.0492
1.96072
45.9456
1.82373
45.8465
1.68594
45.7517
1.54743
45.6615
1.40828
45.5756
1.26858
45.4943
1.12841
45.4173
0.987845
45.3447
0.846972
45.2765
0.705875
45.2126
0.564638
45.153
0.423346
45.0977
0.282084
45.0464
0.14094
44.9993
0
44.9561
-0.140649
44.9168
-0.280919
44.8813
-0.420722
44.8495
-0.559968
44.8211
-0.698569
44.7962
-0.836433
44.7745
-0.973472
44.7559
-1.10959
44.7401
-1.2447
44.7271
-1.37872
44.7165
-1.51153
44.7081
-1.64306
44.7018
-1.77321
44.6972
-1.90188
44.694
-2.02898
44.6919
-2.15441
44.6907
-2.27807
44.6899
-2.39986
44.6891
-2.51969
44.688
-2.63744
44.686
-2.75302
44.6828
-2.86631
44.6777
-2.97721
44.6701
-3.0856
44.6594
-3.19136
44.6449
-3.29438
44.6259
-3.39452
44.6013
-3.49166
44.5703
-3.58564
44.5318
-3.67632
44.4843
-3.76352
44.4251
-3.8471
44.3576
-3.92661
44.2722
-4.00276
44.1958
-4.07295
44.0034
-4.1444
43.862
-4.19396
43.8005
-4.25987
-4.30794
43.8153
48.4653
5.17631
-48.657
48.2756
5.07654
48.0881
4.97425
47.903
4.86948
47.7204
4.76231
47.5405
4.65277
47.3633
4.54092
47.189
4.42682
47.0178
4.31054
46.8497
4.19212
46.6848
4.07164
46.5234
3.94915
46.3654
3.82472
46.211
3.69842
46.0602
3.57031
45.9133
3.44046
45.7701
3.30894
45.6309
3.17582
45.4958
3.04118
45.3646
2.90509
45.2377
2.76761
45.1149
2.62884
44.9964
2.48883
44.8822
2.34768
44.7723
2.20546
44.6668
2.06226
44.5657
1.91814
44.469
1.77319
44.3767
1.6275
44.2889
1.48114
44.2055
1.33421
44.1266
1.18678
44.052
1.03895
43.9819
0.890793
43.9162
0.742401
43.8548
0.593862
43.7977
0.445263
43.7448
0.296694
43.6961
0.148243
43.6515
-2.97533e-07
43.6109
-0.147944
43.5743
-0.295499
43.5415
-0.442573
43.5124
-0.589074
43.487
-0.73491
43.465
-0.879989
43.4464
-1.02422
43.431
-1.1675
43.4186
-1.30975
43.409
-1.45086
43.4021
-1.59074
43.3977
-1.7293
43.3954
-1.86643
43.3952
-2.00205
43.3967
-2.13606
43.3996
-2.26835
43.4037
-2.39882
43.4086
-2.52738
43.414
-2.65392
43.4195
-2.77834
43.4248
-2.90054
43.4293
-3.0204
43.4327
-3.13781
43.4344
-3.25268
43.4338
-3.36487
43.4304
-3.47427
43.4234
-3.58075
43.4121
-3.68419
43.3958
-3.78445
43.3734
-3.88139
43.3442
-3.97484
43.3058
-4.06471
43.2597
-4.15054
43.1964
-4.23289
43.1391
-4.30948
43.0471
-4.38543
42.9136
-4.45111
42.7589
-4.51482
-4.56341
42.7572
47.0659
5.42989
-47.2562
46.8779
5.3248
46.6922
5.2171
46.509
5.10685
46.3284
4.99409
46.1505
4.87888
45.9754
4.76129
45.8034
4.64136
45.6344
4.51917
45.4686
4.39477
45.3061
4.26823
45.1471
4.13962
44.9915
4.00899
44.8396
3.87642
44.6913
3.74198
44.5469
3.60574
44.4063
3.46776
44.2696
3.32814
44.137
3.18693
44.0084
3.04421
43.884
2.90007
43.7637
2.75458
43.6477
2.60782
43.536
2.45987
43.4286
2.31081
43.3256
2.16072
43.227
2.0097
43.1327
1.85781
43.0429
1.70515
42.9575
1.5518
42.8766
1.39786
42.8
1.2434
42.7279
1.08851
42.6601
0.933293
42.5968
0.777827
42.5377
0.622207
42.483
0.466522
42.4325
0.310864
42.3862
0.155326
42.344
0
42.3059
-0.155021
42.2717
-0.309643
42.2414
-0.463773
42.215
-0.617315
42.1922
-0.770175
42.1729
-0.922258
42.1571
-1.07347
42.1446
-1.22371
42.1352
-1.37288
42.1288
-1.52089
42.1252
-1.66764
42.1242
-1.81303
42.1257
-1.95697
42.1293
-2.09935
42.1349
-2.24007
42.1423
-2.37904
42.1511
-2.51615
42.161
-2.6513
42.1719
-2.78439
42.1833
-2.91532
42.1949
-3.04397
42.2063
-3.17024
42.217
-3.29403
42.2268
-3.41522
42.235
-3.5337
42.2411
-3.64934
42.2447
-3.76204
42.2449
-3.87166
42.2412
-3.97807
42.2327
-4.08114
42.219
-4.18071
42.198
-4.2767
42.1709
-4.36873
42.1312
-4.45715
42.0852
-4.54054
42.0309
-4.62076
41.9626
-4.69534
41.8218
-4.76796
-4.82013
41.8086
45.7033
5.67616
-45.8917
45.5173
5.56589
45.3337
5.45292
45.1526
5.33731
44.9742
5.21911
44.7986
5.09839
44.6259
4.9752
44.4562
4.8496
44.2897
4.72166
44.1264
4.59144
43.9665
4.45901
43.81
4.32443
43.657
4.18778
43.5076
4.04912
43.362
3.90853
43.2202
3.76607
43.0822
3.62183
42.9481
3.47588
42.8181
3.3283
42.6921
3.17916
42.5703
3.02855
42.4526
2.87654
42.3392
2.72322
42.23
2.56867
42.1251
2.41298
42.0246
2.25622
41.9284
2.09849
41.8366
1.93988
41.7492
1.78046
41.6661
1.62033
41.5875
1.45958
41.5133
1.2983
41.4435
1.13658
41.3781
0.974512
41.317
0.812187
41.2602
0.649699
41.2078
0.487142
41.1595
0.324609
41.1155
0.162197
41.0756
0
41.0398
-0.161886
41.0079
-0.323366
40.98
-0.484342
40.9559
-0.644717
40.9355
-0.804394
40.9187
-0.963276
40.9055
-1.12126
40.8956
-1.27826
40.8889
-1.43416
40.8854
-1.58888
40.8847
-1.7423
40.8869
-1.89434
40.8916
-2.04488
40.8987
-2.19384
40.908
-2.3411
40.9192
-2.48657
40.9322
-2.63014
40.9466
-2.77172
40.9622
-2.91119
40.9788
-3.04846
40.9959
-3.18341
41.0133
-3.31595
41.0305
-3.44595
41.0473
-3.57332
41.0631
-3.69794
41.0776
-3.81969
41.0902
-3.93846
41.1005
-4.05412
41.1077
-4.16656
41.1112
-4.27563
41.1106
-4.3812
41.1044
-4.48316
41.0929
-4.58124
41.0737
-4.67555
41.0458
-4.76545
41.0072
-4.85135
40.9739
-4.93161
40.8794
-5.012
-5.07185
40.8864
44.3769
5.91529
-44.5631
44.1931
5.79997
44.0118
5.68186
43.8331
5.56103
43.6571
5.43754
43.484
5.31145
43.3139
5.18281
43.1468
5.05169
42.9829
4.91816
42.8222
4.78228
42.6649
4.64412
42.5111
4.50375
42.3608
4.36124
42.2142
4.21667
42.0712
4.0701
41.9321
3.92162
41.7968
3.77129
41.6654
3.6192
41.538
3.46543
41.4147
3.31006
41.2955
3.15316
41.1804
2.99483
41.0695
2.83515
40.9629
2.6742
40.8605
2.51207
40.7624
2.34884
40.6687
2.18461
40.5793
2.01947
40.4942
1.8535
40.4136
1.68679
40.3373
1.51945
40.2654
1.35155
40.1978
1.1832
40.1346
1.01449
40.0757
0.845511
40.0212
0.676364
39.9708
0.507141
39.9248
0.337942
39.8829
0.168862
39.8451
0
39.8114
-0.168546
39.7817
-0.336679
39.756
-0.504298
39.7341
-0.671304
39.7159
-0.837598
39.7014
-1.00308
39.6905
-1.16765
39.683
-1.3312
39.6788
-1.49365
39.6778
-1.65487
39.6798
-1.81478
39.6847
-1.97328
39.6923
-2.13025
39.7025
-2.2856
39.715
-2.43922
39.7297
-2.59102
39.7463
-2.74089
39.7647
-2.88872
39.7845
-3.03441
39.8055
-3.17786
39.8275
-3.31895
39.8501
-3.45759
39.873
-3.59367
39.8958
-3.72707
39.9183
-3.85769
39.9401
-3.9854
39.9605
-4.1101
39.9794
-4.23168
39.996
-4.35
40.0099
-4.46494
40.0205
-4.57637
40.027
-4.68418
40.029
-4.78816
40.0253
-4.88827
40.0159
-4.98417
39.9942
-5.07621
39.9781
-5.1622
39.9164
-5.24844
-5.31588
39.9448
43.0859
6.14747
-43.2697
42.9046
6.02722
42.7258
5.90411
42.5497
5.7782
42.3764
5.64955
42.2059
5.51823
42.0385
5.38429
41.8741
5.24781
41.713
5.10884
41.5551
4.96746
41.4006
4.82373
41.2495
4.67773
41.102
4.52954
40.9582
4.37921
40.818
4.22684
40.6816
4.0725
40.549
3.91626
40.4204
3.75822
40.2957
3.59844
40.175
3.43701
40.0584
3.27403
39.9459
3.10956
39.8376
2.9437
39.7335
2.77654
39.6336
2.60817
39.538
2.43866
39.4467
2.26813
39.3597
2.09665
39.277
1.92433
39.1986
1.75125
39.1246
1.5775
39.0549
1.40319
38.9896
1.22841
38.9285
1.05326
38.8718
0.877832
38.8193
0.702226
38.7711
0.52654
38.727
0.350874
38.6872
0.175327
38.6514
0
38.6197
-0.175007
38.5921
-0.349594
38.5683
-0.523659
38.5484
-0.6971
38.5323
-0.869816
38.5199
-1.0417
38.5111
-1.21266
38.5057
-1.38259
38.5038
-1.55138
38.505
-1.71893
38.5094
-1.88515
38.5168
-2.04991
38.527
-2.21314
38.5399
-2.3747
38.5553
-2.53452
38.573
-2.69247
38.5928
-2.84846
38.6146
-3.00238
38.6381
-3.15413
38.663
-3.3036
38.6892
-3.45069
38.7163
-3.59528
38.7441
-3.73727
38.7723
-3.87656
38.8005
-4.01303
38.8285
-4.14657
38.8558
-4.27707
38.882
-4.40441
38.9068
-4.52848
38.9296
-4.64916
38.9499
-4.76631
38.9672
-4.87983
38.9809
-4.98955
38.9899
-5.0954
38.9953
-5.19703
38.9906
-5.29494
38.9897
-5.38694
38.9503
-5.47872
-5.55289
38.9928
41.8298
6.37285
-42.0109
41.6511
6.2478
41.475
6.11982
41.3017
5.98897
41.1312
5.85531
40.9635
5.7189
40.7989
5.57981
40.6374
5.4381
40.4791
5.29385
40.3241
5.14712
40.1725
4.99799
40.0243
4.84652
39.8797
4.69279
39.7386
4.53689
39.6013
4.37888
39.4677
4.21885
39.3379
4.05688
39.212
3.89305
39.09
3.72744
38.972
3.56015
38.8581
3.39125
38.7482
3.22083
38.6424
3.04898
38.5409
2.87579
38.4435
2.70136
38.3503
2.52578
38.2614
2.34913
38.1767
2.17151
38.0963
1.99302
38.0202
1.81375
37.9484
1.63381
37.8809
1.45328
37.8177
1.27226
37.7587
1.09086
37.704
0.90918
37.6535
0.72731
37.6073
0.545356
37.5652
0.363418
37.5273
0.181599
37.4934
-2.9758e-07
37.4636
-0.181275
37.4378
-0.362124
37.416
-0.542443
37.3979
-0.722129
37.3837
-0.901077
37.3732
-1.07918
37.3663
-1.25635
37.3629
-1.43246
37.3629
-1.60742
37.3662
-1.78112
37.3727
-1.95345
37.3823
-2.12432
37.3948
-2.29361
37.4101
-2.46123
37.428
-2.62706
37.4483
-2.791
37.471
-2.95295
37.4957
-3.1128
37.5223
-3.27044
37.5507
-3.42578
37.5805
-3.57869
37.6116
-3.72909
37.6436
-3.87685
37.6764
-4.02188
37.7096
-4.16406
37.743
-4.30328
37.7761
-4.43943
37.8088
-4.57241
37.8405
-4.70209
37.8709
-4.82837
37.8995
-4.95111
37.926
-5.07021
37.9497
-5.18551
37.9698
-5.29696
37.9871
-5.40421
37.9967
-5.50773
38.01
-5.60556
37.9895
-5.70292
-5.78345
38.0426
40.6078
6.59161
-40.7861
40.4319
6.4619
40.2588
6.32918
40.0883
6.19352
39.9207
6.05498
39.756
5.91362
39.5943
5.76952
39.4358
5.62274
39.2805
5.47335
39.1284
5.32143
38.9797
5.16704
38.8344
5.01026
38.6927
4.85117
38.5546
4.68984
38.4201
4.52636
38.2893
4.36081
38.1623
4.19327
38.0392
4.02383
37.9199
3.85257
37.8046
3.67957
37.6933
3.50493
37.5861
3.32874
37.4829
3.15108
37.3838
2.97205
37.2889
2.79175
37.1982
2.61025
37.1116
2.42768
37.0292
2.2441
36.9511
2.05964
36.8772
1.87437
36.8076
1.68841
36.7422
1.50185
36.681
1.31479
36.6241
1.12734
36.5713
0.939584
36.5228
0.75164
36.4785
0.563606
36.4382
0.375585
36.4021
0.187682
36.3701
0
36.3421
-0.187355
36.318
-0.374279
36.2979
-0.560667
36.2816
-0.746412
36.2691
-0.931409
36.2603
-1.11555
36.2551
-1.29874
36.2535
-1.48086
36.2553
-1.6618
36.2604
-1.84147
36.2688
-2.01975
36.2803
-2.19654
36.2948
-2.37174
36.3122
-2.54523
36.3323
-2.71692
36.3549
-2.88668
36.38
-3.05443
36.4073
-3.22005
36.4367
-3.38343
36.468
-3.54448
36.501
-3.70307
36.5355
-3.85912
36.5712
-4.01251
36.6079
-4.16312
36.6454
-4.31087
36.6834
-4.45563
36.7216
-4.5973
36.7597
-4.73578
36.7974
-4.87093
36.8343
-5.00267
36.8701
-5.13086
36.9043
-5.2554
36.9367
-5.37615
36.9662
-5.49305
36.9937
-5.60577
37.0149
-5.71476
37.0403
-5.81818
37.0361
-5.92099
-6.00768
37.0982
39.4192
6.80392
-39.5946
39.2464