/*--------------------------------*- C++ -*----------------------------------*\
| =========                 |                                                 |
| \\      /  F ield         | OpenFOAM: The Open Source CFD Toolbox           |
|  \\    /   O peration     | Version:  2206                                  |
|   \\  /    A nd           | Website:  www.openfoam.com                      |
|    \\/     M anipulation  |                                                 |
\*---------------------------------------------------------------------------*/
FoamFile
{
    version     2.0;
    format      ascii;
    arch        "LSB;label=32;scalar=64";
    class       volScalarField;
    location    "1";
    object      wave;
}
// * * * * * * * * * * * * * * * * * * * * * * * * * * * * * * * * * * * * * //

dimensions      [0 0 0 0 0 0 0];

internalField   nonuniform List<scalar> 
100
(
0.881643
0.945132
0.984878
0.99988
0.989764
0.954783
0.895815
0.814343
0.712412
0.592584
0.457869
0.311651
0.157604
-0.000402301
-0.158399
-0.312416
-0.458584
-0.593232
-0.712976
-0.814809
-0.896172
-0.955022
-0.989879
-0.999868
-0.984738
-0.944869
-0.881263
-0.795518
-0.689788
-0.566728
-0.429432
-0.281347
-0.126193
0.03213
0.189646
0.342398
0.486548
0.618475
0.734865
0.832793
0.909799
0.963949
0.993883
0.998848
0.97872
0.934004
0.865824
0.775893
0.666469
0.540302
0.400562
0.250759
0.0946557
-0.0638253
-0.220703
-0.372036
-0.514022
-0.643096
-0.756013
-0.849937
-0.92251
-0.971906
-0.996887
-0.996823
-0.971717
-0.922199
-0.849513
-0.755486
-0.642479
-0.513332
-0.371289
-0.219918
-0.0630226
0.0954564
0.251537
0.401299
0.540979
0.667069
0.7764
0.866226
0.934291
0.978885
0.998886
0.993794
0.963735
0.909465
0.832347
0.734319
0.617843
0.485845
0.341642
0.188856
0.031326
-0.126991
-0.282118
-0.430158
-0.567391
-0.69037
-0.796005
-0.881643
)
;

boundaryField
{
    movingWall
    {
        type            calculated;
        value           uniform 0;
    }
    fixedWalls
    {
        type            calculated;
        value           uniform 0;
    }
    frontAndBack
    {
        type            empty;
    }
}


// ************************************************************************* //
