/*--------------------------------*- C++ -*----------------------------------*\
| =========                 |                                                 |
| \\      /  F ield         | OpenFOAM: The Open Source CFD Toolbox           |
|  \\    /   O peration     | Version:  2312                                  |
|   \\  /    A nd           | Website:  www.openfoam.com                      |
|    \\/     M anipulation  |                                                 |
\*---------------------------------------------------------------------------*/
FoamFile
{
    version     2.0;
    format      ascii;
    arch        "LSB;label=32;scalar=64";
    class       surfaceScalarField;
    location    "0.285";
    object      phi;
}
// * * * * * * * * * * * * * * * * * * * * * * * * * * * * * * * * * * * * * //

dimensions      [0 3 -1 0 0 0 0];

oriented        oriented;

internalField   nonuniform List<scalar> 
62015
(
67.2278
0.353726
-68.0525
66.4003
0.344028
65.5697
0.334222
64.7354
0.324314
63.897
0.314314
63.0539
0.304228
62.2053
0.294065
61.3505
0.283833
60.4886
0.27354
59.6185
0.263195
58.7391
0.252807
57.849
0.242384
56.9467
0.231936
56.0304
0.221471
55.098
0.210998
54.1471
0.200527
53.1749
0.190068
52.178
0.179629
51.1523
0.16922
50.093
0.158852
48.9941
0.148532
47.848
0.13827
46.6451
0.128075
45.3731
0.117954
44.0154
0.107915
42.5486
0.0979608
40.9375
0.0880886
39.1357
0.0782869
37.1047
0.0685586
34.8599
0.058984
32.5153
0.0497847
30.2691
0.0412871
28.32
0.0337624
26.7824
0.0272773
25.6641
0.0216946
24.9043
0.0167792
24.4204
0.0123025
24.1378
0.00808731
23.9991
0.00401267
23.9636
0
24.0033
-0.00400067
24.0988
-0.00802054
24.2372
-0.0120804
24.4091
-0.0161927
24.6081
-0.0203662
24.8293
-0.024606
25.0693
-0.0289155
25.3254
-0.0332963
25.5957
-0.0377496
25.8786
-0.0422748
26.1728
-0.0468715
26.4776
-0.0515387
26.7919
-0.0562749
27.1154
-0.0610782
27.4475
-0.0659466
27.7878
-0.0708779
28.136
-0.0758698
28.4918
-0.0809196
28.855
-0.0860246
29.2255
-0.0911818
29.6031
-0.0963887
29.9877
-0.101642
30.3792
-0.106939
30.7775
-0.112275
31.1826
-0.117649
31.5945
-0.123056
32.0131
-0.128494
32.4383
-0.133958
32.8702
-0.139445
33.3087
-0.144953
33.7538
-0.150476
34.2055
-0.156012
34.6637
-0.161558
35.1289
-0.167107
35.5991
-0.172665
36.0807
-0.178198
36.5539
-0.183796
37.0796
-0.189163
-0.195214
37.4706
64.7932
0.692259
-65.5913
63.9924
0.673243
63.1887
0.654018
62.3817
0.634597
61.5708
0.614997
60.7555
0.595232
59.935
0.575318
59.1087
0.555271
58.2756
0.535107
57.4347
0.514844
56.5849
0.494497
55.7248
0.474084
54.853
0.453623
53.9677
0.43313
53.0669
0.412624
52.1482
0.392122
51.2088
0.371643
50.2455
0.351205
49.2543
0.330827
48.2304
0.310526
47.1679
0.290321
46.0594
0.270229
44.8954
0.250266
43.6638
0.230447
42.348
0.210784
40.9247
0.191282
39.3593
0.171933
37.608
0.152716
35.6391
0.133652
33.4777
0.11493
31.2417
0.0970146
29.1208
0.0805365
27.2955
0.065978
25.8624
0.0534198
24.8217
0.0425696
24.1133
0.032973
23.6604
0.0241986
23.3941
0.015916
23.2618
0.00789896
23.2259
0
23.2606
-0.00787468
23.3482
-0.0157849
23.4764
-0.0237694
23.6365
-0.0318531
23.8224
-0.0400518
24.0297
-0.0483765
24.255
-0.0568331
24.4958
-0.0654252
24.7503
-0.0741547
25.0169
-0.0830212
25.2946
-0.0920237
25.5823
-0.10116
25.8794
-0.110428
26.1853
-0.119823
26.4995
-0.129342
26.8217
-0.138981
27.1515
-0.148734
27.4887
-0.158598
27.833
-0.168566
28.1843
-0.178634
28.5426
-0.188795
28.9076
-0.199044
29.2792
-0.209374
29.6575
-0.21978
30.0423
-0.230256
30.4335
-0.240795
30.8313
-0.25139
31.2354
-0.262034
31.6459
-0.272722
32.0628
-0.283446
32.486
-0.294199
32.9156
-0.304974
33.3514
-0.315766
33.7939
-0.326563
34.2413
-0.337373
34.6994
-0.348135
35.1499
-0.359018
35.6493
-0.369461
-0.381189
36.0253
62.4227
1.01587
-63.1952
61.6477
0.987909
60.87
0.959642
60.0893
0.931093
59.3049
0.902282
58.5163
0.873234
57.7229
0.843969
56.9239
0.814513
56.1183
0.784888
55.3053
0.75512
54.4837
0.725231
53.6523
0.695248
52.8095
0.665194
51.9536
0.635097
51.0827
0.604982
50.1944
0.574874
49.286
0.544801
48.3543
0.514789
47.3954
0.484865
46.4045
0.455053
45.3758
0.425381
44.3019
0.395874
43.1736
0.366553
41.9787
0.337438
40.7006
0.308547
39.3158
0.279883
37.7903
0.25143
36.0834
0.223162
34.1718
0.19514
32.0913
0.167703
29.9649
0.141576
27.9729
0.117665
26.2756
0.0965952
24.9515
0.0783993
23.992
0.0626134
23.3384
0.0485799
22.9191
0.0356924
22.6713
0.0234912
22.5471
0.0116623
22.5125
0
22.5437
-0.0116273
22.6245
-0.0233041
22.7437
-0.0350852
22.8931
-0.0470065
23.067
-0.0590914
23.2614
-0.0713545
23.473
-0.0838056
23.6996
-0.0964497
23.9392
-0.109289
24.1906
-0.122324
24.4526
-0.135553
24.7244
-0.148972
25.0052
-0.162579
25.2945
-0.176368
25.5919
-0.190333
25.8969
-0.204468
26.2093
-0.218767
26.5289
-0.233223
26.8554
-0.247827
27.1886
-0.262573
27.5286
-0.277451
27.875
-0.292453
28.2279
-0.307571
28.5871
-0.322796
28.9526
-0.338119
29.3244
-0.353529
29.7024
-0.369019
30.0866
-0.384577
30.4769
-0.400195
30.8733
-0.415862
31.2758
-0.431569
31.6844
-0.447305
32.099
-0.463062
32.52
-0.478821
32.9457
-0.494599
33.3816
-0.510304
33.8107
-0.526176
34.2852
-0.541422
-0.558481
34.6456
60.1267
1.32502
-60.8744
59.3767
1.28847
58.6242
1.25153
57.8688
1.21423
57.1099
1.17658
56.3471
1.13863
55.5797
1.10041
54.8068
1.06193
54.0277
1.02324
53.2415
0.984366
52.4469
0.945336
51.6427
0.906186
50.8276
0.866948
49.9997
0.827653
49.1572
0.788337
48.2977
0.749032
47.4187
0.709772
46.5167
0.670593
45.5881
0.631527
44.6282
0.592609
43.631
0.55387
42.5894
0.515342
41.4939
0.477053
40.3325
0.439027
39.0884
0.401282
37.7378
0.36382
36.2472
0.326612
34.58
0.289638
32.7223
0.253029
30.7215
0.217312
28.7047
0.18349
26.8419
0.152703
25.2728
0.125642
24.0576
0.102238
23.1799
0.081842
22.5817
0.0636115
22.1971
0.0467922
21.9691
0.0308192
21.8543
0.0153062
21.8222
0
21.8511
-0.0152626
21.9264
-0.0305873
22.0376
-0.0460433
22.1774
-0.0616754
22.3405
-0.0775136
22.523
-0.0935772
22.722
-0.109878
22.9353
-0.126424
23.1611
-0.143216
23.3982
-0.160256
23.6456
-0.177542
23.9023
-0.195069
24.1678
-0.212834
24.4415
-0.230829
24.723
-0.249047
25.0119
-0.267481
25.308
-0.286123
25.6109
-0.304961
25.9205
-0.323988
26.2367
-0.343192
26.5593
-0.362564
26.8882
-0.382092
27.2232
-0.401766
27.5645
-0.421573
27.9118
-0.441502
28.2651
-0.46154
28.6244
-0.481676
28.9896
-0.501897
29.3608
-0.522191
29.7378
-0.542545
30.1207
-0.562945
30.5094
-0.583378
30.9039
-0.603835
31.3045
-0.624291
31.7097
-0.644765
32.1245
-0.665144
32.5331
-0.685727
32.9842
-0.705518
-0.727591
33.3291
57.909
1.62023
-58.6326
57.1832
1.57544
56.455
1.53018
55.7242
1.48448
54.9901
1.43837
54.2521
1.39189
53.5098
1.34508
52.7622
1.29796
52.0087
1.25059
51.2481
1.20299
50.4795
1.15521
49.7016
1.10728
48.913
1.05924
48.112
1.01114
47.2967
0.963019
46.4648
0.914909
45.6137
0.866855
44.7401
0.818899
43.8404
0.771081
42.9097
0.723441
41.9424
0.676018
40.9311
0.628848
39.8665
0.581964
38.7363
0.535392
37.5237
0.489151
36.2043
0.443233
34.7457
0.397602
33.1161
0.352256
31.3115
0.30743
29.3909
0.263879
27.4837
0.222884
25.748
0.185766
24.303
0.15321
23.1923
0.124999
22.3926
0.100296
21.8476
0.0780922
21.4966
0.0575129
21.2879
0.0379081
21.1828
0.0188343
21.1536
0
21.181
-0.0187844
21.2515
-0.0376426
21.3556
-0.0566553
21.4867
-0.0758763
21.6397
-0.0953411
21.8113
-0.115073
21.9985
-0.135086
22.1993
-0.155388
22.4123
-0.175984
22.636
-0.196874
22.8696
-0.218056
23.1123
-0.239525
23.3634
-0.261275
23.6224
-0.283298
23.8889
-0.305587
24.1625
-0.328132
24.4431
-0.350921
24.7303
-0.373945
25.024
-0.397192
25.324
-0.420648
25.6302
-0.444302
25.9424
-0.46814
26.2607
-0.492148
26.5849
-0.516313
26.9149
-0.540621
27.2507
-0.565056
27.5923
-0.589605
27.9395
-0.614251
28.2925
-0.63898
28.6511
-0.663776
29.0154
-0.688624
29.3852
-0.713506
29.7606
-0.738411
30.1419
-0.763311
30.5275
-0.788226
30.9223
-0.813023
31.3115
-0.838057
31.7405
-0.862143
-0.888934
32.0703
55.7697
1.90201
-56.4699
55.0674
1.84933
54.363
1.79609
53.6559
1.74234
52.9458
1.68812
52.232
1.63347
51.5139
1.57843
50.7908
1.52304
50.0619
1.46735
49.3262
1.4114
48.5827
1.35524
47.8302
1.29891
47.0671
1.24245
46.292
1.18593
45.5028
1.12937
44.6974
1.07283
43.8732
1.01636
43.0269
0.960002
42.1547
0.903805
41.2521
0.847814
40.3133
0.792073
39.3308
0.736623
38.2955
0.681499
37.1948
0.62673
36.0115
0.57233
34.7213
0.518282
33.293
0.464545
31.7004
0.411154
29.9502
0.35849
28.111
0.307563
26.313
0.259919
24.7005
0.216997
23.3735
0.179409
22.3606
0.146757
21.6336
0.118021
21.1381
0.0920498
20.8184
0.0678703
20.628
0.0447669
20.5321
0.0222508
20.5059
0
20.532
-0.0221965
20.5982
-0.0444769
20.6959
-0.0669327
20.8188
-0.0896248
20.9626
-0.112594
21.1239
-0.135866
21.3001
-0.159458
21.4894
-0.18338
21.6902
-0.207637
21.9014
-0.232228
22.1221
-0.257152
22.3515
-0.282403
22.589
-0.307974
22.8341
-0.333857
23.0864
-0.360042
23.3457
-0.386518
23.6117
-0.413273
23.884
-0.440294
24.1626
-0.467567
24.4473
-0.495078
24.738
-0.522813
25.0345
-0.550756
25.3368
-0.578891
25.6448
-0.607202
25.9584
-0.635672
26.2776
-0.664285
26.6024
-0.693023
26.9326
-0.721869
27.2683
-0.750805
27.6095
-0.779812
27.956
-0.808874
28.308
-0.83797
28.6652
-0.867086
29.0281
-0.89619
29.3952
-0.925305
29.771
-0.954279
30.1416
-0.983515
30.5497
-1.01166
-1.04289
30.8648
53.7072
2.17086
-54.3846
53.0278
2.11061
52.3464
2.04974
51.6625
1.98828
50.9757
1.92629
50.2853
1.86381
49.5908
1.8009
48.8914
1.73759
48.1864
1.67394
47.4748
1.61
46.7555
1.54581
46.0274
1.48144
45.2891
1.41693
44.5389
1.35234
43.775
1.28771
42.9951
1.22311
42.1967
1.15858
41.3765
1.09418
40.531
1.02997
39.6553
0.965978
38.7437
0.90227
37.7888
0.838886
36.7814
0.775862
35.7086
0.713228
34.5532
0.650991
33.2906
0.589123
31.8917
0.527585
30.3367
0.466476
28.6425
0.406362
26.8865
0.348529
25.1963
0.294756
23.7024
0.246533
22.4863
0.20434
21.5641
0.167581
20.9037
0.135061
20.4535
0.105511
20.1626
0.0778803
19.989
0.051404
19.9017
0.0255595
19.8784
0
19.9033
-0.0255022
19.9656
-0.0510974
20.0573
-0.0768863
20.1727
-0.102936
20.3079
-0.129291
20.4596
-0.155982
20.6255
-0.183026
20.8039
-0.210436
20.9934
-0.238215
21.1927
-0.266366
21.4012
-0.294885
21.6181
-0.323766
21.8428
-0.353002
22.0748
-0.382583
22.3138
-0.412498
22.5595
-0.442735
22.8116
-0.47328
23.0699
-0.504119
23.3342
-0.535236
23.6044
-0.566615
23.8804
-0.598239
24.162
-0.630092
24.4492
-0.662155
24.7419
-0.694411
25.04
-0.726839
25.3434
-0.759422
25.6522
-0.792139
25.9663
-0.824971
26.2856
-0.857897
26.6102
-0.890898
26.9399
-0.923953
27.2749
-0.957039
27.6149
-0.990141
27.9603
-1.02322
28.3098
-1.05631
28.6675
-1.08923
29.0205
-1.12243
29.4088
-1.15442
-1.18982
29.7099
51.7194
2.42726
-52.3746
51.0623
2.35976
50.4033
2.29158
49.7419
2.22274
49.0776
2.15332
48.4099
2.08335
47.7383
2.0129
47.0619
1.94201
46.38
1.87074
45.6916
1.79916
44.9959
1.7273
44.2914
1.65523
43.577
1.58302
42.8509
1.51071
42.1113
1.43836
41.3561
1.36604
40.5825
1.29381
39.7877
1.22171
38.9676
1.14982
38.1178
1.07817
37.2323
1.00683
36.304
0.935844
35.3231
0.865246
34.2771
0.795062
33.148
0.725293
31.9117
0.6559
30.5418
0.586858
29.0255
0.518361
27.3896
0.451197
25.718
0.386937
24.1341
0.327549
22.7534
0.274502
21.6408
0.228098
20.8019
0.187533
20.2024
0.151455
19.7936
0.118499
19.5288
0.0875576
19.3706
0.0578283
19.2912
0.0287639
19.2704
0
19.2944
-0.0287049
19.3529
-0.0575113
19.439
-0.086527
19.5475
-0.115824
19.6745
-0.145452
19.8173
-0.175443
19.9736
-0.205818
20.1417
-0.236588
20.3205
-0.26776
20.5088
-0.299334
20.7058
-0.331307
20.9108
-0.363673
21.1234
-0.396425
21.3431
-0.42955
21.5695
-0.463037
21.8023
-0.496873
22.0414
-0.531042
22.2864
-0.565528
22.5372
-0.600315
22.7937
-0.635384
23.0557
-0.670717
23.3232
-0.706296
23.596
-0.742099
23.8742
-0.778107
24.1575
-0.8143
24.4461
-0.850655
24.7397
-0.887151
25.0385
-0.923767
25.3423
-0.960479
25.6511
-0.997266
25.9649
-1.0341
26.2837
-1.07097
26.6073
-1.10785
26.9361
-1.14469
27.2689
-1.18153
27.6095
-1.21818
27.9457
-1.25513
28.3151
-1.29075
-1.33007
28.6028
49.8037
2.67166
-50.4373
49.1683
2.59723
48.531
2.52205
47.8914
2.44616
47.2491
2.36962
46.6035
2.29249
45.954
2.21483
45.2998
2.13669
44.6403
2.05814
43.9746
1.97923
43.3015
1.90004
42.6199
1.82062
41.9285
1.74103
41.2257
1.66134
40.5097
1.58161
39.7782
1.50191
39.0287
1.4223
38.2581
1.34284
37.4627
1.26359
36.6377
1.18462
35.7774
1.10597
34.8743
1.02769
33.919
0.949828
32.8983
0.872395
31.7942
0.795383
30.5834
0.718747
29.2426
0.642492
27.7663
0.566945
26.191
0.493145
24.6047
0.422945
23.1248
0.358443
21.8516
0.301022
20.8353
0.250768
20.0728
0.206671
19.5287
0.167241
19.1573
0.131038
18.9164
0.0969158
18.7722
0.0640473
18.6999
0.031868
18.6815
0
18.7044
-0.0318082
18.7596
-0.0637253
18.8405
-0.095865
18.9424
-0.128305
19.0618
-0.161096
19.1962
-0.194274
19.3434
-0.227862
19.5019
-0.261871
19.6706
-0.296309
19.8484
-0.331177
20.0346
-0.36647
20.2286
-0.402183
20.4297
-0.438307
20.6378
-0.47483
20.8522
-0.511739
21.0729
-0.549019
21.2996
-0.586654
21.532
-0.624626
21.7701
-0.662917
22.0136
-0.701508
22.2624
-0.740378
22.5165
-0.779506
22.7758
-0.818872
23.0401
-0.858452
23.3095
-0.898224
23.5839
-0.938165
23.8632
-0.978251
24.1474
-1.01846
24.4364
-1.05876
24.7303
-1.09914
25.0289
-1.13957
25.3324
-1.18001
25.6405
-1.22046
25.9535
-1.26086
26.2704
-1.30125
26.5947
-1.34143
26.9151
-1.38192
27.2666
-1.42096
-1.46397
27.5415
47.9577
2.90452
-48.5704
47.3434
2.82346
46.7272
2.74158
46.1088
2.65894
45.4878
2.5756
44.8635
2.49162
44.2354
2.40706
43.6029
2.32199
42.9651
2.23648
42.3211
2.15058
41.67
2.06437
41.0106
1.97791
40.3415
1.89128
39.6612
1.80453
38.9679
1.71774
38.2593
1.63098
37.533
1.54431
36.7858
1.45781
36.0139
1.37152
35.2129
1.28553
34.3767
1.19988
33.4979
1.11461
32.5669
1.02978
31.5703
0.945379
30.4902
0.861399
29.3041
0.77779
27.9927
0.694611
26.5583
0.612361
25.0456
0.532356
23.5452
0.456705
22.1663
0.387575
20.9949
0.3262
20.0676
0.272426
19.375
0.225044
18.8812
0.182449
18.5438
0.143148
18.3245
0.105968
18.1931
0.0700685
18.1272
0.0348748
18.111
0
18.1329
-0.0348153
18.1849
-0.069746
18.2609
-0.104911
18.3567
-0.14039
18.469
-0.17624
18.5955
-0.212497
18.7342
-0.249185
18.8837
-0.286317
19.0429
-0.323901
19.2109
-0.361938
19.3869
-0.400423
19.5703
-0.439352
19.7607
-0.478712
19.9577
-0.518494
20.1609
-0.558681
20.3701
-0.599258
20.5851
-0.640209
20.8056
-0.681513
21.0316
-0.723151
21.2628
-0.765103
21.4991
-0.807346
21.7405
-0.849858
21.9869
-0.892617
22.2382
-0.935597
22.4944
-0.978774
22.7553
-1.02212
23.021
-1.06562
23.2914
-1.10924
23.5664
-1.15295
23.8461
-1.19673
24.1304
-1.24056
24.4193
-1.28439
24.7126
-1.32822
25.0107
-1.37199
25.3125
-1.41574
25.6213
-1.45925
25.9265
-1.50308
26.2611
-1.54537
-1.59183
26.5239
46.179
3.12626
-46.7713
45.5851
3.03886
44.9894
2.95058
44.3916
2.86149
43.7912
2.77164
43.1876
2.68111
42.5804
2.58997
41.9687
2.49828
41.3519
2.4061
40.7291
2.31353
40.0992
2.22061
39.4612
2.12743
38.8136
2.03405
38.155
1.94056
37.4836
1.84702
36.7971
1.75351
36.0931
1.66009
35.3684
1.56684
34.6194
1.47383
33.8412
1.38111
33.0282
1.28874
32.1727
1.19678
31.2648
1.10525
30.2913
1.01416
29.2341
0.923471
28.0721
0.833151
26.7909
0.743341
25.4003
0.654747
23.9522
0.56898
22.5376
0.488368
21.2564
0.415077
20.1807
0.350137
19.3357
0.293142
18.7068
0.242698
18.2588
0.19711
17.9521
0.154847
17.7524
0.114725
17.6325
0.0758991
17.5726
0.0377879
17.5583
0
17.5793
-0.0377293
17.6282
-0.0755796
17.6997
-0.113674
17.7897
-0.152095
17.8954
-0.190902
18.0144
-0.230133
18.1452
-0.269813
18.2862
-0.309957
18.4365
-0.350571
18.5952
-0.391658
18.7616
-0.433214
18.9351
-0.475231
19.1154
-0.517699
19.3019
-0.560606
19.4945
-0.603935
19.6929
-0.64767
19.8968
-0.691793
20.1061
-0.736283
20.3205
-0.78112
20.5401
-0.82628
20.7646
-0.871742
20.994
-0.91748
21.2282
-0.963471
21.4671
-1.00969
21.7107
-1.05611
21.9589
-1.1027
22.2117
-1.14944
22.4689
-1.19629
22.7307
-1.24324
22.9969
-1.29025
23.2676
-1.3373
23.5426
-1.38434
23.8219
-1.43137
24.1058
-1.47833
24.3933
-1.52525
24.6874
-1.57191
24.9782
-1.61889
25.2967
-1.66425
-1.71396
25.5479
44.4653
3.33731
-45.0378
43.8912
3.24384
43.3154
3.14945
42.7375
3.05419
42.1571
2.95813
41.5736
2.86135
40.9865
2.76391
40.395
2.66589
39.7985
2.56735
39.1961
2.46839
38.5867
2.36906
37.9694
2.26946
37.3426
2.16964
36.705
2.0697
36.0547
1.96971
35.3895
1.86974
34.707
1.76986
34.004
1.67016
33.2768
1.5707
32.5207
1.47155
31.7298
1.37275
30.8966
1.27436
30.0109
1.1764
29.0593
1.07887
28.024
0.981723
26.886
0.884948
25.6359
0.788806
24.2912
0.694245
22.9094
0.603171
21.5798
0.518081
20.3926
0.441072
19.4067
0.372926
18.6375
0.31298
18.0667
0.259677
17.66
0.211251
17.3813
0.166154
17.1993
0.1232
17.09
0.0815456
17.0355
0.0406105
17.0229
0
17.043
-0.0405534
17.089
-0.0812325
17.1562
-0.122163
17.2409
-0.163432
17.3403
-0.205098
17.4524
-0.247203
17.5756
-0.289771
17.7087
-0.33282
17.8506
-0.376355
18.0005
-0.420379
18.1579
-0.464887
18.3221
-0.509873
18.4927
-0.555325
18.6695
-0.60123
18.852
-0.647571
19.0401
-0.694331
19.2336
-0.74149
19.4322
-0.789028
19.6358
-0.83692
19.8443
-0.885146
20.0577
-0.933678
20.2757
-0.982493
20.4983
-1.03156
20.7255
-1.08086
20.9572
-1.13037
21.1933
-1.18004
21.4338
-1.22986
21.6786
-1.27979
21.9278
-1.32981
22.1812
-1.37988
22.4389
-1.42998
22.7008
-1.48007
22.9668
-1.53013
23.2372
-1.58011
23.511
-1.63003
23.7912
-1.67967
24.0684
-1.72962
24.3715
-1.77787
-1.83063
24.6117
42.8143
3.53805
-43.3676
42.2594
3.43881
41.7029
3.33857
41.1443
3.23743
40.5833
3.13543
40.0192
3.03267
39.4515
2.92922
38.8796
2.82515
38.3028
2.72055
37.7201
2.61548
37.1306
2.51003
36.5331
2.40429
35.9265
2.29832
35.3091
2.19222
34.6791
2.08605
34.0345
1.97991
33.3727
1.87386
32.6905
1.76798
31.9844
1.66235
31.2494
1.55703
30.4798
1.45207
29.6678
1.34751
28.8032
1.24337
27.8725
1.13964
26.8584
1.03627
25.7445
0.933301
24.5267
0.831135
23.2299
0.730999
21.9156
0.635082
20.67
0.54599
19.5727
0.465679
18.6705
0.394653
17.9709
0.331998
17.453
0.276019
17.0839
0.224898
16.8304
0.177084
16.6646
0.131402
16.5648
0.0870147
16.5152
0.0433452
16.5041
0
16.5233
-0.0432902
16.5667
-0.0867103
16.6299
-0.130388
16.7095
-0.174413
16.8031
-0.218845
16.9087
-0.263726
17.0249
-0.309084
17.1504
-0.354934
17.2844
-0.401284
17.4261
-0.448136
17.5749
-0.495486
17.7304
-0.543326
17.892
-0.591644
18.0594
-0.640426
18.2325
-0.689656
18.4109
-0.739314
18.5944
-0.78938
18.7829
-0.839833
18.9763
-0.890647
19.1744
-0.9418
19.3771
-0.993264
19.5843
-1.04501
19.796
-1.09702
20.0121
-1.14926
20.2324
-1.20169
20.4571
-1.2543
20.686
-1.30705
20.919
-1.3599
21.1562
-1.41284
21.3975
-1.46581
21.6429
-1.51881
21.8924
-1.57178
22.1457
-1.62471
22.4033
-1.67754
22.6642
-1.7303
22.9311
-1.78275
23.1953
-1.83551
23.4839
-1.88651
-1.94213
23.7136
41.2238
3.7289
-41.7584
40.6875
3.62413
40.1497
3.51832
39.6098
3.41155
39.0675
3.3039
38.5222
3.19543
37.9734
3.08624
37.4204
2.9764
36.8625
2.86599
36.2989
2.7551
35.7286
2.64381
35.1504
2.5322
34.5631
2.42035
33.9652
2.30836
33.3549
2.19629
32.73
2.08425
32.0881
1.97229
31.4261
1.86051
30.7401
1.74897
30.0255
1.63773
29.2762
1.52686
28.4844
1.41638
27.64
1.3063
26.7292
1.1966
25.7358
1.08724
24.6463
0.978328
23.4624
0.870462
22.2153
0.765161
20.9694
0.664869
19.806
0.572234
18.7942
0.489009
17.9701
0.415397
17.3342
0.350252
16.8644
0.291758
16.5292
0.238073
16.2986
0.187654
16.1475
0.139342
16.0564
0.0923122
16.0112
0.0459953
16.0015
0
16.0199
-0.0459427
16.0608
-0.0920188
16.1202
-0.138358
16.1951
-0.185049
16.2832
-0.232157
16.3827
-0.279722
16.4923
-0.327773
16.6107
-0.376327
16.7373
-0.425391
16.8713
-0.474967
17.012
-0.525052
17.1591
-0.575635
17.3122
-0.626707
17.4709
-0.678252
17.635
-0.730252
17.8042
-0.782688
17.9784
-0.835539
18.1574
-0.88878
18.341
-0.942389
18.5292
-0.996339
18.7219
-1.0506
18.9189
-1.10515
19.1202
-1.15996
19.3257
-1.21499
19.5353
-1.27022
19.7491
-1.32562
19.967
-1.38115
20.1888
-1.43678
20.4147
-1.49248
20.6445
-1.54822
20.8782
-1.60396
21.1158
-1.65966
21.3572
-1.71531
21.6026
-1.77084
21.8511
-1.82628
22.1054
-1.88139
22.3573
-1.9368
22.6321
-1.99039
-2.04869
22.8518
39.6917
3.91023
-40.2083
39.1735
3.80018
38.6537
3.68906
38.132
3.57692
37.6078
3.46386
37.0807
3.34995
36.5501
3.23528
36.0154
3.11993
35.4758
3.00399
34.9306
2.88753
34.3788
2.77066
33.8192
2.65345
33.2506
2.53598
32.6715
2.41836
32.0801
2.30066
31.4743
2.18297
30.8516
2.06537
30.2088
1.94793
29.5422
1.83073
28.847
1.71383
28.1172
1.59728
27.3448
1.48111
26.5196
1.36531
25.6279
1.24987
24.6548
1.13474
23.5902
1.02015
22.4418
0.906926
21.2464
0.796886
20.0693
0.692688
18.9859
0.596949
18.0551
0.511166
17.3032
0.435233
16.7257
0.367789
16.2994
0.30693
15.995
0.2508
15.7852
0.197879
15.6473
0.147029
15.5641
0.0974442
15.5229
0.0485635
15.5145
0
15.532
-0.0485136
15.5706
-0.0971634
15.6265
-0.14608
15.697
-0.195354
15.78
-0.245049
15.8738
-0.295209
15.9771
-0.345862
16.0889
-0.397025
16.2085
-0.448706
16.3351
-0.500907
16.4683
-0.553623
16.6076
-0.606847
16.7526
-0.660565
16.903
-0.714762
17.0586
-0.76942
17.2191
-0.82452
17.3845
-0.880037
17.5544
-0.935949
17.7289
-0.99223
17.9077
-1.04885
18.0909
-1.10579
18.2782
-1.16301
18.4696
-1.22049
18.6651
-1.27819
18.8647
-1.33608
19.0681
-1.39413
19.2755
-1.45231
19.4867
-1.51058
19.7018
-1.56891
19.9207
-1.62726
20.1433
-1.6856
20.3696
-1.7439
20.5996
-1.80211
20.8335
-1.8602
21.0704
-1.91818
21.3127
-1.97581
21.5529
-2.03371
21.8145
-2.08976
-2.15058
22.0247
38.2159
4.0824
-38.7151
37.7152
3.96733
37.213
3.85113
36.7087
3.73388
36.2021
3.61566
35.6926
3.49656
35.1796
3.37666
34.6626
3.25605
34.1407
3.13482
33.6133
3.01306
33.0793
2.89085
32.5377
2.76829
31.9871
2.64547
31.4261
2.52247
30.8529
2.39938
30.2655
2.27629
29.6611
2.15329
29.0369
2.03044
28.3889
1.90782
27.7123
1.78548
27.0011
1.66348
26.2473
1.54184
25.4403
1.42054
24.567
1.29955
23.6141
1.17889
22.5754
1.0589
21.4643
0.940671
20.322
0.826331
19.2136
0.718692
18.2077
0.620264
17.3531
0.532246
16.6679
0.454228
16.1436
0.384656
15.7568
0.321563
15.4804
0.263099
15.2893
0.207771
15.1634
0.154473
15.0874
0.102416
15.0499
0.0510523
15.0426
-1.02438e-07
15.0594
-0.0510053
15.0958
-0.10215
15.1484
-0.153563
15.2147
-0.205337
15.2929
-0.257536
15.3813
-0.310204
15.4787
-0.36337
15.5843
-0.417052
15.6973
-0.471257
15.8171
-0.525987
15.9431
-0.581238
16.075
-0.637001
16.2124
-0.693263
16.355
-0.750008
16.5026
-0.807218
16.6549
-0.864871
16.8119
-0.922944
16.9733
-0.981413
17.139
-1.04025
17.309
-1.09943
17.4831
-1.15892
17.6613
-1.21869
17.8434
-1.27871
18.0294
-1.33896
18.2193
-1.39938
18.413
-1.45996
18.6104
-1.52066
18.8116
-1.58143
19.0164
-1.64226
19.2249
-1.7031
19.437
-1.76391
19.6527
-1.82466
19.8718
-1.88531
20.0947
-1.94581
20.3205
-2.00619
20.5515
-2.0662
20.7805
-2.12646
21.0297
-2.18482
-2.248
21.2308
36.7945
4.24577
-37.2768
36.3108
4.12591
35.8254
4.00487
35.3381
3.88274
34.8485
3.75961
34.3559
3.63555
33.86
3.51067
33.36
3.38504
32.8553
3.25877
32.345
3.13194
31.8283
3.00465
31.3039
2.87698
30.7707
2.74904
30.2272
2.6209
29.6716
2.49267
29.1017
2.36442
28.5152
2.23624
27.9087
2.10821
27.2785
1.98039
26.6198
1.85285
25.9264
1.72561
25.1901
1.59871
24.4006
1.4721
23.5452
1.34577
22.6126
1.2198
21.6009
1.0947
20.5287
0.971848
19.4409
0.853658
18.4007
0.74303
17.4692
0.6423
16.6861
0.552339
16.0624
0.472441
15.5865
0.400894
15.2356
0.335685
14.9843
0.274987
14.8102
0.217345
14.6953
0.161682
14.6258
0.107234
14.5916
0.0534644
14.5853
0
14.6013
-0.0534209
14.6357
-0.106982
14.6852
-0.160814
14.7477
-0.215009
14.8213
-0.269631
14.9046
-0.324725
14.9966
-0.380319
15.0964
-0.436432
15.2032
-0.493072
15.3164
-0.550241
15.4357
-0.607933
15.5606
-0.66614
15.6908
-0.724848
15.826
-0.784041
15.966
-0.8437
16.1106
-0.903803
16.2597
-0.964326
16.413
-1.02524
16.5705
-1.08653
16.7321
-1.14815
16.8976
-1.21008
17.0671
-1.27229
17.2404
-1.33474
17.4174
-1.3974
17.5981
-1.46025
17.7826
-1.52323
17.9706
-1.58632
18.1622
-1.64948
18.3573
-1.71268
18.5559
-1.77588
18.758
-1.83903
18.9636
-1.9021
19.1725
-1.96507
19.3849
-2.02786
19.6002
-2.09051
19.8203
-2.15276
20.0388
-2.21525
20.2761
-2.2758
-2.3412
20.4685
35.4256
4.40068
-35.8915
34.9582
4.27625
34.4892
4.15061
34.0183
4.02383
33.545
3.89601
33.0689
3.76723
32.5894
3.63759
32.1059
3.50719
31.6177
3.37611
31.124
3.24444
30.6239
3.11229
30.1162
2.97976
29.5998
2.84692
29.0731
2.71388
28.5343
2.58072
27.9815
2.44754
27.4119
2.31441
26.8225
2.18141
26.2095
2.04862
25.5678
1.91607
24.8914
1.78381
24.1719
1.65183
23.3991
1.52011
22.5612
1.38864
21.6493
1.25759
20.6659
1.12769
19.6344
1.00061
18.602
0.879026
17.6288
0.765847
16.7685
0.663172
16.0521
0.571526
15.4848
0.48993
15.053
0.416539
14.7345
0.349323
14.506
0.286485
14.3473
0.226612
14.2423
0.168665
14.1787
0.111902
14.1476
0.0558023
14.1421
0
14.1575
-0.055762
14.1899
-0.111666
14.2365
-0.167841
14.2954
-0.22438
14.3648
-0.281347
14.4434
-0.338786
14.5302
-0.396728
14.6244
-0.455189
14.7254
-0.514179
14.8325
-0.573698
14.9455
-0.633741
15.0638
-0.694301
15.1872
-0.755362
15.3154
-0.816908
15.4483
-0.878918
15.5856
-0.941372
15.7271
-1.00424
15.8728
-1.06751
16.0225
-1.13113
16.1761
-1.19509
16.3336
-1.25936
16.4948
-1.32389
16.6596
-1.38866
16.8282
-1.45364
17.0002
-1.51878
17.1758
-1.58406
17.3549
-1.64943
17.5374
-1.71486
17.7234
-1.78031
17.9126
-1.84574
18.1052
-1.91112
18.3011
-1.97639
18.5003
-2.04154
18.7028
-2.1065
18.908
-2.1713
19.1179
-2.23568
19.3263
-2.30027
19.5525
-2.36289
-2.43036
19.7366
34.1072
4.54747
-34.5572
33.6556
4.41869
33.2025
4.28865
32.7474
4.15745
32.29
4.02516
31.8297
3.89188
31.3661
3.75771
30.8985
3.62275
30.4263
3.48708
29.9485
3.35081
29.4644
3.21403
28.9728
3.07683
28.4725
2.93933
27.962
2.8016
27.4395
2.66373
26.903
2.52583
26.3498
2.38797
25.7768
2.25022
25.1802
2.11264
24.5549
1.97529
23.8946
1.83819
23.1912
1.70133
22.4345
1.56468
21.6139
1.42827
20.7233
1.29238
19.7695
1.15801
18.7802
1.02713
17.8038
0.902597
16.8963
0.787281
16.1036
0.682984
15.4492
0.589881
14.9335
0.506745
14.5417
0.431628
14.2525
0.3625
14.0446
0.297607
13.8999
0.235585
13.8039
0.17543
13.7457
0.116426
13.7173
0.0580684
13.7127
0
13.7273
-0.0580316
13.7579
-0.116206
13.8019
-0.174652
13.8573
-0.233461
13.9227
-0.292697
13.9969
-0.352405
14.0789
-0.412615
14.1679
-0.473344
14.2634
-0.534601
14.3648
-0.596387
14.4717
-0.658697
14.5838
-0.721521
14.7008
-0.784845
14.8225
-0.848653
14.9486
-0.912923
15.0789
-0.977633
15.2134
-1.04276
15.3518
-1.10827
15.4941
-1.17414
15.6402
-1.24034
15.79
-1.30683
15.9434
-1.37359
16.1003
-1.44057
16.2607
-1.50775
16.4246
-1.57509
16.5918
-1.64254
16.7624
-1.71008
16.9363
-1.77767
17.1135
-1.84526
17.2939
-1.91282
17.4775
-1.98031
17.6642
-2.04768
17.8541
-2.1149
18.0472
-2.18191
18.2429
-2.24873
18.4431
-2.31512
18.6419
-2.3817
18.8574
-2.44628
-2.5157
19.0336
32.8375
4.68645
-33.2723
32.4013
4.55352
31.9634
4.41931
31.5237
4.28388
31.0815
4.14734
30.6366
4.00978
30.1883
3.87129
29.7361
3.73198
29.2792
3.59194
28.8169
3.45127
28.3482
3.31007
27.8722
3.16844
27.3874
3.02647
26.8925
2.88426
26.3856
2.7419
25.8648
2.59948
25.3273
2.45709
24.77
2.31478
24.1891
2.17262
23.5794
2.03065
22.9346
1.88889
22.2465
1.74732
21.5054
1.60592
20.7022
1.46476
19.8336
1.32431
18.9109
1.18581
17.9654
1.05155
17.045
0.924526
16.2012
0.807462
15.4724
0.701834
14.8754
0.607472
14.407
0.52293
14.0515
0.446189
13.7887
0.375237
13.5995
0.308369
13.4674
0.244273
13.3795
0.181983
13.3263
0.120811
13.3004
0.060265
13.2965
0
13.3105
-0.0602317
13.3393
-0.120607
13.3808
-0.181253
13.433
-0.24226
13.4947
-0.303693
13.5647
-0.365596
13.6421
-0.427998
13.7263
-0.490918
13.8166
-0.554364
13.9126
-0.618336
14.0138
-0.68283
14.1201
-0.747835
14.2311
-0.813339
14.3465
-0.879321
14.4662
-0.945762
14.5899
-1.01264
14.7177
-1.07992
14.8493
-1.14759
14.9846
-1.21561
15.1235
-1.28395
15.266
-1.35257
15.412
-1.42145
15.5614
-1.49055
15.7142
-1.55983
15.8702
-1.62926
16.0296
-1.6988
16.1921
-1.76841
16.3578
-1.83804
16.5267
-1.90767
16.6986
-1.97725
16.8737
-2.04673
17.0517
-2.11609
17.2328
-2.18527
17.4169
-2.25423
17.6036
-2.32297
17.7945
-2.39126
17.9842
-2.45971
18.1896
-2.52615
-2.59738
18.3583
31.6148
4.81792
-32.0348
31.1934
4.68106
30.7703
4.54287
30.3454
4.40343
29.918
4.26284
29.4879
4.12119
29.0544
3.97859
28.617
3.83514
28.1749
3.69093
27.7275
3.54607
27.2737
3.40065
26.8126
3.25478
26.3428
3.10855
25.8629
2.96206
25.3711
2.81541
24.8653
2.66867
24.3429
2.52192
23.8007
2.37524
23.2347
2.22868
22.64
2.08227
22.01
1.93602
21.3366
1.78991
20.6108
1.64393
19.825
1.49824
18.9795
1.3535
18.0894
1.21126
17.1887
1.07406
16.3242
0.944968
15.5419
0.826515
14.8731
0.719811
14.3291
0.624358
13.9037
0.538527
13.581
0.460253
13.3423
0.387555
13.1699
0.318787
13.0492
0.252688
12.9688
0.188333
12.92
0.12506
12.8964
0.0623945
12.8931
-1.02245e-07
12.9065
-0.0623646
12.9337
-0.124873
12.9728
-0.187651
13.0221
-0.250787
13.0802
-0.314346
13.1463
-0.378372
13.2194
-0.442895
13.299
-0.507931
13.3844
-0.57349
13.4753
-0.639572
13.5713
-0.706172
13.672
-0.773279
13.7772
-0.840878
13.8868
-0.908952
14.0004
-0.977479
14.118
-1.04644
14.2394
-1.11579
14.3645
-1.18553
14.4932
-1.2556
14.6254
-1.32599
14.761
-1.39666
14.9
-1.46757
15.0422
-1.53869
15.1877
-1.60998
15.3364
-1.6814
15.4882
-1.75292
15.6431
-1.82449
15.801
-1.89608
15.962
-1.96765
16.1259
-2.03914
16.2928
-2.11053
16.4626
-2.18176
16.6353
-2.25281
16.811
-2.3236
16.9891
-2.39417
17.1712
-2.46425
17.3522
-2.53447
17.548
-2.60266
-2.6756
17.7095
30.4375
4.9422
-30.8431
30.0303
4.80159
29.6215
4.65961
29.2108
4.51635
28.7978
4.3719
28.3819
4.22637
27.9627
4.07985
27.5396
3.93245
27.1118
3.78427
26.6787
3.63541
26.2393
3.48597
25.7925
3.33606
25.3372
3.18576
24.8717
3.03519
24.3944
2.88442
23.903
2.73354
23.3951
2.58263
22.8674
2.43176
22.3158
2.28096
21.7353
2.13027
21.1194
1.97969
20.4602
1.8292
19.7494
1.67882
18.9816
1.52883
18.1602
1.3801
17.3043
1.2345
16.4493
1.09481
15.6398
0.964068
14.9164
0.844552
14.3039
0.736994
13.8086
0.640594
13.4224
0.553573
13.1294
0.473845
12.9123
0.399472
12.7551
0.328873
12.6448
0.26084
12.5712
0.194487
12.5265
0.129179
12.5049
0.0644587
12.5022
0
12.5149
-0.0644325
12.5407
-0.129009
12.5775
-0.193852
12.624
-0.259051
12.6789
-0.324668
12.7412
-0.390749
12.8104
-0.457322
12.8856
-0.524404
12.9664
-0.592003
13.0525
-0.660121
13.1435