/*--------------------------------*- C++ -*----------------------------------*\
| =========                 |                                                 |
| \\      /  F ield         | OpenFOAM: The Open Source CFD Toolbox           |
|  \\    /   O peration     | Version:  2312                                  |
|   \\  /    A nd           | Website:  www.openfoam.com                      |
|    \\/     M anipulation  |                                                 |
\*---------------------------------------------------------------------------*/
FoamFile
{
    version     2.0;
    format      ascii;
    arch        "LSB;label=32;scalar=64";
    class       volVectorField;
    location    "2.2";
    object      flux;
}
// * * * * * * * * * * * * * * * * * * * * * * * * * * * * * * * * * * * * * //

dimensions      [0 1 -1 1 0 0 0];

internalField   nonuniform List<vector> 
100
(
(-6.55407 0 0)
(-6.42944 0 0)
(-6.29754 0 0)
(-6.15919 0 0)
(-6.01517 0 0)
(-5.86622 0 0)
(-5.71303 0 0)
(-5.55628 0 0)
(-5.39658 0 0)
(-5.23453 0 0)
(-5.07068 0 0)
(-4.90555 0 0)
(-4.73964 0 0)
(-4.57341 0 0)
(-4.40727 0 0)
(-4.24163 0 0)
(-4.07686 0 0)
(-3.9133 0 0)
(-3.75127 0 0)
(-3.59106 0 0)
(-3.43294 0 0)
(-3.27715 0 0)
(-3.12392 0 0)
(-2.97344 0 0)
(-2.82589 0 0)
(-2.68145 0 0)
(-2.54024 0 0)
(-2.4024 0 0)
(-2.26804 0 0)
(-2.13724 0 0)
(-2.0101 0 0)
(-1.88667 0 0)
(-1.767 0 0)
(-1.65114 0 0)
(-1.53912 0 0)
(-1.43094 0 0)
(-1.32662 0 0)
(-1.22616 0 0)
(-1.12955 0 0)
(-1.03676 0 0)
(-0.947762 0 0)
(-0.862534 0 0)
(-0.78103 0 0)
(-0.703205 0 0)
(-0.629008 0 0)
(-0.558381 0 0)
(-0.491266 0 0)
(-0.427598 0 0)
(-0.367308 0 0)
(-0.310327 0 0)
(-0.25658 0 0)
(-0.205993 0 0)
(-0.158486 0 0)
(-0.113982 0 0)
(-0.0723988 0 0)
(-0.0336552 0 0)
(0.00233145 0 0)
(0.035644 0 0)
(0.0663658 0 0)
(0.0945803 0 0)
(0.120371 0 0)
(0.14382 0 0)
(0.16501 0 0)
(0.184023 0 0)
(0.20094 0 0)
(0.215841 0 0)
(0.228806 0 0)
(0.239912 0 0)
(0.249236 0 0)
(0.256853 0 0)
(0.262838 0 0)
(0.267263 0 0)
(0.2702 0 0)
(0.271719 0 0)
(0.271887 0 0)
(0.270772 0 0)
(0.268439 0 0)
(0.264951 0 0)
(0.260372 0 0)
(0.254761 0 0)
(0.248177 0 0)
(0.240679 0 0)
(0.232323 0 0)
(0.223164 0 0)
(0.213255 0 0)
(0.202649 0 0)
(0.191397 0 0)
(0.179548 0 0)
(0.167152 0 0)
(0.154256 0 0)
(0.140907 0 0)
(0.127152 0 0)
(0.113034 0 0)
(0.0985988 0 0)
(0.0838898 0 0)
(0.06895 0 0)
(0.0538221 0 0)
(0.0385483 0 0)
(0.0231705 0 0)
(0.00773042 0 0)
)
;

boundaryField
{
    movingWall
    {
        type            calculated;
        value           uniform (-6.61447 0 0);
    }
    fixedWalls
    {
        type            calculated;
        value           nonuniform List<vector> 
201
(
(-6.55407 0 0)
(-6.42944 0 0)
(-6.29754 0 0)
(-6.15919 0 0)
(-6.01517 0 0)
(-5.86622 0 0)
(-5.71303 0 0)
(-5.55628 0 0)
(-5.39658 0 0)
(-5.23453 0 0)
(-5.07068 0 0)
(-4.90555 0 0)
(-4.73964 0 0)
(-4.57341 0 0)
(-4.40727 0 0)
(-4.24163 0 0)
(-4.07686 0 0)
(-3.9133 0 0)
(-3.75127 0 0)
(-3.59106 0 0)
(-3.43294 0 0)
(-3.27715 0 0)
(-3.12392 0 0)
(-2.97344 0 0)
(-2.82589 0 0)
(-2.68145 0 0)
(-2.54024 0 0)
(-2.4024 0 0)
(-2.26804 0 0)
(-2.13724 0 0)
(-2.0101 0 0)
(-1.88667 0 0)
(-1.767 0 0)
(-1.65114 0 0)
(-1.53912 0 0)
(-1.43094 0 0)
(-1.32662 0 0)
(-1.22616 0 0)
(-1.12955 0 0)
(-1.03676 0 0)
(-0.947762 0 0)
(-0.862534 0 0)
(-0.78103 0 0)
(-0.703205 0 0)
(-0.629008 0 0)
(-0.558381 0 0)
(-0.491266 0 0)
(-0.427598 0 0)
(-0.367308 0 0)
(-0.310327 0 0)
(-0.25658 0 0)
(-0.205993 0 0)
(-0.158486 0 0)
(-0.113982 0 0)
(-0.0723988 0 0)
(-0.0336552 0 0)
(0.00233145 0 0)
(0.035644 0 0)
(0.0663658 0 0)
(0.0945803 0 0)
(0.120371 0 0)
(0.14382 0 0)
(0.16501 0 0)
(0.184023 0 0)
(0.20094 0 0)
(0.215841 0 0)
(0.228806 0 0)
(0.239912 0 0)
(0.249236 0 0)
(0.256853 0 0)
(0.262838 0 0)
(0.267263 0 0)
(0.2702 0 0)
(0.271719 0 0)
(0.271887 0 0)
(0.270772 0 0)
(0.268439 0 0)
(0.264951 0 0)
(0.260372 0 0)
(0.254761 0 0)
(0.248177 0 0)
(0.240679 0 0)
(0.232323 0 0)
(0.223164 0 0)
(0.213255 0 0)
(0.202649 0 0)
(0.191397 0 0)
(0.179548 0 0)
(0.167152 0 0)
(0.154256 0 0)
(0.140907 0 0)
(0.127152 0 0)
(0.113034 0 0)
(0.0985988 0 0)
(0.0838898 0 0)
(0.06895 0 0)
(0.0538221 0 0)
(0.0385483 0 0)
(0.0231705 0 0)
(0.00773042 0 0)
(0 0 0)
(-6.55407 0 0)
(-6.42944 0 0)
(-6.29754 0 0)
(-6.15919 0 0)
(-6.01517 0 0)
(-5.86622 0 0)
(-5.71303 0 0)
(-5.55628 0 0)
(-5.39658 0 0)
(-5.23453 0 0)
(-5.07068 0 0)
(-4.90555 0 0)
(-4.73964 0 0)
(-4.57341 0 0)
(-4.40727 0 0)
(-4.24163 0 0)
(-4.07686 0 0)
(-3.9133 0 0)
(-3.75127 0 0)
(-3.59106 0 0)
(-3.43294 0 0)
(-3.27715 0 0)
(-3.12392 0 0)
(-2.97344 0 0)
(-2.82589 0 0)
(-2.68145 0 0)
(-2.54024 0 0)
(-2.4024 0 0)
(-2.26804 0 0)
(-2.13724 0 0)
(-2.0101 0 0)
(-1.88667 0 0)
(-1.767 0 0)
(-1.65114 0 0)
(-1.53912 0 0)
(-1.43094 0 0)
(-1.32662 0 0)
(-1.22616 0 0)
(-1.12955 0 0)
(-1.03676 0 0)
(-0.947762 0 0)
(-0.862534 0 0)
(-0.78103 0 0)
(-0.703205 0 0)
(-0.629008 0 0)
(-0.558381 0 0)
(-0.491266 0 0)
(-0.427598 0 0)
(-0.367308 0 0)
(-0.310327 0 0)
(-0.25658 0 0)
(-0.205993 0 0)
(-0.158486 0 0)
(-0.113982 0 0)
(-0.0723988 0 0)
(-0.0336552 0 0)
(0.00233145 0 0)
(0.035644 0 0)
(0.0663658 0 0)
(0.0945803 0 0)
(0.120371 0 0)
(0.14382 0 0)
(0.16501 0 0)
(0.184023 0 0)
(0.20094 0 0)
(0.215841 0 0)
(0.228806 0 0)
(0.239912 0 0)
(0.249236 0 0)
(0.256853 0 0)
(0.262838 0 0)
(0.267263 0 0)
(0.2702 0 0)
(0.271719 0 0)
(0.271887 0 0)
(0.270772 0 0)
(0.268439 0 0)
(0.264951 0 0)
(0.260372 0 0)
(0.254761 0 0)
(0.248177 0 0)
(0.240679 0 0)
(0.232323 0 0)
(0.223164 0 0)
(0.213255 0 0)
(0.202649 0 0)
(0.191397 0 0)
(0.179548 0 0)
(0.167152 0 0)
(0.154256 0 0)
(0.140907 0 0)
(0.127152 0 0)
(0.113034 0 0)
(0.0985988 0 0)
(0.0838898 0 0)
(0.06895 0 0)
(0.0538221 0 0)
(0.0385483 0 0)
(0.0231705 0 0)
(0.00773042 0 0)
)
;
    }
    frontAndBack
    {
        type            empty;
    }
}


// ************************************************************************* //
