/*--------------------------------*- C++ -*----------------------------------*\
| =========                 |                                                 |
| \\      /  F ield         | OpenFOAM: The Open Source CFD Toolbox           |
|  \\    /   O peration     | Version:  2312                                  |
|   \\  /    A nd           | Website:  www.openfoam.com                      |
|    \\/     M anipulation  |                                                 |
\*---------------------------------------------------------------------------*/
FoamFile
{
    version     2.0;
    format      ascii;
    arch        "LSB;label=32;scalar=64";
    class       volScalarField;
    location    "2.2";
    object      gradTx;
}
// * * * * * * * * * * * * * * * * * * * * * * * * * * * * * * * * * * * * * //

dimensions      [0 -1 0 1 0 0 0];

internalField   nonuniform List<scalar> 
100
(
-6.55407
-6.42944
-6.29754
-6.15919
-6.01517
-5.86622
-5.71303
-5.55628
-5.39658
-5.23453
-5.07068
-4.90555
-4.73964
-4.57341
-4.40727
-4.24163
-4.07686
-3.9133
-3.75127
-3.59106
-3.43294
-3.27715
-3.12392
-2.97344
-2.82589
-2.68145
-2.54024
-2.4024
-2.26804
-2.13724
-2.0101
-1.88667
-1.767
-1.65114
-1.53912
-1.43094
-1.32662
-1.22616
-1.12955
-1.03676
-0.947762
-0.862534
-0.78103
-0.703205
-0.629008
-0.558381
-0.491266
-0.427598
-0.367308
-0.310327
-0.25658
-0.205993
-0.158486
-0.113982
-0.0723988
-0.0336552
0.00233145
0.035644
0.0663658
0.0945803
0.120371
0.14382
0.16501
0.184023
0.20094
0.215841
0.228806
0.239912
0.249236
0.256853
0.262838
0.267263
0.2702
0.271719
0.271887
0.270772
0.268439
0.264951
0.260372
0.254761
0.248177
0.240679
0.232323
0.223164
0.213255
0.202649
0.191397
0.179548
0.167152
0.154256
0.140907
0.127152
0.113034
0.0985988
0.0838898
0.06895
0.0538221
0.0385483
0.0231705
0.00773042
)
;

boundaryField
{
    movingWall
    {
        type            calculated;
        value           uniform -6.61447;
    }
    fixedWalls
    {
        type            calculated;
        value           nonuniform List<scalar> 
201
(
-6.55407
-6.42944
-6.29754
-6.15919
-6.01517
-5.86622
-5.71303
-5.55628
-5.39658
-5.23453
-5.07068
-4.90555
-4.73964
-4.57341
-4.40727
-4.24163
-4.07686
-3.9133
-3.75127
-3.59106
-3.43294
-3.27715
-3.12392
-2.97344
-2.82589
-2.68145
-2.54024
-2.4024
-2.26804
-2.13724
-2.0101
-1.88667
-1.767
-1.65114
-1.53912
-1.43094
-1.32662
-1.22616
-1.12955
-1.03676
-0.947762
-0.862534
-0.78103
-0.703205
-0.629008
-0.558381
-0.491266
-0.427598
-0.367308
-0.310327
-0.25658
-0.205993
-0.158486
-0.113982
-0.0723988
-0.0336552
0.00233145
0.035644
0.0663658
0.0945803
0.120371
0.14382
0.16501
0.184023
0.20094
0.215841
0.228806
0.239912
0.249236
0.256853
0.262838
0.267263
0.2702
0.271719
0.271887
0.270772
0.268439
0.264951
0.260372
0.254761
0.248177
0.240679
0.232323
0.223164
0.213255
0.202649
0.191397
0.179548
0.167152
0.154256
0.140907
0.127152
0.113034
0.0985988
0.0838898
0.06895
0.0538221
0.0385483
0.0231705
0.00773042
0
-6.55407
-6.42944
-6.29754
-6.15919
-6.01517
-5.86622
-5.71303
-5.55628
-5.39658
-5.23453
-5.07068
-4.90555
-4.73964
-4.57341
-4.40727
-4.24163
-4.07686
-3.9133
-3.75127
-3.59106
-3.43294
-3.27715
-3.12392
-2.97344
-2.82589
-2.68145
-2.54024
-2.4024
-2.26804
-2.13724
-2.0101
-1.88667
-1.767
-1.65114
-1.53912
-1.43094
-1.32662
-1.22616
-1.12955
-1.03676
-0.947762
-0.862534
-0.78103
-0.703205
-0.629008
-0.558381
-0.491266
-0.427598
-0.367308
-0.310327
-0.25658
-0.205993
-0.158486
-0.113982
-0.0723988
-0.0336552
0.00233145
0.035644
0.0663658
0.0945803
0.120371
0.14382
0.16501
0.184023
0.20094
0.215841
0.228806
0.239912
0.249236
0.256853
0.262838
0.267263
0.2702
0.271719
0.271887
0.270772
0.268439
0.264951
0.260372
0.254761
0.248177
0.240679
0.232323
0.223164
0.213255
0.202649
0.191397
0.179548
0.167152
0.154256
0.140907
0.127152
0.113034
0.0985988
0.0838898
0.06895
0.0538221
0.0385483
0.0231705
0.00773042
)
;
    }
    frontAndBack
    {
        type            empty;
    }
}


// ************************************************************************* //
