/*--------------------------------*- C++ -*----------------------------------*\
| =========                 |                                                 |
| \\      /  F ield         | OpenFOAM: The Open Source CFD Toolbox           |
|  \\    /   O peration     | Version:  2312                                  |
|   \\  /    A nd           | Website:  www.openfoam.com                      |
|    \\/     M anipulation  |                                                 |
\*---------------------------------------------------------------------------*/
FoamFile
{
    version     2.0;
    format      ascii;
    arch        "LSB;label=32;scalar=64";
    class       volVectorField;
    location    "1.5";
    object      flux;
}
// * * * * * * * * * * * * * * * * * * * * * * * * * * * * * * * * * * * * * //

dimensions      [0 1 -1 1 0 0 0];

internalField   nonuniform List<vector> 
100
(
(5.24669 0 0)
(4.883 0 0)
(4.53258 0 0)
(4.19536 0 0)
(3.87125 0 0)
(3.56014 0 0)
(3.26189 0 0)
(2.97634 0 0)
(2.7033 0 0)
(2.44258 0 0)
(2.19395 0 0)
(1.9572 0 0)
(1.73207 0 0)
(1.51831 0 0)
(1.31565 0 0)
(1.12382 0 0)
(0.942545 0 0)
(0.771524 0 0)
(0.610469 0 0)
(0.459082 0 0)
(0.317061 0 0)
(0.184104 0 0)
(0.0599053 0 0)
(-0.0558388 0 0)
(-0.163433 0 0)
(-0.263182 0 0)
(-0.355386 0 0)
(-0.440346 0 0)
(-0.518358 0 0)
(-0.589715 0 0)
(-0.654705 0 0)
(-0.713615 0 0)
(-0.766724 0 0)
(-0.814307 0 0)
(-0.856633 0 0)
(-0.893966 0 0)
(-0.926563 0 0)
(-0.954675 0 0)
(-0.978548 0 0)
(-0.99842 0 0)
(-1.01452 0 0)
(-1.02708 0 0)
(-1.0363 0 0)
(-1.04241 0 0)
(-1.04561 0 0)
(-1.04608 0 0)
(-1.04403 0 0)
(-1.03963 0 0)
(-1.03305 0 0)
(-1.02447 0 0)
(-1.01405 0 0)
(-1.00193 0 0)
(-0.988267 0 0)
(-0.973198 0 0)
(-0.956857 0 0)
(-0.93937 0 0)
(-0.920856 0 0)
(-0.901429 0 0)
(-0.881196 0 0)
(-0.860258 0 0)
(-0.838711 0 0)
(-0.816642 0 0)
(-0.794136 0 0)
(-0.77127 0 0)
(-0.748117 0 0)
(-0.724743 0 0)
(-0.701212 0 0)
(-0.677579 0 0)
(-0.653897 0 0)
(-0.630214 0 0)
(-0.606573 0 0)
(-0.583013 0 0)
(-0.559567 0 0)
(-0.536268 0 0)
(-0.513142 0 0)
(-0.490212 0 0)
(-0.467497 0 0)
(-0.445014 0 0)
(-0.422776 0 0)
(-0.400793 0 0)
(-0.379071 0 0)
(-0.357616 0 0)
(-0.336429 0 0)
(-0.315509 0 0)
(-0.294853 0 0)
(-0.274456 0 0)
(-0.25431 0 0)
(-0.234407 0 0)
(-0.214735 0 0)
(-0.195281 0 0)
(-0.176032 0 0)
(-0.156972 0 0)
(-0.138084 0 0)
(-0.119351 0 0)
(-0.100755 0 0)
(-0.0822742 0 0)
(-0.0638901 0 0)
(-0.0455815 0 0)
(-0.0273272 0 0)
(-0.00910541 0 0)
)
;

boundaryField
{
    movingWall
    {
        type            calculated;
        value           uniform (5.43186 0 0);
    }
    fixedWalls
    {
        type            calculated;
        value           nonuniform List<vector> 
201
(
(5.24669 0 0)
(4.883 0 0)
(4.53258 0 0)
(4.19536 0 0)
(3.87125 0 0)
(3.56014 0 0)
(3.26189 0 0)
(2.97634 0 0)
(2.7033 0 0)
(2.44258 0 0)
(2.19395 0 0)
(1.9572 0 0)
(1.73207 0 0)
(1.51831 0 0)
(1.31565 0 0)
(1.12382 0 0)
(0.942545 0 0)
(0.771524 0 0)
(0.610469 0 0)
(0.459082 0 0)
(0.317061 0 0)
(0.184104 0 0)
(0.0599053 0 0)
(-0.0558388 0 0)
(-0.163433 0 0)
(-0.263182 0 0)
(-0.355386 0 0)
(-0.440346 0 0)
(-0.518358 0 0)
(-0.589715 0 0)
(-0.654705 0 0)
(-0.713615 0 0)
(-0.766724 0 0)
(-0.814307 0 0)
(-0.856633 0 0)
(-0.893966 0 0)
(-0.926563 0 0)
(-0.954675 0 0)
(-0.978548 0 0)
(-0.99842 0 0)
(-1.01452 0 0)
(-1.02708 0 0)
(-1.0363 0 0)
(-1.04241 0 0)
(-1.04561 0 0)
(-1.04608 0 0)
(-1.04403 0 0)
(-1.03963 0 0)
(-1.03305 0 0)
(-1.02447 0 0)
(-1.01405 0 0)
(-1.00193 0 0)
(-0.988267 0 0)
(-0.973198 0 0)
(-0.956857 0 0)
(-0.93937 0 0)
(-0.920856 0 0)
(-0.901429 0 0)
(-0.881196 0 0)
(-0.860258 0 0)
(-0.838711 0 0)
(-0.816642 0 0)
(-0.794136 0 0)
(-0.77127 0 0)
(-0.748117 0 0)
(-0.724743 0 0)
(-0.701212 0 0)
(-0.677579 0 0)
(-0.653897 0 0)
(-0.630214 0 0)
(-0.606573 0 0)
(-0.583013 0 0)
(-0.559567 0 0)
(-0.536268 0 0)
(-0.513142 0 0)
(-0.490212 0 0)
(-0.467497 0 0)
(-0.445014 0 0)
(-0.422776 0 0)
(-0.400793 0 0)
(-0.379071 0 0)
(-0.357616 0 0)
(-0.336429 0 0)
(-0.315509 0 0)
(-0.294853 0 0)
(-0.274456 0 0)
(-0.25431 0 0)
(-0.234407 0 0)
(-0.214735 0 0)
(-0.195281 0 0)
(-0.176032 0 0)
(-0.156972 0 0)
(-0.138084 0 0)
(-0.119351 0 0)
(-0.100755 0 0)
(-0.0822742 0 0)
(-0.0638901 0 0)
(-0.0455815 0 0)
(-0.0273272 0 0)
(-0.00910541 0 0)
(0 0 0)
(5.24669 0 0)
(4.883 0 0)
(4.53258 0 0)
(4.19536 0 0)
(3.87125 0 0)
(3.56014 0 0)
(3.26189 0 0)
(2.97634 0 0)
(2.7033 0 0)
(2.44258 0 0)
(2.19395 0 0)
(1.9572 0 0)
(1.73207 0 0)
(1.51831 0 0)
(1.31565 0 0)
(1.12382 0 0)
(0.942545 0 0)
(0.771524 0 0)
(0.610469 0 0)
(0.459082 0 0)
(0.317061 0 0)
(0.184104 0 0)
(0.0599053 0 0)
(-0.0558388 0 0)
(-0.163433 0 0)
(-0.263182 0 0)
(-0.355386 0 0)
(-0.440346 0 0)
(-0.518358 0 0)
(-0.589715 0 0)
(-0.654705 0 0)
(-0.713615 0 0)
(-0.766724 0 0)
(-0.814307 0 0)
(-0.856633 0 0)
(-0.893966 0 0)
(-0.926563 0 0)
(-0.954675 0 0)
(-0.978548 0 0)
(-0.99842 0 0)
(-1.01452 0 0)
(-1.02708 0 0)
(-1.0363 0 0)
(-1.04241 0 0)
(-1.04561 0 0)
(-1.04608 0 0)
(-1.04403 0 0)
(-1.03963 0 0)
(-1.03305 0 0)
(-1.02447 0 0)
(-1.01405 0 0)
(-1.00193 0 0)
(-0.988267 0 0)
(-0.973198 0 0)
(-0.956857 0 0)
(-0.93937 0 0)
(-0.920856 0 0)
(-0.901429 0 0)
(-0.881196 0 0)
(-0.860258 0 0)
(-0.838711 0 0)
(-0.816642 0 0)
(-0.794136 0 0)
(-0.77127 0 0)
(-0.748117 0 0)
(-0.724743 0 0)
(-0.701212 0 0)
(-0.677579 0 0)
(-0.653897 0 0)
(-0.630214 0 0)
(-0.606573 0 0)
(-0.583013 0 0)
(-0.559567 0 0)
(-0.536268 0 0)
(-0.513142 0 0)
(-0.490212 0 0)
(-0.467497 0 0)
(-0.445014 0 0)
(-0.422776 0 0)
(-0.400793 0 0)
(-0.379071 0 0)
(-0.357616 0 0)
(-0.336429 0 0)
(-0.315509 0 0)
(-0.294853 0 0)
(-0.274456 0 0)
(-0.25431 0 0)
(-0.234407 0 0)
(-0.214735 0 0)
(-0.195281 0 0)
(-0.176032 0 0)
(-0.156972 0 0)
(-0.138084 0 0)
(-0.119351 0 0)
(-0.100755 0 0)
(-0.0822742 0 0)
(-0.0638901 0 0)
(-0.0455815 0 0)
(-0.0273272 0 0)
(-0.00910541 0 0)
)
;
    }
    frontAndBack
    {
        type            empty;
    }
}


// ************************************************************************* //
