/*--------------------------------*- C++ -*----------------------------------*\
| =========                 |                                                 |
| \\      /  F ield         | OpenFOAM: The Open Source CFD Toolbox           |
|  \\    /   O peration     | Version:  2312                                  |
|   \\  /    A nd           | Website:  www.openfoam.com                      |
|    \\/     M anipulation  |                                                 |
\*---------------------------------------------------------------------------*/
FoamFile
{
    version     2.0;
    format      ascii;
    arch        "LSB;label=32;scalar=64";
    class       volScalarField;
    location    "1.5";
    object      gradTx;
}
// * * * * * * * * * * * * * * * * * * * * * * * * * * * * * * * * * * * * * //

dimensions      [0 -1 0 1 0 0 0];

internalField   nonuniform List<scalar> 
100
(
5.24669
4.883
4.53258
4.19536
3.87125
3.56014
3.26189
2.97634
2.7033
2.44258
2.19395
1.9572
1.73207
1.51831
1.31565
1.12382
0.942545
0.771524
0.610469
0.459082
0.317061
0.184104
0.0599053
-0.0558388
-0.163433
-0.263182
-0.355386
-0.440346
-0.518358
-0.589715
-0.654705
-0.713615
-0.766724
-0.814307
-0.856633
-0.893966
-0.926563
-0.954675
-0.978548
-0.99842
-1.01452
-1.02708
-1.0363
-1.04241
-1.04561
-1.04608
-1.04403
-1.03963
-1.03305
-1.02447
-1.01405
-1.00193
-0.988267
-0.973198
-0.956857
-0.93937
-0.920856
-0.901429
-0.881196
-0.860258
-0.838711
-0.816642
-0.794136
-0.77127
-0.748117
-0.724743
-0.701212
-0.677579
-0.653897
-0.630214
-0.606573
-0.583013
-0.559567
-0.536268
-0.513142
-0.490212
-0.467497
-0.445014
-0.422776
-0.400793
-0.379071
-0.357616
-0.336429
-0.315509
-0.294853
-0.274456
-0.25431
-0.234407
-0.214735
-0.195281
-0.176032
-0.156972
-0.138084
-0.119351
-0.100755
-0.0822742
-0.0638901
-0.0455815
-0.0273272
-0.00910541
)
;

boundaryField
{
    movingWall
    {
        type            calculated;
        value           uniform 5.43186;
    }
    fixedWalls
    {
        type            calculated;
        value           nonuniform List<scalar> 
201
(
5.24669
4.883
4.53258
4.19536
3.87125
3.56014
3.26189
2.97634
2.7033
2.44258
2.19395
1.9572
1.73207
1.51831
1.31565
1.12382
0.942545
0.771524
0.610469
0.459082
0.317061
0.184104
0.0599053
-0.0558388
-0.163433
-0.263182
-0.355386
-0.440346
-0.518358
-0.589715
-0.654705
-0.713615
-0.766724
-0.814307
-0.856633
-0.893966
-0.926563
-0.954675
-0.978548
-0.99842
-1.01452
-1.02708
-1.0363
-1.04241
-1.04561
-1.04608
-1.04403
-1.03963
-1.03305
-1.02447
-1.01405
-1.00193
-0.988267
-0.973198
-0.956857
-0.93937
-0.920856
-0.901429
-0.881196
-0.860258
-0.838711
-0.816642
-0.794136
-0.77127
-0.748117
-0.724743
-0.701212
-0.677579
-0.653897
-0.630214
-0.606573
-0.583013
-0.559567
-0.536268
-0.513142
-0.490212
-0.467497
-0.445014
-0.422776
-0.400793
-0.379071
-0.357616
-0.336429
-0.315509
-0.294853
-0.274456
-0.25431
-0.234407
-0.214735
-0.195281
-0.176032
-0.156972
-0.138084
-0.119351
-0.100755
-0.0822742
-0.0638901
-0.0455815
-0.0273272
-0.00910541
0
5.24669
4.883
4.53258
4.19536
3.87125
3.56014
3.26189
2.97634
2.7033
2.44258
2.19395
1.9572
1.73207
1.51831
1.31565
1.12382
0.942545
0.771524
0.610469
0.459082
0.317061
0.184104
0.0599053
-0.0558388
-0.163433
-0.263182
-0.355386
-0.440346
-0.518358
-0.589715
-0.654705
-0.713615
-0.766724
-0.814307
-0.856633
-0.893966
-0.926563
-0.954675
-0.978548
-0.99842
-1.01452
-1.02708
-1.0363
-1.04241
-1.04561
-1.04608
-1.04403
-1.03963
-1.03305
-1.02447
-1.01405
-1.00193
-0.988267
-0.973198
-0.956857
-0.93937
-0.920856
-0.901429
-0.881196
-0.860258
-0.838711
-0.816642
-0.794136
-0.77127
-0.748117
-0.724743
-0.701212
-0.677579
-0.653897
-0.630214
-0.606573
-0.583013
-0.559567
-0.536268
-0.513142
-0.490212
-0.467497
-0.445014
-0.422776
-0.400793
-0.379071
-0.357616
-0.336429
-0.315509
-0.294853
-0.274456
-0.25431
-0.234407
-0.214735
-0.195281
-0.176032
-0.156972
-0.138084
-0.119351
-0.100755
-0.0822742
-0.0638901
-0.0455815
-0.0273272
-0.00910541
)
;
    }
    frontAndBack
    {
        type            empty;
    }
}


// ************************************************************************* //
