/*--------------------------------*- C++ -*----------------------------------*\
| =========                 |                                                 |
| \\      /  F ield         | OpenFOAM: The Open Source CFD Toolbox           |
|  \\    /   O peration     | Version:  2312                                  |
|   \\  /    A nd           | Website:  www.openfoam.com                      |
|    \\/     M anipulation  |                                                 |
\*---------------------------------------------------------------------------*/
FoamFile
{
    version     2.0;
    format      ascii;
    arch        "LSB;label=32;scalar=64";
    class       volVectorField;
    location    "0.9";
    object      flux;
}
// * * * * * * * * * * * * * * * * * * * * * * * * * * * * * * * * * * * * * //

dimensions      [0 1 -1 1 0 0 0];

internalField   nonuniform List<vector> 
100
(
(-0.856153 0 0)
(-0.569593 0 0)
(-0.300897 0 0)
(-0.0494948 0 0)
(0.185185 0 0)
(0.403714 0 0)
(0.606666 0 0)
(0.794613 0 0)
(0.968123 0 0)
(1.12776 0 0)
(1.27409 0 0)
(1.40766 0 0)
(1.52901 0 0)
(1.6387 0 0)
(1.73725 0 0)
(1.82518 0 0)
(1.903 0 0)
(1.97122 0 0)
(2.03032 0 0)
(2.08079 0 0)
(2.12309 0 0)
(2.15767 0 0)
(2.18499 0 0)
(2.20547 0 0)
(2.21953 0 0)
(2.22757 0 0)
(2.22998 0 0)
(2.22715 0 0)
(2.21944 0 0)
(2.20721 0 0)
(2.19078 0 0)
(2.1705 0 0)
(2.14667 0 0)
(2.11959 0 0)
(2.08955 0 0)
(2.05683 0 0)
(2.0217 0 0)
(1.9844 0 0)
(1.94517 0 0)
(1.90424 0 0)
(1.86183 0 0)
(1.81815 0 0)
(1.77338 0 0)
(1.72771 0 0)
(1.68132 0 0)
(1.63437 0 0)
(1.587 0 0)
(1.53938 0 0)
(1.49162 0 0)
(1.44386 0 0)
(1.39621 0 0)
(1.34878 0 0)
(1.30167 0 0)
(1.25497 0 0)
(1.20877 0 0)
(1.16315 0 0)
(1.11817 0 0)
(1.0739 0 0)
(1.03039 0 0)
(0.987704 0 0)
(0.945878 0 0)
(0.904953 0 0)
(0.864963 0 0)
(0.825937 0 0)
(0.787897 0 0)
(0.750863 0 0)
(0.714848 0 0)
(0.679864 0 0)
(0.645916 0 0)
(0.613005 0 0)
(0.581131 0 0)
(0.550288 0 0)
(0.520467 0 0)
(0.491657 0 0)
(0.463844 0 0)
(0.437009 0 0)
(0.411134 0 0)
(0.386196 0 0)
(0.362169 0 0)
(0.339027 0 0)
(0.316742 0 0)
(0.295282 0 0)
(0.274615 0 0)
(0.254706 0 0)
(0.23552 0 0)
(0.217019 0 0)
(0.199165 0 0)
(0.181919 0 0)
(0.16524 0 0)
(0.149085 0 0)
(0.133412 0 0)
(0.118178 0 0)
(0.103339 0 0)
(0.0888485 0 0)
(0.0746623 0 0)
(0.060734 0 0)
(0.0470175 0 0)
(0.0334659 0 0)
(0.0200323 0 0)
(0.00666954 0 0)
)
;

boundaryField
{
    movingWall
    {
        type            calculated;
        value           uniform (-1.00397 0 0);
    }
    fixedWalls
    {
        type            calculated;
        value           nonuniform List<vector> 
201
(
(-0.856153 0 0)
(-0.569593 0 0)
(-0.300897 0 0)
(-0.0494948 0 0)
(0.185185 0 0)
(0.403714 0 0)
(0.606666 0 0)
(0.794613 0 0)
(0.968123 0 0)
(1.12776 0 0)
(1.27409 0 0)
(1.40766 0 0)
(1.52901 0 0)
(1.6387 0 0)
(1.73725 0 0)
(1.82518 0 0)
(1.903 0 0)
(1.97122 0 0)
(2.03032 0 0)
(2.08079 0 0)
(2.12309 0 0)
(2.15767 0 0)
(2.18499 0 0)
(2.20547 0 0)
(2.21953 0 0)
(2.22757 0 0)
(2.22998 0 0)
(2.22715 0 0)
(2.21944 0 0)
(2.20721 0 0)
(2.19078 0 0)
(2.1705 0 0)
(2.14667 0 0)
(2.11959 0 0)
(2.08955 0 0)
(2.05683 0 0)
(2.0217 0 0)
(1.9844 0 0)
(1.94517 0 0)
(1.90424 0 0)
(1.86183 0 0)
(1.81815 0 0)
(1.77338 0 0)
(1.72771 0 0)
(1.68132 0 0)
(1.63437 0 0)
(1.587 0 0)
(1.53938 0 0)
(1.49162 0 0)
(1.44386 0 0)
(1.39621 0 0)
(1.34878 0 0)
(1.30167 0 0)
(1.25497 0 0)
(1.20877 0 0)
(1.16315 0 0)
(1.11817 0 0)
(1.0739 0 0)
(1.03039 0 0)
(0.987704 0 0)
(0.945878 0 0)
(0.904953 0 0)
(0.864963 0 0)
(0.825937 0 0)
(0.787897 0 0)
(0.750863 0 0)
(0.714848 0 0)
(0.679864 0 0)
(0.645916 0 0)
(0.613005 0 0)
(0.581131 0 0)
(0.550288 0 0)
(0.520467 0 0)
(0.491657 0 0)
(0.463844 0 0)
(0.437009 0 0)
(0.411134 0 0)
(0.386196 0 0)
(0.362169 0 0)
(0.339027 0 0)
(0.316742 0 0)
(0.295282 0 0)
(0.274615 0 0)
(0.254706 0 0)
(0.23552 0 0)
(0.217019 0 0)
(0.199165 0 0)
(0.181919 0 0)
(0.16524 0 0)
(0.149085 0 0)
(0.133412 0 0)
(0.118178 0 0)
(0.103339 0 0)
(0.0888485 0 0)
(0.0746623 0 0)
(0.060734 0 0)
(0.0470175 0 0)
(0.0334659 0 0)
(0.0200323 0 0)
(0.00666954 0 0)
(0 0 0)
(-0.856153 0 0)
(-0.569593 0 0)
(-0.300897 0 0)
(-0.0494948 0 0)
(0.185185 0 0)
(0.403714 0 0)
(0.606666 0 0)
(0.794613 0 0)
(0.968123 0 0)
(1.12776 0 0)
(1.27409 0 0)
(1.40766 0 0)
(1.52901 0 0)
(1.6387 0 0)
(1.73725 0 0)
(1.82518 0 0)
(1.903 0 0)
(1.97122 0 0)
(2.03032 0 0)
(2.08079 0 0)
(2.12309 0 0)
(2.15767 0 0)
(2.18499 0 0)
(2.20547 0 0)
(2.21953 0 0)
(2.22757 0 0)
(2.22998 0 0)
(2.22715 0 0)
(2.21944 0 0)
(2.20721 0 0)
(2.19078 0 0)
(2.1705 0 0)
(2.14667 0 0)
(2.11959 0 0)
(2.08955 0 0)
(2.05683 0 0)
(2.0217 0 0)
(1.9844 0 0)
(1.94517 0 0)
(1.90424 0 0)
(1.86183 0 0)
(1.81815 0 0)
(1.77338 0 0)
(1.72771 0 0)
(1.68132 0 0)
(1.63437 0 0)
(1.587 0 0)
(1.53938 0 0)
(1.49162 0 0)
(1.44386 0 0)
(1.39621 0 0)
(1.34878 0 0)
(1.30167 0 0)
(1.25497 0 0)
(1.20877 0 0)
(1.16315 0 0)
(1.11817 0 0)
(1.0739 0 0)
(1.03039 0 0)
(0.987704 0 0)
(0.945878 0 0)
(0.904953 0 0)
(0.864963 0 0)
(0.825937 0 0)
(0.787897 0 0)
(0.750863 0 0)
(0.714848 0 0)
(0.679864 0 0)
(0.645916 0 0)
(0.613005 0 0)
(0.581131 0 0)
(0.550288 0 0)
(0.520467 0 0)
(0.491657 0 0)
(0.463844 0 0)
(0.437009 0 0)
(0.411134 0 0)
(0.386196 0 0)
(0.362169 0 0)
(0.339027 0 0)
(0.316742 0 0)
(0.295282 0 0)
(0.274615 0 0)
(0.254706 0 0)
(0.23552 0 0)
(0.217019 0 0)
(0.199165 0 0)
(0.181919 0 0)
(0.16524 0 0)
(0.149085 0 0)
(0.133412 0 0)
(0.118178 0 0)
(0.103339 0 0)
(0.0888485 0 0)
(0.0746623 0 0)
(0.060734 0 0)
(0.0470175 0 0)
(0.0334659 0 0)
(0.0200323 0 0)
(0.00666954 0 0)
)
;
    }
    frontAndBack
    {
        type            empty;
    }
}


// ************************************************************************* //
