/*--------------------------------*- C++ -*----------------------------------*\
| =========                 |                                                 |
| \\      /  F ield         | OpenFOAM: The Open Source CFD Toolbox           |
|  \\    /   O peration     | Version:  2312                                  |
|   \\  /    A nd           | Website:  www.openfoam.com                      |
|    \\/     M anipulation  |                                                 |
\*---------------------------------------------------------------------------*/
FoamFile
{
    version     2.0;
    format      ascii;
    arch        "LSB;label=32;scalar=64";
    class       volScalarField;
    location    "0.9";
    object      gradTx;
}
// * * * * * * * * * * * * * * * * * * * * * * * * * * * * * * * * * * * * * //

dimensions      [0 -1 0 1 0 0 0];

internalField   nonuniform List<scalar> 
100
(
-0.856153
-0.569593
-0.300897
-0.0494948
0.185185
0.403714
0.606666
0.794613
0.968123
1.12776
1.27409
1.40766
1.52901
1.6387
1.73725
1.82518
1.903
1.97122
2.03032
2.08079
2.12309
2.15767
2.18499
2.20547
2.21953
2.22757
2.22998
2.22715
2.21944
2.20721
2.19078
2.1705
2.14667
2.11959
2.08955
2.05683
2.0217
1.9844
1.94517
1.90424
1.86183
1.81815
1.77338
1.72771
1.68132
1.63437
1.587
1.53938
1.49162
1.44386
1.39621
1.34878
1.30167
1.25497
1.20877
1.16315
1.11817
1.0739
1.03039
0.987704
0.945878
0.904953
0.864963
0.825937
0.787897
0.750863
0.714848
0.679864
0.645916
0.613005
0.581131
0.550288
0.520467
0.491657
0.463844
0.437009
0.411134
0.386196
0.362169
0.339027
0.316742
0.295282
0.274615
0.254706
0.23552
0.217019
0.199165
0.181919
0.16524
0.149085
0.133412
0.118178
0.103339
0.0888485
0.0746623
0.060734
0.0470175
0.0334659
0.0200323
0.00666954
)
;

boundaryField
{
    movingWall
    {
        type            calculated;
        value           uniform -1.00397;
    }
    fixedWalls
    {
        type            calculated;
        value           nonuniform List<scalar> 
201
(
-0.856153
-0.569593
-0.300897
-0.0494948
0.185185
0.403714
0.606666
0.794613
0.968123
1.12776
1.27409
1.40766
1.52901
1.6387
1.73725
1.82518
1.903
1.97122
2.03032
2.08079
2.12309
2.15767
2.18499
2.20547
2.21953
2.22757
2.22998
2.22715
2.21944
2.20721
2.19078
2.1705
2.14667
2.11959
2.08955
2.05683
2.0217
1.9844
1.94517
1.90424
1.86183
1.81815
1.77338
1.72771
1.68132
1.63437
1.587
1.53938
1.49162
1.44386
1.39621
1.34878
1.30167
1.25497
1.20877
1.16315
1.11817
1.0739
1.03039
0.987704
0.945878
0.904953
0.864963
0.825937
0.787897
0.750863
0.714848
0.679864
0.645916
0.613005
0.581131
0.550288
0.520467
0.491657
0.463844
0.437009
0.411134
0.386196
0.362169
0.339027
0.316742
0.295282
0.274615
0.254706
0.23552
0.217019
0.199165
0.181919
0.16524
0.149085
0.133412
0.118178
0.103339
0.0888485
0.0746623
0.060734
0.0470175
0.0334659
0.0200323
0.00666954
0
-0.856153
-0.569593
-0.300897
-0.0494948
0.185185
0.403714
0.606666
0.794613
0.968123
1.12776
1.27409
1.40766
1.52901
1.6387
1.73725
1.82518
1.903
1.97122
2.03032
2.08079
2.12309
2.15767
2.18499
2.20547
2.21953
2.22757
2.22998
2.22715
2.21944
2.20721
2.19078
2.1705
2.14667
2.11959
2.08955
2.05683
2.0217
1.9844
1.94517
1.90424
1.86183
1.81815
1.77338
1.72771
1.68132
1.63437
1.587
1.53938
1.49162
1.44386
1.39621
1.34878
1.30167
1.25497
1.20877
1.16315
1.11817
1.0739
1.03039
0.987704
0.945878
0.904953
0.864963
0.825937
0.787897
0.750863
0.714848
0.679864
0.645916
0.613005
0.581131
0.550288
0.520467
0.491657
0.463844
0.437009
0.411134
0.386196
0.362169
0.339027
0.316742
0.295282
0.274615
0.254706
0.23552
0.217019
0.199165
0.181919
0.16524
0.149085
0.133412
0.118178
0.103339
0.0888485
0.0746623
0.060734
0.0470175
0.0334659
0.0200323
0.00666954
)
;
    }
    frontAndBack
    {
        type            empty;
    }
}


// ************************************************************************* //
