/*--------------------------------*- C++ -*----------------------------------*\
| =========                 |                                                 |
| \\      /  F ield         | OpenFOAM: The Open Source CFD Toolbox           |
|  \\    /   O peration     | Version:  2312                                  |
|   \\  /    A nd           | Website:  www.openfoam.com                      |
|    \\/     M anipulation  |                                                 |
\*---------------------------------------------------------------------------*/
FoamFile
{
    version     2.0;
    format      ascii;
    arch        "LSB;label=32;scalar=64";
    class       surfaceScalarField;
    location    "0.722";
    object      phi;
}
// * * * * * * * * * * * * * * * * * * * * * * * * * * * * * * * * * * * * * //

dimensions      [0 3 -1 0 0 0 0];

oriented        oriented;

internalField   nonuniform List<scalar> 
62015
(
85.6134
0.167023
-85.4683
85.7484
0.164165
85.8736
0.161196
85.9893
0.158118
86.096
0.154936
86.1939
0.15165
86.2833
0.148263
86.3646
0.144779
86.438
0.141201
86.5037
0.13753
86.5621
0.133769
86.6133
0.129923
86.6575
0.125993
86.6949
0.121982
86.7258
0.117893
86.7501
0.11373
86.7681
0.109495
86.78
0.105192
86.7857
0.100824
86.7854
0.0963931
86.7792
0.0919039
86.7671
0.0873586
86.7492
0.0827611
86.7254
0.0781148
86.6959
0.0734226
86.6606
0.0686885
86.6194
0.0639154
86.5724
0.0591074
86.5194
0.0542677
86.4604
0.0493999
86.3953
0.0445073
86.3239
0.0395943
86.2461
0.0346646
86.1618
0.029721
86.0707
0.0247686
85.9727
0.0198099
85.8674
0.01485
85.7546
0.00989253
85.6339
0.00494083
85.5051
0
85.3677
-0.00492628
85.2213
-0.00983427
85.0654
-0.0147186
84.8996
-0.0195758
84.7231
-0.0244014
84.5354
-0.0291899
84.3357
-0.033938
84.1232
-0.0386395
83.8971
-0.0432904
83.6563
-0.0478857
83.3997
-0.0524194
83.1261
-0.0568861
82.8339
-0.0612804
82.5217
-0.0655963
82.1874
-0.0698268
81.8291
-0.0739657
81.4443
-0.078005
81.0297
-0.0819372
80.5809
-0.0857529
80.0962
-0.0894411
79.5763
-0.0929934
79.0067
-0.0964045
78.3342
-0.0996498
77.5466
-0.102652
76.8939
-0.105377
76.7208
-0.108156
75.9678
-0.111517
70.8954
-0.113983
59.3221
-0.10974
46.0308
-0.0946275
37.2557
-0.0754458
33.5403
-0.0625588
32.4231
-0.0576493
32.2491
-0.057026
32.3809
-0.058001
32.6199
-0.0594946
32.8858
-0.0611837
33.2081
-0.062866
-0.0647838
33.4269
83.3483
0.33026
-83.2298
83.4582
0.324525
83.5595
0.318577
83.6526
0.312423
83.7378
0.306066
83.8154
0.299511
83.8856
0.292765
83.9488
0.285831
84.005
0.278715
84.0547
0.271422
84.0979
0.263958
84.1349
0.256329
84.1658
0.248538
84.1908
0.240593
84.21
0.232499
84.2236
0.224262
84.2317
0.215887
84.2344
0.207381
84.2319
0.198749
84.224
0.189997
84.2111
0.181133
84.193
0.172161
84.1699
0.163089
84.1417
0.153923
84.1084
0.144669
84.0701
0.135334
84.0268
0.125924
83.9783
0.116447
83.9247
0.106909
83.8658
0.0973166
83.8015
0.0876772
83.7319
0.0779981
83.6566
0.0682857
83.5756
0.0585484
83.4887
0.0487923
83.3957
0.0390254
83.2964
0.0292551
83.1905
0.0194888
83.0778
0.00973456
82.9579
0
82.8305
-0.00970701
82.6952
-0.0193784
82.5516
-0.0290063
82.3993
-0.0385821
82.2377
-0.0480972
82.0662
-0.0575434
81.8843
-0.0669111
81.6913
-0.0761925
81.4863
-0.0853772
81.2685
-0.0944563
81.037
-0.103419
80.7908
-0.112257
80.5285
-0.120957
80.2489
-0.129511
79.9503
-0.137904
79.6311
-0.146125
79.2893
-0.154162
78.9226
-0.161999
78.5277
-0.169621
78.1008
-0.177011
77.6401
-0.184147
77.1468
-0.191013
76.6065
-0.1976
75.9671
-0.203859
75.2176
-0.209632
74.6059
-0.214854
74.474
-0.220215
73.7972
-0.226807
68.9254
-0.231637
57.6957
-0.222878
44.7483
-0.192017
36.1857
-0.152851
32.5592
-0.12649
31.4686
-0.11637
31.2946
-0.114971
31.4221
-0.116791
31.6374
-0.11971
31.9248
-0.122847
-0.126493
32.1268
81.1338
0.489732
-81.0394
81.2208
0.48111
81.3004
0.472183
81.3728
0.462959
81.4385
0.453444
81.4975
0.443645
81.5502
0.433569
81.5967
0.423224
81.6373
0.412616
81.6721
0.401755
81.7014
0.390646
81.7253
0.379299
81.7439
0.36772
81.7575
0.355918
81.766
0.343902
81.7697
0.331678
81.7687
0.319257
81.7629
0.306646
81.7526
0.293854
81.7378
0.28089
81.7185
0.267762
81.6949
0.25448
81.6668
0.241054
81.6344
0.227491
81.5976
0.213802
81.5564
0.199995
81.5109
0.186081
81.4609
0.17207
81.4065
0.15797
81.3475
0.143793
81.2839
0.129547
81.2155
0.115244
81.1423
0.100894
81.0642
0.0865064
80.9809
0.072092
80.8923
0.0576621
80.7981
0.0432271
80.6983
0.0287973
80.5925
0.0143847
80.4804
0
80.3618
-0.0143454
80.2362
-0.02864
80.1035
-0.0428725
79.9631
-0.0570303
79.8145
-0.0711018
79.6574
-0.085075
79.4912
-0.0989367
79.3152
-0.112675
79.1288
-0.126276
78.9313
-0.139726
78.7218
-0.153012
78.4995
-0.16612
78.2633
-0.179034
78.012
-0.191739
77.7445
-0.204219
77.4593
-0.216457
77.1546
-0.228436
76.8286
-0.240134
76.4792
-0.251534
76.1032
-0.262611
75.6971
-0.273341
75.2594
-0.283692
74.7913
-0.293642
74.2788
-0.303179
73.6713
-0.312229
72.9586
-0.320555
72.383
-0.328059
72.2831
-0.335803
71.6724
-0.345466
66.995
-0.352558
56.1069
-0.339156
43.5018
-0.292205
35.1485
-0.232397
31.6091
-0.191865
30.5426
-0.176115
30.3733
-0.173704
30.4824
-0.176299
30.7182
-0.180328
-0.185411
30.8985
78.962
0.64542
-78.889
79.0285
0.633914
79.0887
0.622019
79.1427
0.609742
79.1909
0.597093
79.2333
0.584081
79.2703
0.570714
79.3019
0.557003
79.3285
0.542955
79.3501
0.528581
79.3669
0.513892
79.379
0.498895
79.3867
0.483602
79.3899
0.468024
79.3889
0.452169
79.3837
0.436049
79.3744
0.419676
79.3611
0.403059
79.3439
0.38621
79.3228
0.369139
79.2979
0.35186
79.2692
0.334382
79.2367
0.316718
79.2005
0.29888
79.1606
0.280879
79.1169
0.262728
79.0694
0.244439
79.0181
0.226025
78.963
0.207498
78.904
0.188871
78.8409
0.170156
78.7738
0.151368
78.7026
0.132518
78.627
0.113621
78.5469
0.0946893
78.4623
0.0757372
78.3729
0.056778
78.2785
0.0378262
78.179
0.0188954
78.074
0
77.9633
-0.0188455
77.8466
-0.0376266
77.7235
-0.0563284
77.5938
-0.0749352
77.4571
-0.0934334
77.3128
-0.111806
77.1606
-0.130037
76.9999
-0.148111
76.8301
-0.166012
76.6507
-0.183722
76.4608
-0.201224
76.2598
-0.218501
76.0467
-0.235533
75.8206
-0.252303
75.5805
-0.268789
75.3251
-0.284972
75.0529
-0.300829
74.7625
-0.316338
74.4522
-0.331473
74.1198
-0.346209
73.7624
-0.360517
73.3767
-0.374363
72.9613
-0.387708
72.5177
-0.400525
72.0325
-0.412798
71.4568
-0.424434
70.7797
-0.435113
70.2353
-0.444708
70.1612
-0.454626
69.6299
-0.467168
65.1964
-0.476534
54.6899
-0.45893
42.402
-0.39631
34.2003
-0.315295
30.708
-0.259339
29.6546
-0.237022
29.4723
-0.233259
29.601
-0.236168
-0.241943
29.745
76.8305
0.79731
-76.7765
76.8789
0.782934
76.9219
0.76809
76.9596
0.752787
76.9923
0.737037
77.02
0.720851
77.0431
0.704238
77.0616
0.68721
77.0757
0.669779
77.0856
0.651955
77.0913
0.63375
77.0931
0.615177
77.091
0.596247
77.0852
0.576972
77.0757
0.557366
77.0627
0.537441
77.0462
0.51721
77.0262
0.496686
77.0029
0.475882
76.9763
0.454812
76.9465
0.43349
76.9134
0.41193
76.8771
0.390144
76.8377
0.36815
76.795
0.345959
76.7492
0.323588
76.7002
0.30105
76.6479
0.278362
76.5923
0.255537
76.5334
0.232592
76.471
0.209542
76.4052
0.186402
76.3358
0.163188
76.2627
0.139918
76.1858
0.116605
76.1049
0.0932675
76.0199
0.0699218
75.9306
0.0465838
75.8368
0.0232707
75.7384
0
75.6349
-0.0232113
75.5263
-0.046346
75.4123
-0.0693861
75.2924
-0.0923132
75.1664
-0.11511
75.0338
-0.137758
74.8944
-0.160237
74.7475
-0.182529
74.5928
-0.204615
74.4297
-0.226475
74.2575
-0.248087
74.0756
-0.269432
73.8833
-0.290488
73.6798
-0.311232
73.4641
-0.331642
73.2352
-0.351694
72.992
-0.371363
72.7331
-0.390623
72.4572
-0.409445
72.1624
-0.427801
71.8471
-0.445659
71.5083
-0.462985
71.1429
-0.479737
70.7497
-0.495871
70.3303
-0.51135
69.8727
-0.526163
69.33
-0.540197
68.688
-0.553062
68.1659
-0.564573
68.106
-0.576422
67.6877
-0.591581
63.6176
-0.603497
53.5979
-0.583122
41.5864
-0.506348
33.4113
-0.403598
29.8847
-0.330011
28.7984
-0.299539
28.6259
-0.293363
-0.297097
28.686
74.7393
0.945401
-74.702
74.7719
0.928177
74.7997
0.910412
74.823
0.892118
74.842
0.873307
74.8569
0.853991
74.8676
0.834182
74.8746
0.813894
74.8777
0.793139
74.8773
0.77193
74.8733
0.75028
74.866
0.728205
74.8554
0.705716
74.8416
0.68283
74.8247
0.659559
74.8048
0.63592
74.782
0.611926
74.7562
0.587593
74.7277
0.562937
74.6963
0.537973
74.6622
0.512717
74.6254
0.487185
74.5859
0.461393
74.5437
0.435358
74.4988
0.409097
74.4513
0.382627
74.401
0.355964
74.348
0.329126
74.2922
0.302131
74.2336
0.274996
74.172
0.24774
74.1076
0.220379
74.0401
0.192934
73.9694
0.165421
73.8955
0.13786
73.8182
0.11027
73.7374
0.0826696
73.6529
0.0550783
73.5645
0.027515
73.4721
0
73.3755
-0.0274471
73.2744
-0.0548064
73.1686
-0.0820571
73.0577
-0.109179
72.9416
-0.136151
72.8198
-0.162953
72.692
-0.189562
72.5578
-0.215957
72.4168
-0.242116
72.2685
-0.268016
72.1124
-0.293634
71.9479
-0.318947
71.7744
-0.343931
71.5911
-0.368561
71.3974
-0.39281
71.1923
-0.416654
70.9748
-0.440063
70.744
-0.46301
70.4986
-0.485465
70.2372
-0.507395
69.9582
-0.528766
69.6599
-0.549542
69.3399
-0.569685
68.9948
-0.589147
68.6237
-0.607875
68.2283
-0.62583
67.7985
-0.642998
67.2906
-0.659261
66.684
-0.674172
66.1744
-0.687452
66.113
-0.700953
65.8387
-0.718377
62.2707
-0.733306
52.8829
-0.71256
41.1194
-0.624483
32.8267
-0.499764
29.1448
-0.405554
28.0044
-0.363946
-0.354647
27.8115
72.6893
1.08971
-72.6667
72.7078
1.06967
72.7224
1.04902
72.7331
1.02777
72.7401
1.00594
72.7435
0.983546
72.7436
0.960597
72.7403
0.937107
72.7339
0.913092
72.7244
0.888566
72.7119
0.863544
72.6966
0.838043
72.6785
0.812076
72.6578
0.785662
72.6345
0.758815
72.6086
0.731552
72.5803
0.703891
72.5496
0.675848
72.5165
0.64744
72.481
0.618686
72.4433
0.589603
72.4034
0.56021
72.3612
0.530523
72.3167
0.500563
72.27
0.470348
72.2211
0.439897
72.1699
0.409229
72.1165
0.378364
72.0607
0.347322
72.0025
0.316122
71.942
0.284785
71.8789
0.253332
71.8133
0.221781
71.7451
0.190155
71.6741
0.158475
71.6002
0.12676
71.5234
0.0950344
71.4434
0.0633176
71.3602
0.0316323
71.2735
0
71.1832
-0.0315568
71.089
-0.0630152
70.9909
-0.0943533
70.8884
-0.125547
70.7813
-0.156575
70.6694
-0.187412
70.5523
-0.218035
70.4297
-0.24842
70.3012
-0.278542
70.1665
-0.308376
70.0249
-0.337897
69.8762
-0.367079
69.7196
-0.395896
69.5547
-0.42432
69.3807
-0.452324
69.1969
-0.479879
69.0026
-0.506956
68.7968
-0.533523
68.5786
-0.559549
68.3467
-0.585
68.0999
-0.60984
67.8367
-0.634031
67.5556
-0.657534
67.2542
-0.680304
66.9296
-0.702292
66.5804
-0.723435
66.2086
-0.74369
65.8068
-0.763042
65.3351
-0.781382
64.7649
-0.798224
64.2603
-0.813158
64.1784
-0.828018
64.0602
-0.847242
61.118
-0.86562
52.5348
-0.847639
41.0381
-0.752574
32.4757
-0.606746
28.5084
-0.48801
-0.429976
27.4783
70.6812
1.23026
-70.6715
70.6875
1.20743
70.6904
1.18394
70.69
1.15978
70.6865
1.13499
70.68
1.10957
70.6706
1.08354
70.6584
1.05691
70.6436
1.0297
70.6262
1.00193
70.6063
0.973606
70.5841
0.944757
70.5595
0.915394
70.5328
0.885536
70.5038
0.855201
70.4728
0.824407
70.4398
0.793173
70.4048
0.761516
70.3678
0.729458
70.3289
0.697016
70.2882
0.664212
70.2455
0.631064
70.2011
0.597593
70.1548
0.563819
70.1067
0.529764
70.0568
0.495449
70.005
0.460894
69.9513
0.426121
69.8958
0.391151
69.8382
0.356008
69.7787
0.320714
69.7172
0.285289
69.6535
0.249758
69.5876
0.214143
69.5195
0.178468
69.4489
0.142754
69.3758
0.107027
69.3002
0.0713094
69.2217
0.0356257
69.1404
0
69.056
-0.0355434
68.9683
-0.07098
68.8772
-0.106285
68.7825
-0.141433
68.6838
-0.176399
68.581
-0.211156
68.4737
-0.245681
68.3617
-0.279944
68.2447
-0.313921
68.1223
-0.347584
67.994
-0.380907
67.8595
-0.413859
67.7183
-0.446415
67.57
-0.478544
67.4138
-0.510216
67.2493
-0.541402
67.0757
-0.57207
66.8923
-0.602187
66.6982
-0.63172
66.4926
-0.660633
66.2742
-0.688891
66.042
-0.716453
65.7947
-0.743279
65.5306
-0.769326
65.2478
-0.794546
64.9435
-0.818885
64.6161
-0.842277
64.2675
-0.864668
63.8931
-0.886047
63.4585
-0.90632
62.927
-0.924998
62.424
-0.941508
62.3009
-0.957466
62.3235
-0.977902
60.0895
-0.9999
52.5073
-0.988044
41.367
-0.891859
32.3239
-0.728676
-0.571278
28.9585
68.7158
1.36708
-68.7174
68.7114
1.34152
68.7041
1.31522
68.694
1.28821
68.6813
1.2605
68.666
1.23212
68.6484
1.20306
68.6285
1.17336
68.6063
1.14302
68.582
1.11208
68.5557
1.08053
68.5275
1.04842
68.4973
1.01574
68.4653
0.982522
68.4316
0.948786
68.3962
0.914552
68.3591
0.879837
68.3204
0.844665
68.2801
0.809054
68.2384
0.773027
68.1951
0.736604
68.1503
0.699807
68.104
0.66266
68.0563
0.625183
68.0071
0.587399
67.9565
0.549332
67.9043
0.511004
67.8507
0.472439
67.7955
0.43366
67.7388
0.394691
67.6804
0.355557
67.6204
0.316283
67.5586
0.276891
67.4951
0.237408
67.4297
0.197858
67.3623
0.158266
67.2928
0.118659
67.2212
0.0790616
67.1473
0.0394998
67.071
0
66.9921
-0.0394115
66.9104
-0.0787083
66.8259
-0.117863
66.7383
-0.156849
66.6473
-0.195639
66.5529
-0.234206
66.4546
-0.27252
66.3524
-0.310555
66.2458
-0.348282
66.1346
-0.385671
66.0185
-0.422694
65.897
-0.459321
65.7697
-0.495521
65.6363
-0.531265
65.4963
-0.56652
65.3491
-0.601254
65.1941
-0.635435
65.0307
-0.669029
64.8583
-0.702001
64.6759
-0.734315
64.4828
-0.765933
64.278
-0.796815
64.0604
-0.826921
63.8286
-0.856207
63.5815
-0.884625
63.3171
-0.912127
63.0329
-0.938655
62.727
-0.964138
62.4011
-0.988516
62.0534
-1.01177
61.6557
-1.03385
61.1659
-1.05427
60.666
-1.07233
60.4838
-1.08919
60.6032
-1.11017
59.0931
-1.13558
52.7664
-1.13172
41.7486
-1.04859
-0.835139
35.2315
66.7936
1.50023
-66.8051
66.7798
1.47197
66.7635
1.44292
66.745
1.41311
66.7242
1.38254
66.7014
1.35125
66.6766
1.31923
66.6499
1.28652
66.6214
1.25313
66.5912
1.21908
66.5593
1.1844
66.5259
1.14909
66.4909
1.11318
66.4544
1.07669
66.4166
1.03964
66.3774
1.00205
66.3369
0.963953
66.2951
0.925359
66.2521
0.886293
66.2079
0.84678
66.1625
0.806841
66.1159
0.766499
66.0683
0.72578
66.0194
0.684706
65.9695
0.643303
65.9184
0.601594
65.8661
0.559605
65.8126
0.51736
65.758
0.474886
65.7021
0.432207
65.645
0.389349
65.5865
0.34634
65.5267
0.303205
65.4655
0.25997
65.4027
0.216663
65.3384
0.173311
65.2724
0.129941
65.2046
0.0865807
65.1349
0.0432575
65.0633
0
64.9895
-0.0431639
64.9135
-0.0862063
64.8351
-0.129098
64.754
-0.17181
64.6702
-0.214314
64.5835
-0.256579
64.4935
-0.298577
64.4002
-0.340277
64.3032
-0.38165
64.2022
-0.422664
64.0971
-0.46329
63.9874
-0.503495
63.8728
-0.543247
63.753
-0.582516
63.6275
-0.621267
63.4958
-0.659467
63.3576
-0.697083
63.2122
-0.73408
63.059
-0.77042
62.8975
-0.806069
62.7268
-0.840986
62.5463
-0.875134
62.3548
-0.908469
62.1516
-0.940948
61.9353
-0.972526
61.7048
-1.00315
61.4585
-1.03278
61.1941
-1.06134
60.9094
-1.08877
60.6057
-1.115
60.2833
-1.14
59.9215
-1.16374
59.4763
-1.18582
58.9858
-1.20544
58.7401
-1.22301
58.8496
-1.24466
58.239
-1.26853
52.2029
-1.29303
-1.15474
46.5846
64.9148
1.62975
-64.9348
64.8928
1.59884
64.8688
1.5671
64.8429
1.53453
64.8152
1.50117
64.7858
1.46703
64.7548
1.43212
64.7223
1.39647
64.6883
1.36009
64.6529
1.32302
64.6162
1.28526
64.5783
1.24684
64.5391
1.20778
64.4989
1.1681
64.4575
1.12783
64.4151
1.08698
64.3718
1.04559
64.3274
1.00366
64.2821
0.961239
64.2359
0.918337
64.1889
0.874981
64.1409
0.831197
64.0921
0.787009
64.0425
0.742444
63.992
0.697526
63.9407
0.652284
63.8885
0.606742
63.8354
0.560927
63.7815
0.514867
63.7266
0.468589
63.6707
0.422121
63.6138
0.375489
63.5559
0.328724
63.4969
0.281852
63.4367
0.234902
63.3753
0.187903
63.3126
0.140884
63.2484
0.0938741
63.1828
0.0469029
63.1155
0
63.0466
-0.0468047
62.9757
-0.0934813
62.903
-0.139999
62.828
-0.186328
62.7508
-0.232437
62.6711
-0.278295
62.5888
-0.323872
62.5036
-0.369135
62.4154
-0.414053
62.3238
-0.458593
62.2287
-0.502724
62.1298
-0.546413
62.0267
-0.589626
61.9191
-0.63233
61.8067
-0.674492
61.6891
-0.716076
61.5659
-0.757047
61.4366
-0.79737
61.3008
-0.837008
61.1578
-0.875923
61.0071
-0.914076
60.848
-0.951428
60.6798
-0.987937
60.5016
-1.02356
60.3124
-1.05825
60.1114
-1.09196
59.8973
-1.12464
59.6687
-1.15624
59.4236
-1.1867
59.1598
-1.21593
58.8777
-1.24388
58.579
-1.2705
58.2517
-1.29576
57.8486
-1.3195
57.4009
-1.34028
56.9892
-1.36048
57.4428
-1.37483
56.1502
-1.42275
-1.39125
54.2982
63.0795
1.7557
-63.107
63.0504
1.72219
63.0197
1.6878
62.9874
1.65255
62.9537
1.61645
62.9186
1.57952
62.8823
1.54178
62.8447
1.50326
62.806
1.46398
62.7662
1.42395
62.7254
1.3832
62.6837
1.34174
62.6411
1.29961
62.5976
1.25683
62.5533
1.21342
62.5082
1.1694
62.4624
1.1248
62.416
1.07964
62.3688
1.03395
62.321
0.987758
62.2726
0.941083
62.2236
0.893955
62.174
0.8464
62.1239
0.798445
62.0731
0.750118
62.0217
0.701446
61.9698
0.652457
61.9172
0.603179
61.864
0.553642
61.8102
0.503873
61.7557
0.453903
61.7004
0.403759
61.6444
0.353473
61.5876
0.303073
61.5299
0.25259
61.4713
0.202055
61.4116
0.151497
61.3509
0.100948
61.289
0.0504387
61.2259
0
61.1614
-0.0503366
61.0955
-0.100539
61.0279
-0.150576
60.9586
-0.200416
60.8875
-0.250026
60.8143
-0.299374
60.739
-0.348426
60.6613
-0.397151
60.5811
-0.445515
60.4981
-0.493485
60.4121
-0.541027
60.3229
-0.588106
60.2302
-0.63469
60.1338
-0.680742
60.0333
-0.726229
59.9284
-0.771114
59.8187
-0.815361
59.7039
-0.858934
59.5836
-0.901796
59.4572
-0.943907
59.3242
-0.98523
59.1842
-1.02572
59.0365
-1.06535
58.8804
-1.10406
58.7152
-1.14181
58.5399
-1.17856
58.3538
-1.21425
58.1556
-1.24884
57.9443
-1.28227
57.718
-1.31448
57.4748
-1.3454
57.2134
-1.37495
56.9392
-1.40303
56.6334
-1.42989
56.3102
-1.4544
55.7865
-1.47903
55.612
-1.49348
55.403
-1.52443
-1.53632
55.1328
61.2877
1.87813
-61.3217
61.2525
1.84208
61.2159
1.80511
61.1782
1.76722
61.1393
1.72844
61.0993
1.6888
61.0584
1.6483
61.0166
1.60698
60.9738
1.56485
60.9303
1.52194
60.8861
1.47827
60.8411
1.43387
60.7955
1.38875
60.7493
1.34295
60.7026
1.29648
60.6553
1.24938
60.6076
1.20166
60.5594
1.15336
60.5107
1.1045
60.4617
1.0551
60.4123
1.00521
60.3625
0.95483
60.3124
0.904006
60.2619
0.852762
60.211
0.801125
60.1599
0.749125
60.1083
0.696792
60.0564
0.644155
60.0041
0.591245
59.9513
0.538091
59.8982
0.484724
59.8445
0.431175
59.7904
0.377474
59.7357
0.323654
59.6804
0.269746
59.6244
0.215781
59.5678
0.161792
59.5103
0.10781
59.452
0.0538685
59.3927
0
59.3324
-0.0537629
59.271
-0.107387
59.2083
-0.16084
59.1442
-0.214087
59.0787
-0.267096
59.0116
-0.319832
58.9427
-0.372261
58.8718
-0.42435
58.7989
-0.476064
58.7237
-0.527367
58.6461
-0.578227
58.5658
-0.628606
58.4825
-0.678471
58.3962
-0.727785
58.3064
-0.776512
58.213
-0.824616
58.1155
-0.87206
58.0137
-0.918806
57.9072
-0.964817
57.7957
-1.01005
57.6786
-1.05448
57.5556
-1.09805
57.4261
-1.14072
57.2896
-1.18246
57.1454
-1.22322
56.9928
-1.26295
56.8311
-1.30161
56.6594
-1.33914
56.4768
-1.3755
56.2821
-1.41062
56.0743
-1.44446
55.8501
-1.47695
55.6127
-1.50792
55.3496
-1.53763
55.0987
-1.56511
54.7552
-1.59276
54.3852
-1.61476
54.0465
-1.63839
-1.65594
53.892
59.5392
1.99711
-59.5787
59.4987
1.95858
59.4572
1.91907
59.4148
1.87861
59.3714
1.83722
59.3273
1.79492
59.2825
1.75174
59.237
1.70768
59.1909
1.66279
59.1442
1.61707
59.097
1.57056
59.0494
1.52328
59.0013
1.47526
58.9529
1.42652
58.9042
1.37708
58.8551
1.32697
58.8058
1.27623
58.7562
1.22487
58.7064
1.17293
58.6565
1.12043
58.6063
1.0674
58.556
1.01388
58.5056
0.959879
58.455
0.905441
58.4043
0.850593
58.3534
0.795366
58.3024
0.739789
58.2512
0.683894
58.1998
0.627712
58.1482
0.571275
58.0965
0.514614
58.0444
0.457762
57.9921
0.400751
57.9395
0.343614
57.8865
0.286384
57.8331
0.229094
57.7793
0.171776
57.7249
0.114466
57.6699
0.0571956
57.6143
0
57.5579
-0.0570871
57.5006
-0.114031
57.4424
-0.170798
57.3832
-0.227353
57.3229
-0.283661
57.2613
-0.339688
57.1983
-0.395396
57.1338
-0.450754
57.0675
-0.505722
56.9995
-0.560268
56.9294
-0.614354
56.8572
-0.667944
56.7826
-0.721002
56.7054
-0.773491
56.6253
-0.825376
56.5422
-0.876617
56.4557
-0.927178
56.3657
-0.977021
56.2717
-1.02611
56.1734
-1.0744
56.0705
-1.12185
55.9626
-1.16843
55.8493
-1.2141
55.7301
-1.2588
55.6044
-1.30251
55.4718
-1.34516
55.3316
-1.38673
55.183
-1.42716
55.0254
-1.46639
54.8577
-1.50438
54.6796
-1.54107
54.4883
-1.57643
54.2859
-1.61029
54.0625
-1.64283
53.8326
-1.6734
53.5851
-1.70301
53.3065
-1.73014
52.9379
-1.75657
-1.77528
52.7506
57.8338
2.11271
-57.8781
57.7888
2.07175
57.743
2.02977
57.6966
1.9868
57.6495
1.94286
57.6019
1.89798
57.5538
1.85216
57.5052
1.80545
57.4563
1.75786
57.407
1.70941
57.3574
1.66014
57.3075
1.61006
57.2574
1.55921
57.2072
1.5076
57.1568
1.45528
57.1063
1.40226
57.0558
1.34857
57.0052
1.29425
56.9546
1.23931
56.9039
1.1838
56.8533
1.12773
56.8027
1.07114
56.7522
1.01407
56.7016
0.956532
56.6512
0.898569
56.6007
0.84021
56.5503
0.781486
56.5
0.722431
56.4496
0.663076
56.3993
0.603455
56.3489
0.543601
56.2985
0.483546
56.248
0.423325
56.1974
0.362972
56.1466
0.30252
56.0957
0.242005
56.0445
0.181461
55.993
0.120921
55.9412
0.0604229
55.8889
0
55.8362
-0.0603119
55.7829
-0.120477
55.7289
-0.18046
55.6742
-0.240225
55.6186
-0.299737
55.5621
-0.358958
55.5045
-0.417852
55.4457
-0.476384
55.3857
-0.534516
55.3241
-0.592213
55.261
-0.649435
55.1961
-0.706149
55.1293
-0.762314
55.0604
-0.817895
54.9891
-0.872854
54.9153
-0.927152
54.8388
-0.980752
54.7593
-1.03361
54.6765
-1.0857
54.5901
-1.13697
54.4999
-1.18739
54.4055
-1.23691
54.3066
-1.2855
54.2027
-1.33311
54.0935
-1.3797
53.9785
-1.42522
53.8571
-1.46964
53.7288
-1.5129
53.593
-1.55496
53.4489
-1.59577
53.296
-1.63526
53.1328
-1.67342
52.9596
-1.71011
52.7733
-1.7454
52.5734
-1.77901
52.3573
-1.81117
52.1461
-1.84115
51.8487
-1.87126
-1.89325
51.6921
56.171
2.225
-56.2193
56.1222
2.18166
56.0729
2.13727
56.0231
2.09186
55.9729
2.04543
55.9223
1.99802
55.8714
1.94965
55.8203
1.90034
55.769
1.85013
55.7175
1.79902
55.666
1.74706
55.6143
1.69426
55.5626
1.64066
55.511
1.58628
55.4593
1.53115
55.4078
1.47529
55.3563
1.41875
55.3049
1.36154
55.2537
1.3037
55.2027
1.24526
55.1518
1.18624
55.1011
1.12669
55.0506
1.06662
55.0003
1.00608
54.9502
0.945095
54.9004
0.883698
54.8507
0.821924
54.8012
0.759803
54.7519
0.697371
54.7028
0.634663
54.6539
0.571711
54.6051
0.508551
54.5563
0.445218
54.5077
0.381745
54.4591
0.31817
54.4105
0.254528
54.3618
0.190853
54.3131
0.127183
54.2642
0.0635534
54.2151
0
54.1658
-0.0634404
54.1161
-0.126731
54.066
-0.189835
54.0155
-0.252716
53.9643
-0.315336
53.9125
-0.377659
53.8599
-0.439647
53.8064
-0.501263
53.752
-0.562469
53.6964
-0.623227
53.6396
-0.6835
53.5814
-0.74325
53.5217
-0.802439
53.4603
-0.861029
53.397
-0.91898
53.3316
-0.976256
53.264
-1.03282
53.194
-1.08862
53.1212
-1.14364
53.0456
-1.19782
52.9667
-1.25113
52.8844
-1.30352
52.7983
-1.35496
52.7081
-1.40541
52.6134
-1.45482
52.5139
-1.50315
52.4092
-1.55036
52.2986
-1.5964
52.1819
-1.64122
52.0583
-1.68479
51.9274
-1.72704
51.7883
-1.76793
51.6404
-1.80739
51.4825
-1.8454
51.3153
-1.88182
51.1294
-1.91682
50.9495
-1.94949
50.7065
-1.98237
-2.00781
50.5863
54.5505
2.33404
-54.6022
54.4985
2.28839
54.4462
2.24165
54.3936
2.19385
54.3408
2.145
54.2877
2.09513
54.2346
2.04427
54.1814
1.99244
54.1282
1.93967
54.075
1.88598
54.0218
1.8314
53.9688
1.77596
53.9158
1.71968
53.863
1.6626
53.8104
1.60475
53.7581
1.54614
53.7059
1.48682
53.6541
1.42681
53.6025
1.36615
53.5512
1.30487
53.5003
1.24299
53.4497
1.18055
53.3994
1.11759
53.3495
1.05413
53.3
0.990215
53.2507
0.925872
53.2019
0.861138
53.1534
0.796045
53.1052
0.73063
53.0574
0.664927
53.0098
0.598972
52.9626
0.532801
52.9156
0.466449
52.8688
0.399953
52.8223
0.333349
52.7759
0.266674
52.7297
0.199964
52.6836
0.133257
52.6375
0.0665901
52.5914
0
52.5452
-0.0664754
52.4989
-0.132798
52.4525
-0.198931
52.4057
-0.264836
52.3587
-0.330474
52.3112
-0.395809
52.2632
-0.460801
52.2146
-0.525411
52.1653
-0.589603
52.1151
-0.653338
52.0641
-0.716576
52.012
-0.779278
51.9587
-0.841408
51.9041
-0.902925
51.848
-0.963789
51.7903
-1.02396
51.7308
-1.08341
51.6693
-1.14208
51.6056
-1.19995
51.5395
-1.25697
51.4708
-1.3131
51.3992
-1.3683
51.3246
-1.42253
51.2465
-1.47575
51.1648
-1.52792
51.079
-1.57899
50.9889
-1.62893
50.894
-1.67768
50.794
-1.72521
50.6884
-1.77147
50.5766
-1.81642
50.4582
-1.85999
50.3326
-1.90214
50.1984
-1.94284
50.0575
-1.98195
49.9017
-2.01968
49.7494
-2.05516
49.5437
-2.09065
-2.11918
49.4478
52.9717
2.4399
-53.0262
52.9171
2.392
52.8623
2.34297
52.8074
2.29284
52.7524
2.24164
52.6974
2.18938
52.6425
2.1361
52.5876
2.08181
52.5328
2.02656
52.4783
1.97035
52.4239
1.91323
52.3697
1.85522
52.3158
1.79635
52.2622
1.73664
52.209
1.67614
52.156
1.61486
52.1035
1.55285
52.0514
1.49012
51.9996
1.42672
51.9484
1.36268
51.8975
1.29802
51.8471
1.23279
51.7972
1.16702
51.7478
1.10073
51.6989
1.03397
51.6504
0.96677
51.6024
0.899165
51.5549
0.83119
51.5079
0.762882
51.4613
0.694275
51.4152
0.625409
51.3695
0.556318
51.3242
0.487039
51.2793
0.417611
51.2347
0.348069
51.1905
0.278454
51.1466
0.208801
51.1029
0.139148
51.0594
0.0695356
51.0161
0
50.9729
-0.0694196
50.9298
-0.138684
50.8867
-0.207756
50.8435
-0.276595
50.8002
-0.345164
50.7567
-0.413421
50.7129
-0.48133
50.6688
-0.548851
50.6242
-0.615943
50.5791
-0.682569
50.5333
-0.748688
50.4867
-0.814262
50.4393
-0.87925
50.3908
-0.943614
50.3413
-1.00731
50.2905
-1.07031
50.2382
-1.13256
50.1844
-1.19403
50.1289
-1.25468
50.0714
-1.31446
50.0118
-1.37334
49.9499
-1.43128
49.8854
-1.48823
49.8182
-1.54416
49.7479
-1.59902
49.6743
-1.65277
49.5972
-1.70537
49.5161
-1.75679
49.4308
-1.80696
49.3408
-1.85586
49.2459
-1.90343
49.1453
-1.94963
49.039
-1.9944
48.9257
-2.03773
48.8067
-2.07948
48.6757
-2.11983
48.5487
-2.15801
48.3752
-2.19613
-2.2276
48.299
51.4341
2.54267
-51.4909
51.3773
2.49257
51.3205
2.44131
51.2637
2.38892
51.207
2.33542
51.1505
2.28084
51.0941
2.2252
51.0379
2.16853
50.982
2.11085
50.9263
2.05221
50.871
1.99261
50.8161
1.93211
50.7615
1.87071
50.7074
1.80846
50.6537
1.74538
50.6004
1.68151
50.5477
1.61688
50.4955
1.55152
50.4438
1.48546
50.3927
1.41874
50.3421
1.3514
50.2921
1.28345
50.2426
1.21495
50.1938
1.14592
50.1456
1.0764
50.0979
1.00643
50.0509
0.936041
50.0044
0.865272
49.9586
0.794157
49.9133
0.722737
49.8685
0.651046
49.8244
0.579124
49.7807
0.507008
49.7376
0.434736
49.6949
0.362347
49.6527
0.289879
49.611
0.217371
49.5696
0.144863
49.5286
0.0723926
49.488
0
49.4476
-0.0722757
49.4074
-0.144395
49.3674
-0.216318
49.3275
-0.288005
49.2877
-0.359417
49.2479
-0.430513
49.208
-0.501254
49.1679
-0.5716
49.1276
-0.64151
49.087
-0.710945
49.046
-0.779864
49.0045
-0.848228
48.9624
-0.915997
48.9196
-0.98313
48.8759
-1.04959
48.8313
-1.11533
48.7857
-1.18031
48.7388
-1.2445
48.6905
-1.30786
48.6408
-1.37033
48.5893
-1.4319
48.536
-1.4925
48.4807
-1.5521
48.4231
-1.61067
48.363
-1.66816
48.3003
-1.72453
48.2346
-1.77974
48.1657
-1.83374
48.0933
-1.8865
48.0171
-1.93797
47.9368
-1.98811
47.852
-2.03687
47.7624
-2.08421
47.6671
-2.1301
47.5672
-2.17441
47.4572
-2.21733
47.3514
-2.25812
47.2055
-2.29877
-2.33309
47.1462
49.937
2.64241
-49.9957
49.8785
2.59017
49.8201
2.53675
49.7618
2.48215
49.7038
2.42642
49.646
2.36958
49.5885
2.31164
49.5314
2.25265
49.4746
2.19263
49.4182
2.13161
49.3623
2.06962
49.3068
2.00669
49.2518
1.94284
49.1973
1.87812
49.1434
1.81254
49.0901
1.74616
49.0373
1.67899
48.9852
1.61107
48.9337
1.54243
48.8828
1.47312
48.8326
1.40315
48.7831
1.33258
48.7343
1.26143
48.6861
1.18974
48.6387
1.11755
48.5919
1.04489
48.5458
0.971802
48.5004
0.898321
48.4557
0.824487
48.4117
0.750337
48.3684
0.675908
48.3257
0.601241
48.2837
0.526373
48.2423
0.451344
48.2014
0.376193
48.1612
0.30096
48.1215
0.225684
48.0824
0.150406
48.0437
0.0751642
48.0055
0
47.9677
-0.0750465
47.9303
-0.149935
47.8932
-0.224625
47.8563
-0.299076
47.8197
-0.373248
47.7833
-0.447099
47.747
-0.52059
47.7106
-0.593679
47.6743
-0.666326
47.6379
-0.73849
47.6012
-0.81013
47.5643
-0.881206
47.527
-0.951677
47.4893
-1.0215
47.451
-1.09064
47.412
-1.15905
47.3723
-1.2267
47.3317
-1.29354
47.29
-1.35953
47.2472
-1.42463
47.203
-1.4888
47.1575
-1.552
47.1102
-1.61419
47.0612
-1.67534
47.0103
-1.73539
46.9571
-1.79431
46.9016
-1.85206
46.8435
-1.90859
46.7825
-1.96387
46.7184
-2.01785
46.651
-2.07049
46.5798
-2.12176
46.5048
-2.17159
46.4251
-2.21997
46.3417
-2.26679
46.2499
-2.3122
46.1622
-2.35553
46.0398
-2.39864
-2.4357
45.9946
48.4798
2.7392
-48.5399
48.4199
2.68488
48.3603
2.62934
48.3009
2.57261
48.2419
2.51471
48.1832
2.45566
48.1249
2.39551
48.0671
2.33426
48.0097
2.27196
47.9528
2.20863
47.8965
2.14431
47.8407
2.07902
47.7855
2.0128
47.7309
1.94567
47.677
1.87768
47.6237
1.80885
47.5711
1.73921
47.5192
1.66881
47.4681
1.59768
47.4176
1.52584
47.3679
1.45334
47.319
1.38022
47.2708
1.3065
47.2234
1.23223
47.1768
1.15745
47.1309
1.08218
47.0859
1.00648
47.0416
0.930371
46.9981
0.853899
46.9554
0.777101
46.9134
0.700019
46.8722
0.622689
46.8317
0.545154
46.7919
0.467451
46.7529
0.389623
46.7145
0.311708
46.6768
0.233748
46.6397
0.155782
46.6033
0.0778526
46.5674
0
46.532
-0.0777346
46.4971
-0.15531
46.4627
-0.232685
46.4287
-0.309818
46.3951
-0.386668
46.3617
-0.463194
46.3287
-0.539354
46.2958
-0.615107
46.2631
-0.690412
46.2304
-0.765227
46.1978
-0.83951
46.1651
-0.913221
46.1322
-0.986319
46.099
-1.05876
46.0656
-1.13051
46.0317
-1.20152
45.9973
-1.27175
45.9623
-1.34117
45.9266
-1.40972
45.89
-1.47738
45.8524
-1.54409
45.8137
-1.60983
45.7738
-1.67454
45.7324
-1.73819
45.6895
-1.80074
45.6449
-1.86215
45.5984
-1.92237
45.5498
-1.98137
45.4989
-2.03911
45.4455
-2.09554
45.3894
-2.15062
45.3302
-2.20432
45.2679
-2.25659
45.2018
-2.3074
45.1328
-2.35665
45.0567
-2.40449
44.9846
-2.45028
44.8822
-2.49578
-2.53548
44.849
47.0617
2.83311
-47.1229
47.0008
2.77677
46.9403
2.71918
46.8801
2.66036
46.8204
2.60035
46.7611
2.53917
46.7023
2.47685
46.644
2.41342
46.5863
2.3489
46.5292
2.28334
46.4727
2.21675
46.4168
2.14918
46.3616
2.08065
46.3071
2.01119
46.2533
1.94085
46.2002
1.86964
46.1479
1.79762
46.0964
1.72481
46.0457
1.65125
45.9958
1.57697
45.9467
1.50201
45.8984
1.42642
45.8509
1.35021
45.8044
1.27344
45.7586
1.19614
45.7138
1.11835
45.6697
1.04011
45.6266
0.961449
45.5843
0.88242
45.5428
0.803057
45.5022
0.7234
45.4624
0.64349
45.4234
0.563368
45.3853
0.483073
45.3479
0.402648
45.3113
0.322132
45.2755
0.241568
45.2404
0.160997
45.2059
0.0804602
45.1722
0
45.1391
-0.0803421
45.1066
-0.160524
45.0747
-0.240504
45.0433
-0.32024
45.0125
-0.39969
44.982
-0.478812
44.952
-0.557564
44.9223