/*--------------------------------*- C++ -*----------------------------------*\
| =========                 |                                                 |
| \\      /  F ield         | OpenFOAM: The Open Source CFD Toolbox           |
|  \\    /   O peration     | Version:  2312                                  |
|   \\  /    A nd           | Website:  www.openfoam.com                      |
|    \\/     M anipulation  |                                                 |
\*---------------------------------------------------------------------------*/
FoamFile
{
    version     2.0;
    format      ascii;
    arch        "LSB;label=32;scalar=64";
    class       volVectorField;
    location    "0.412";
    object      U;
}
// * * * * * * * * * * * * * * * * * * * * * * * * * * * * * * * * * * * * * //

dimensions      [0 1 -1 0 0 0 0];

internalField   nonuniform List<vector> 
31205
(
(226.126 0 0)
(223.552 0 0)
(220.899 0 0)
(218.159 0 0)
(215.329 0 0)
(212.402 0 0)
(209.372 0 0)
(206.23 0 0)
(202.969 0 0)
(199.577 0 0)
(196.043 0 0)
(192.354 0 0)
(188.494 0 0)
(184.445 0 0)
(180.184 0 0)
(175.687 0 0)
(170.923 0 0)
(165.857 0 0)
(160.45 0 0)
(154.664 0 0)
(148.483 0 0)
(141.95 0 0)
(135.217 0 0)
(128.561 0 0)
(122.337 0 0)
(116.875 0 0)
(112.377 0 0)
(108.891 0 0)
(106.344 0 0)
(104.599 0 0)
(103.503 0 0)
(102.917 0 0)
(102.726 0 0)
(102.84 0 0)
(103.189 0 0)
(103.722 0 0)
(104.398 0 0)
(105.189 0 0)
(106.071 0 0)
(107.026 0 0)
(108.04 0 0)
(109.104 0 0)
(110.207 0 0)
(111.343 0 0)
(112.507 0 0)
(113.693 0 0)
(114.899 0 0)
(116.119 0 0)
(117.353 0 0)
(118.597 0 0)
(119.85 0 0)
(121.11 0 0)
(122.376 0 0)
(123.646 0 0)
(124.92 0 0)
(126.196 0 0)
(127.473 0 0)
(128.752 0 0)
(130.031 0 0)
(131.31 0 0)
(132.588 0 0)
(133.866 0 0)
(135.141 0 0)
(136.415 0 0)
(137.688 0 0)
(138.957 0 0)
(140.225 0 0)
(141.489 0 0)
(142.751 0 0)
(144.009 0 0)
(145.265 0 0)
(146.517 0 0)
(147.766 0 0)
(149.009 0 0)
(150.255 0 0)
(151.478 0 0)
(152.757 0 0)
(153.85 0 0)
(155.496 0 0)
(223.799 0 0)
(221.224 0 0)
(218.57 0 0)
(215.83 0 0)
(212.999 0 0)
(210.071 0 0)
(207.038 0 0)
(203.894 0 0)
(200.629 0 0)
(197.233 0 0)
(193.694 0 0)
(189.997 0 0)
(186.128 0 0)
(182.066 0 0)
(177.791 0 0)
(173.275 0 0)
(168.489 0 0)
(163.397 0 0)
(157.963 0 0)
(152.155 0 0)
(145.975 0 0)
(139.493 0 0)
(132.893 0 0)
(126.471 0 0)
(120.568 0 0)
(115.467 0 0)
(111.32 0 0)
(108.14 0 0)
(105.836 0 0)
(104.269 0 0)
(103.299 0 0)
(102.796 0 0)
(102.656 0 0)
(102.797 0 0)
(103.157 0 0)
(103.688 0 0)
(104.355 0 0)
(105.129 0 0)
(105.989 0 0)
(106.92 0 0)
(107.907 0 0)
(108.942 0 0)
(110.015 0 0)
(111.119 0 0)
(112.251 0 0)
(113.404 0 0)
(114.576 0 0)
(115.764 0 0)
(116.964 0 0)
(118.175 0 0)
(119.394 0 0)
(120.62 0 0)
(121.852 0 0)
(123.089 0 0)
(124.329 0 0)
(125.572 0 0)
(126.817 0 0)
(128.062 0 0)
(129.309 0 0)
(130.555 0 0)
(131.801 0 0)
(133.046 0 0)
(134.29 0 0)
(135.532 0 0)
(136.772 0 0)
(138.01 0 0)
(139.246 0 0)
(140.479 0 0)
(141.71 0 0)
(142.938 0 0)
(144.162 0 0)
(145.383 0 0)
(146.602 0 0)
(147.815 0 0)
(149.031 0 0)
(150.224 0 0)
(151.471 0 0)
(152.54 0 0)
(154.138 0 0)
(221.35 0 0)
(218.773 0 0)
(216.116 0 0)
(213.373 0 0)
(210.539 0 0)
(207.607 0 0)
(204.57 0 0)
(201.42 0 0)
(198.148 0 0)
(194.743 0 0)
(191.193 0 0)
(187.484 0 0)
(183.6 0 0)
(179.52 0 0)
(175.222 0 0)
(170.68 0 0)
(165.864 0 0)
(160.738 0 0)
(155.27 0 0)
(149.441 0 0)
(143.271 0 0)
(136.867 0 0)
(130.444 0 0)
(124.303 0 0)
(118.76 0 0)
(114.049 0 0)
(110.27 0 0)
(107.401 0 0)
(105.34 0 0)
(103.953 0 0)
(103.108 0 0)
(102.689 0 0)
(102.601 0 0)
(102.771 0 0)
(103.144 0 0)
(103.675 0 0)
(104.333 0 0)
(105.092 0 0)
(105.933 0 0)
(106.84 0 0)
(107.801 0 0)
(108.807 0 0)
(109.851 0 0)
(110.925 0 0)
(112.026 0 0)
(113.147 0 0)
(114.287 0 0)
(115.442 0 0)
(116.609 0 0)
(117.787 0 0)
(118.974 0 0)
(120.168 0 0)
(121.367 0 0)
(122.571 0 0)
(123.779 0 0)
(124.989 0 0)
(126.202 0 0)
(127.416 0 0)
(128.63 0 0)
(129.844 0 0)
(131.059 0 0)
(132.272 0 0)
(133.485 0 0)
(134.696 0 0)
(135.905 0 0)
(137.113 0 0)
(138.318 0 0)
(139.521 0 0)
(140.721 0 0)
(141.918 0 0)
(143.113 0 0)
(144.304 0 0)
(145.493 0 0)
(146.677 0 0)
(147.863 0 0)
(149.028 0 0)
(150.243 0 0)
(151.289 0 0)
(152.84 0 0)
(218.846 0 0)
(216.265 0 0)
(213.604 0 0)
(210.856 0 0)
(208.016 0 0)
(205.078 0 0)
(202.034 0 0)
(198.875 0 0)
(195.593 0 0)
(192.176 0 0)
(188.611 0 0)
(184.885 0 0)
(180.98 0 0)
(176.876 0 0)
(172.55 0 0)
(167.975 0 0)
(163.12 0 0)
(157.955 0 0)
(152.451 0 0)
(146.603 0 0)
(140.462 0 0)
(134.168 0 0)
(127.96 0 0)
(122.139 0 0)
(116.982 0 0)
(112.67 0 0)
(109.257 0 0)
(106.693 0 0)
(104.868 0 0)
(103.656 0 0)
(102.932 0 0)
(102.595 0 0)
(102.559 0 0)
(102.759 0 0)
(103.145 0 0)
(103.678 0 0)
(104.329 0 0)
(105.074 0 0)
(105.897 0 0)
(106.782 0 0)
(107.719 0 0)
(108.699 0 0)
(109.714 0 0)
(110.76 0 0)
(111.83 0 0)
(112.921 0 0)
(114.03 0 0)
(115.154 0 0)
(116.29 0 0)
(117.436 0 0)
(118.591 0 0)
(119.753 0 0)
(120.921 0 0)
(122.093 0 0)
(123.269 0 0)
(124.448 0 0)
(125.629 0 0)
(126.812 0 0)
(127.995 0 0)
(129.179 0 0)
(130.362 0 0)
(131.545 0 0)
(132.727 0 0)
(133.908 0 0)
(135.087 0 0)
(136.264 0 0)
(137.44 0 0)
(138.613 0 0)
(139.783 0 0)
(140.951 0 0)
(142.117 0 0)
(143.279 0 0)
(144.439 0 0)
(145.593 0 0)
(146.75 0 0)
(147.887 0 0)
(149.072 0 0)
(150.095 0 0)
(151.602 0 0)
(216.321 0 0)
(213.736 0 0)
(211.069 0 0)
(208.315 0 0)
(205.468 0 0)
(202.522 0 0)
(199.468 0 0)
(196.299 0 0)
(193.004 0 0)
(189.572 0 0)
(185.99 0 0)
(182.244 0 0)
(178.314 0 0)
(174.182 0 0)
(169.823 0 0)
(165.21 0 0)
(160.315 0 0)
(155.107 0 0)
(149.57 0 0)
(143.718 0 0)
(137.632 0 0)
(131.485 0 0)
(125.532 0 0)
(120.059 0 0)
(115.299 0 0)
(111.38 0 0)
(108.317 0 0)
(106.04 0 0)
(104.436 0 0)
(103.385 0 0)
(102.775 0 0)
(102.514 0 0)
(102.527 0 0)
(102.755 0 0)
(103.154 0 0)
(103.689 0 0)
(104.333 0 0)
(105.066 0 0)
(105.871 0 0)
(106.736 0 0)
(107.65 0 0)
(108.604 0 0)
(109.593 0 0)
(110.611 0 0)
(111.652 0 0)
(112.714 0 0)
(113.793 0 0)
(114.887 0 0)
(115.992 0 0)
(117.108 0 0)
(118.232 0 0)
(119.363 0 0)
(120.5 0 0)
(121.642 0 0)
(122.788 0 0)
(123.936 0 0)
(125.087 0 0)
(126.239 0 0)
(127.392 0 0)
(128.545 0 0)
(129.699 0 0)
(130.852 0 0)
(132.004 0 0)
(133.155 0 0)
(134.305 0 0)
(135.453 0 0)
(136.599 0 0)
(137.743 0 0)
(138.885 0 0)
(140.024 0 0)
(141.16 0 0)
(142.294 0 0)
(143.425 0 0)
(144.552 0 0)
(145.68 0 0)
(146.79 0 0)
(147.945 0 0)
(148.944 0 0)
(150.411 0 0)
(213.79 0 0)
(211.2 0 0)
(208.527 0 0)
(205.766 0 0)
(202.912 0 0)
(199.956 0 0)
(196.892 0 0)
(193.71 0 0)
(190.401 0 0)
(186.953 0 0)
(183.351 0 0)
(179.582 0 0)
(175.625 0 0)
(171.462 0 0)
(167.067 0 0)
(162.414 0 0)
(157.476 0 0)
(152.229 0 0)
(146.668 0 0)
(140.832 0 0)
(134.834 0 0)
(128.873 0 0)
(123.211 0 0)
(118.104 0 0)
(113.74 0 0)
(110.2 0 0)
(107.465 0 0)
(105.451 0 0)
(104.049 0 0)
(103.144 0 0)
(102.638 0 0)
(102.446 0 0)
(102.503 0 0)
(102.757 0 0)
(103.167 0 0)
(103.704 0 0)
(104.342 0 0)
(105.062 0 0)
(105.851 0 0)
(106.696 0 0)
(107.587 0 0)
(108.518 0 0)
(109.481 0 0)
(110.471 0 0)
(111.485 0 0)
(112.519 0 0)
(113.569 0 0)
(114.633 0 0)
(115.709 0 0)
(116.795 0 0)
(117.89 0 0)
(118.991 0 0)
(120.099 0 0)
(121.21 0 0)
(122.326 0 0)
(123.445 0 0)
(124.566 0 0)
(125.688 0 0)
(126.812 0 0)
(127.936 0 0)
(129.06 0 0)
(130.184 0 0)
(131.307 0 0)
(132.43 0 0)
(133.551 0 0)
(134.67 0 0)
(135.787 0 0)
(136.903 0 0)
(138.016 0 0)
(139.127 0 0)
(140.236 0 0)
(141.342 0 0)
(142.445 0 0)
(143.544 0 0)
(144.645 0 0)
(145.727 0 0)
(146.854 0 0)
(147.83 0 0)
(149.257 0 0)
(211.26 0 0)
(208.664 0 0)
(205.985 0 0)
(203.216 0 0)
(200.353 0 0)
(197.388 0 0)
(194.312 0 0)
(191.117 0 0)
(187.792 0 0)
(184.325 0 0)
(180.703 0 0)
(176.908 0 0)
(172.923 0 0)
(168.726 0 0)
(164.293 0 0)
(159.599 0 0)
(154.619 0 0)
(149.338 0 0)
(143.769 0 0)
(137.976 0 0)
(132.103 0 0)
(126.368 0 0)
(121.024 0 0)
(116.294 0 0)
(112.317 0 0)
(109.134 0 0)
(106.701 0 0)
(104.928 0 0)
(103.706 0 0)
(102.934 0 0)
(102.519 0 0)
(102.39 0 0)
(102.487 0 0)
(102.763 0 0)
(103.183 0 0)
(103.72 0 0)
(104.351 0 0)
(105.06 0 0)
(105.833 0 0)
(106.658 0 0)
(107.528 0 0)
(108.435 0 0)
(109.374 0 0)
(110.338 0 0)
(111.326 0 0)
(112.332 0 0)
(113.354 0 0)
(114.39 0 0)
(115.437 0 0)
(116.495 0 0)
(117.56 0 0)
(118.633 0 0)
(119.711 0 0)
(120.794 0 0)
(121.881 0 0)
(122.971 0 0)
(124.063 0 0)
(125.157 0 0)
(126.252 0 0)
(127.347 0 0)
(128.443 0 0)
(129.538 0 0)
(130.633 0 0)
(131.727 0 0)
(132.82 0 0)
(133.912 0 0)
(135.001 0 0)
(136.089 0 0)
(137.175 0 0)
(138.259 0 0)
(139.34 0 0)
(140.418 0 0)
(141.494 0 0)
(142.566 0 0)
(143.64 0 0)
(144.695 0 0)
(145.794 0 0)
(146.747 0 0)
(148.137 0 0)
(208.733 0 0)
(206.13 0 0)
(203.444 0 0)
(200.668 0 0)
(197.796 0 0)
(194.819 0 0)
(191.731 0 0)
(188.522 0 0)
(185.18 0 0)
(181.693 0 0)
(178.047 0 0)
(174.226 0 0)
(170.209 0 0)
(165.977 0 0)
(161.506 0 0)
(156.771 0 0)
(151.753 0 0)
(146.449 0 0)
(140.891 0 0)
(135.173 0 0)
(129.464 0 0)
(123.99 0 0)
(118.985 0 0)
(114.633 0 0)
(111.029 0 0)
(108.179 0 0)
(106.022 0 0)
(104.465 0 0)
(103.406 0 0)
(102.751 0 0)
(102.42 0 0)
(102.346 0 0)
(102.477 0 0)
(102.773 0 0)
(103.202 0 0)
(103.738 0 0)
(104.362 0 0)
(105.059 0 0)
(105.816 0 0)
(106.623 0 0)
(107.472 0 0)
(108.356 0 0)
(109.271 0 0)
(110.21 0 0)
(111.172 0 0)
(112.151 0 0)
(113.146 0 0)
(114.155 0 0)
(115.175 0 0)
(116.204 0 0)
(117.242 0 0)
(118.287 0 0)
(119.337 0 0)
(120.392 0 0)
(121.45 0 0)
(122.512 0 0)
(123.576 0 0)
(124.642 0 0)
(125.709 0 0)
(126.777 0 0)
(127.845 0 0)
(128.913 0 0)
(129.98 0 0)
(131.047 0 0)
(132.112 0 0)
(133.176 0 0)
(134.239 0 0)
(135.3 0 0)
(136.359 0 0)
(137.415 0 0)
(138.469 0 0)
(139.521 0 0)
(140.571 0 0)
(141.616 0 0)
(142.663 0 0)
(143.693 0 0)
(144.765 0 0)
(145.694 0 0)
(147.048 0 0)
(206.208 0 0)
(203.599 0 0)
(200.905 0 0)
(198.121 0 0)
(195.239 0 0)
(192.251 0 0)
(189.149 0 0)
(185.924 0 0)
(182.564 0 0)
(179.055 0 0)
(175.385 0 0)
(171.535 0 0)
(167.486 0 0)
(163.218 0 0)
(158.707 0 0)
(153.933 0 0)
(148.884 0 0)
(143.571 0 0)
(138.05 0 0)
(132.443 0 0)
(126.936 0 0)
(121.752 0 0)
(117.1 0 0)
(113.121 0 0)
(109.87 0 0)
(107.327 0 0)
(105.421 0 0)
(104.058 0 0)
(103.145 0 0)
(102.595 0 0)
(102.336 0 0)
(102.311 0 0)
(102.474 0 0)
(102.787 0 0)
(103.222 0 0)
(103.757 0 0)
(104.374 0 0)
(105.059 0 0)
(105.8 0 0)
(106.589 0 0)
(107.418 0 0)
(108.28 0 0)
(109.171 0 0)
(110.086 0 0)
(111.023 0 0)
(111.977 0 0)
(112.946 0 0)
(113.928 0 0)
(114.921 0 0)
(115.923 0 0)
(116.934 0 0)
(117.951 0 0)
(118.974 0 0)
(120.002 0 0)
(121.033 0 0)
(122.068 0 0)
(123.104 0 0)
(124.143 0 0)
(125.183 0 0)
(126.224 0 0)
(127.265 0 0)
(128.306 0 0)
(129.346 0 0)
(130.386 0 0)
(131.425 0 0)
(132.463 0 0)
(133.499 0 0)
(134.533 0 0)
(135.566 0 0)
(136.596 0 0)
(137.624 0 0)
(138.65 0 0)
(139.674 0 0)
(140.693 0 0)
(141.714 0 0)
(142.719 0 0)
(143.763 0 0)
(144.671 0 0)
(145.989 0 0)
(203.685 0 0)
(201.07 0 0)
(198.368 0 0)
(195.575 0 0)
(192.682 0 0)
(189.681 0 0)
(186.565 0 0)
(183.323 0 0)
(179.943 0 0)
(176.412 0 0)
(172.715 0 0)
(168.835 0 0)
(164.753 0 0)
(160.447 0 0)
(155.897 0 0)
(151.088 0 0)
(146.018 0 0)
(140.716 0 0)
(135.263 0 0)
(129.803 0 0)
(124.533 0 0)
(119.664 0 0)
(115.369 0 0)
(111.751 0 0)
(108.832 0 0)
(106.571 0 0)
(104.891 0 0)
(103.702 0 0)
(102.918 0 0)
(102.461 0 0)
(102.268 0 0)
(102.287 0 0)
(102.476 0 0)
(102.803 0 0)
(103.244 0 0)
(103.777 0 0)
(104.386 0 0)
(105.059 0 0)
(105.785 0 0)
(106.556 0 0)
(107.365 0 0)
(108.206 0 0)
(109.075 0 0)
(109.967 0 0)
(110.879 0 0)
(111.808 0 0)
(112.752 0 0)
(113.708 0 0)
(114.675 0 0)
(115.651 0 0)
(116.636 0 0)
(117.627 0 0)
(118.623 0 0)
(119.624 0 0)
(120.629 0 0)
(121.637 0 0)
(122.647 0 0)
(123.659 0 0)
(124.673 0 0)
(125.687 0 0)
(126.702 0 0)
(127.717 0 0)
(128.731 0 0)
(129.745 0 0)
(130.758 0 0)
(131.77 0 0)
(132.78 0 0)
(133.789 0 0)
(134.796 0 0)
(135.801 0 0)
(136.803 0 0)
(137.804 0 0)
(138.802 0 0)
(139.796 0 0)
(140.792 0 0)
(141.772 0 0)
(142.791 0 0)
(143.677 0 0)
(144.959 0 0)
(201.165 0 0)
(198.542 0 0)
(195.832 0 0)
(193.029 0 0)
(190.124 0 0)
(187.111 0 0)
(183.979 0 0)
(180.718 0 0)
(177.317 0 0)
(173.762 0 0)
(170.037 0 0)
(166.126 0 0)
(162.008 0 0)
(157.665 0 0)
(153.08 0 0)
(148.243 0 0)
(143.166 0 0)
(137.898 0 0)
(132.546 0 0)
(127.27 0 0)
(122.268 0 0)
(117.729 0 0)
(113.79 0 0)
(110.517 0 0)
(107.905 0 0)
(105.901 0 0)
(104.425 0 0)
(103.392 0 0)
(102.723 0 0)
(102.349 0 0)
(102.213 0 0)
(102.27 0 0)
(102.483 0 0)
(102.823 0 0)
(103.267 0 0)
(103.797 0 0)
(104.399 0 0)
(105.06 0 0)
(105.771 0 0)
(106.525 0 0)
(107.315 0 0)
(108.135 0 0)
(108.982 0 0)
(109.851 0 0)
(110.739 0 0)
(111.644 0 0)
(112.564 0 0)
(113.495 0 0)
(114.437 0 0)
(115.388 0 0)
(116.347 0 0)
(117.312 0 0)
(118.283 0 0)
(119.258 0 0)
(120.237 0 0)
(121.219 0 0)
(122.204 0 0)
(123.191 0 0)
(124.178 0 0)
(125.167 0 0)
(126.156 0 0)
(127.146 0 0)
(128.135 0 0)
(129.123 0 0)
(130.111 0 0)
(131.098 0 0)
(132.083 0 0)
(133.066 0 0)
(134.048 0 0)
(135.028 0 0)
(136.006 0 0)
(136.982 0 0)
(137.955 0 0)
(138.925 0 0)
(139.896 0 0)
(140.852 0 0)
(141.845 0 0)
(142.71 0 0)
(143.958 0 0)
(198.647 0 0)
(196.016 0 0)
(193.297 0 0)
(190.483 0 0)
(187.566 0 0)
(184.538 0 0)
(181.389 0 0)
(178.109 0 0)
(174.686 0 0)
(171.104 0 0)
(167.35 0 0)
(163.406 0 0)
(159.253 0 0)
(154.875 0 0)
(150.257 0 0)
(145.402 0 0)
(140.337 0 0)
(135.133 0 0)
(129.917 0 0)
(124.86 0 0)
(120.15 0 0)
(115.948 0 0)
(112.356 0 0)
(109.409 0 0)
(107.08 0 0)
(105.308 0 0)
(104.015 0 0)
(103.122 0 0)
(102.555 0 0)
(102.255 0 0)
(102.171 0 0)
(102.262 0 0)
(102.495 0 0)
(102.845 0 0)
(103.292 0 0)
(103.819 0 0)
(104.412 0 0)
(105.061 0 0)
(105.758 0 0)
(106.495 0 0)
(107.266 0 0)
(108.067 0 0)
(108.892 0 0)
(109.739 0 0)
(110.605 0 0)
(111.486 0 0)
(112.382 0 0)
(113.289 0 0)
(114.207 0 0)
(115.133 0 0)
(116.067 0 0)
(117.008 0 0)
(117.953 0 0)
(118.904 0 0)
(119.858 0 0)
(120.815 0 0)
(121.775 0 0)
(122.736 0 0)
(123.699 0 0)
(124.663 0 0)
(125.627 0 0)
(126.592 0 0)
(127.556 0 0)
(128.52 0 0)
(129.483 0 0)
(130.445 0 0)
(131.406 0 0)
(132.365 0 0)
(133.323 0 0)
(134.279 0 0)
(135.232 0 0)
(136.184 0 0)
(137.133 0 0)
(138.079 0 0)
(139.026 0 0)
(139.958 0 0)
(140.926 0 0)
(141.771 0 0)
(142.986 0 0)
(196.13 0 0)
(193.491 0 0)
(190.762 0 0)
(187.936 0 0)
(185.006 0 0)
(181.962 0 0)
(178.795 0 0)
(175.494 0 0)
(172.047 0 0)
(168.439 0 0)
(164.654 0 0)
(160.676 0 0)
(156.489 0 0)
(152.077 0 0)
(147.435 0 0)
(142.576 0 0)
(137.545 0 0)
(132.437 0 0)
(127.391 0 0)
(122.583 0 0)
(118.182 0 0)
(114.319 0 0)
(111.062 0 0)
(108.418 0 0)
(106.348 0 0)
(104.787 0 0)
(103.657 0 0)
(102.887 0 0)
(102.412 0 0)
(102.178 0 0)
(102.139 0 0)
(102.259 0 0)
(102.511 0 0)
(102.87 0 0)
(103.318 0 0)
(103.841 0 0)
(104.426 0 0)
(105.063 0 0)
(105.746 0 0)
(106.466 0 0)
(107.219 0 0)
(108 0 0)
(108.805 0 0)
(109.631 0 0)
(110.475 0 0)
(111.334 0 0)
(112.206 0 0)
(113.09 0 0)
(113.984 0 0)
(114.887 0 0)
(115.797 0 0)
(116.713 0 0)
(117.635 0 0)
(118.561 0 0)
(119.491 0 0)
(120.423 0 0)
(121.359 0 0)
(122.296 0 0)
(123.235 0 0)
(124.174 0 0)
(125.115 0 0)
(126.055 0 0)
(126.995 0 0)
(127.935 0 0)
(128.874 0 0)
(129.812 0 0)
(130.749 0 0)
(131.685 0 0)
(132.619 0 0)
(133.551 0 0)
(134.481 0 0)
(135.409 0 0)
(136.335 0 0)
(137.257 0 0)
(138.181 0 0)
(139.09 0 0)
(140.034 0 0)
(140.858 0 0)
(142.04 0 0)
(193.614 0 0)
(190.966 0 0)
(188.226 0 0)
(185.388 0 0)
(182.443 0 0)
(179.382 0 0)
(176.196 0 0)
(172.873 0 0)
(169.4 0 0)
(165.764 0 0)
(161.948 0 0)
(157.937 0 0)
(153.716 0 0)
(149.276 0 0)
(144.619 0 0)
(139.774 0 0)
(134.806 0 0)
(129.826 0 0)
(124.985 0 0)
(120.45 0 0)
(116.368 0 0)
(112.837 0 0)
(109.897 0 0)
(107.535 0 0)
(105.701 0 0)
(104.328 0 0)
(103.345 0 0)
(102.685 0 0)
(102.292 0 0)
(102.115 0 0)
(102.116 0 0)
(102.263 0 0)
(102.53 0 0)
(102.896 0 0)
(103.345 0 0)
(103.863 0 0)
(104.44 0 0)
(105.066 0 0)
(105.734 0 0)
(106.439 0 0)
(107.174 0 0)
(107.936 0 0)
(108.722 0 0)
(109.527 0 0)
(110.349 0 0)
(111.186 0 0)
(112.036 0 0)
(112.898 0 0)
(113.769 0 0)
(114.648 0 0)
(115.535 0 0)
(116.428 0 0)
(117.326 0 0)
(118.228 0 0)
(119.135 0 0)
(120.044 0 0)
(120.956 0 0)
(121.87 0 0)
(122.785 0 0)
(123.701 0 0)
(124.618 0 0)
(125.535 0 0)
(126.451 0 0)
(127.368 0 0)
(128.284 0 0)
(129.199 0 0)
(130.112 0 0)
(131.025 0 0)
(131.935 0 0)
(132.844 0 0)
(133.752 0 0)
(134.656 0 0)
(135.56 0 0)
(136.459 0 0)
(137.36 0 0)
(138.246 0 0)
(139.167 0 0)
(139.972 0 0)
(141.122 0 0)
(191.099 0 0)
(188.441 0 0)
(185.69 0 0)
(182.838 0 0)
(179.877 0 0)
(176.799 0 0)
(173.592 0 0)
(170.245 0 0)
(166.746 0 0)
(163.08 0 0)
(159.232 0 0)
(155.189 0 0)
(150.938 0 0)
(146.477 0 0)
(141.821 0 0)
(137.012 0 0)
(132.136 0 0)
(127.318 0 0)
(122.711 0 0)
(118.467 0 0)
(114.706 0 0)
(111.497 0 0)
(108.855 0 0)
(106.75 0 0)
(105.129 0 0)
(103.925 0 0)
(103.073 0 0)
(102.512 0 0)
(102.19 0 0)
(102.065 0 0)
(102.102 0 0)
(102.272 0 0)
(102.552 0 0)
(102.924 0 0)
(103.373 0 0)
(103.886 0 0)
(104.454 0 0)
(105.069 0 0)
(105.724 0 0)
(106.413 0 0)
(107.131 0 0)
(107.875 0 0)
(108.641 0 0)
(109.426 0 0)
(110.227 0 0)
(111.043 0 0)
(111.872 0 0)
(112.711 0 0)
(113.56 0 0)
(114.417 0 0)
(115.281 0 0)
(116.152 0 0)
(117.027 0 0)
(117.907 0 0)
(118.79 0 0)
(119.677 0 0)
(120.566 0 0)
(121.456 0 0)
(122.349 0 0)
(123.242 0 0)
(124.136 0 0)
(125.03 0 0)
(125.924 0 0)
(126.818 0 0)
(127.711 0 0)
(128.603 0 0)
(129.494 0 0)
(130.384 0 0)
(131.272 0 0)
(132.159 0 0)
(133.044 0 0)
(133.926 0 0)
(134.807 0 0)
(135.684 0 0)
(136.563 0 0)
(137.427 0 0)
(138.324 0 0)
(139.11 0 0)
(140.229 0 0)
(188.584 0 0)
(185.915 0 0)
(183.152 0 0)
(180.285 0 0)
(177.308 0 0)
(174.21 0 0)
(170.982 0 0)
(167.61 0 0)
(164.083 0 0)
(160.387 0 0)
(156.508 0 0)
(152.434 0 0)
(148.159 0 0)
(143.688 0 0)
(139.05 0 0)
(134.305 0 0)
(129.553 0 0)
(124.929 0 0)
(120.579 0 0)
(116.636 0 0)
(113.193 0 0)
(110.291 0 0)
(107.924 0 0)
(106.055 0 0)
(104.626 0 0)
(103.573 0 0)
(102.837 0 0)
(102.364 0 0)
(102.106 0 0)
(102.027 0 0)
(102.095 0 0)
(102.285 0 0)
(102.577 0 0)
(102.953 0 0)
(103.401 0 0)
(103.909 0 0)
(104.469 0 0)
(105.073 0 0)
(105.714 0 0)
(106.387 0 0)
(107.089 0 0)
(107.815 0 0)
(108.563 0 0)
(109.328 0 0)
(110.11 0 0)
(110.905 0 0)
(111.713 0 0)
(112.531 0 0)
(113.358 0 0)
(114.194 0 0)
(115.036 0 0)
(115.884 0 0)
(116.738 0 0)
(117.595 0 0)
(118.457 0 0)
(119.321 0 0)
(120.187 0 0)
(121.056 0 0)
(121.926 0 0)
(122.797 0 0)
(123.669 0 0)
(124.541 0 0)
(125.413 0 0)
(126.284 0 0)
(127.156 0 0)
(128.026 0 0)
(128.895 0 0)
(129.763 0 0)
(130.629 0 0)
(131.494 0 0)
(132.357 0 0)
(133.217 0 0)
(134.076 0 0)
(134.932 0 0)
(135.789 0 0)
(136.632 0 0)
(137.506 0 0)
(138.274 0 0)
(139.362 0 0)
(186.069 0 0)
(183.389 0 0)
(180.612 0 0)
(177.73 0 0)
(174.735 0 0)
(171.616 0 0)
(168.365 0 0)
(164.967 0 0)
(161.412 0 0)
(157.686 0 0)
(153.777 0 0)
(149.677 0 0)
(145.385 0 0)
(140.919 0 0)
(136.321 0 0)
(131.667 0 0)
(127.072 0 0)
(122.669 0 0)
(118.594 0 0)
(114.957 0 0)
(111.822 0 0)
(109.209 0 0)
(107.097 0 0)
(105.441 0 0)
(104.184 0 0)
(103.266 0 0)
(102.634 0 0)
(102.238 0 0)
(102.038 0 0)
(101.999 0 0)
(102.095 0 0)
(102.303 0 0)
(102.604 0 0)
(102.984 0 0)
(103.43 0 0)
(103.933 0 0)
(104.484 0 0)
(105.076 0 0)
(105.704 0 0)
(106.363 0 0)
(107.049 0 0)
(107.758 0 0)
(108.487 0 0)
(109.234 0 0)
(109.996 0 0)
(110.772 0 0)
(111.559 0 0)
(112.357 0 0)
(113.163 0 0)
(113.978 0 0)
(114.799 0 0)
(115.626 0 0)
(116.458 0 0)
(117.294 0 0)
(118.134 0 0)
(118.976 0 0)
(119.821 0 0)
(120.668 0 0)
(121.517 0 0)
(122.366 0 0)
(123.216 0 0)
(124.067 0 0)
(124.917 0 0)
(125.767 0 0)
(126.617 0 0)
(127.466 0 0)
(128.313 0 0)
(129.16 0 0)
(130.005 0 0)
(130.848 0 0)
(131.69 0 0)
(132.53 0 0)
(133.367 0 0)
(134.202 0 0)
(135.037 0 0)
(135.86 0 0)
(136.712 0 0)
(137.461 0 0)
(138.521 0 0)
(183.554 0 0)
(180.861 0 0)
(178.069 0 0)
(175.171 0 0)
(172.156 0 0)
(169.017 0 0)
(165.741 0 0)
(162.317 0 0)
(158.733 0 0)
(154.978 0 0)
(151.042 0 0)
(146.921 0 0)
(142.625 0 0)
(138.181 0 0)
(133.649 0 0)
(129.118 0 0)
(124.708 0 0)
(120.55 0 0)
(116.761 0 0)
(113.426 0 0)
(110.587 0 0)
(108.242 0 0)
(106.362 0 0)
(104.899 0 0)
(103.796 0 0)
(102.999 0 0)
(102.459 0 0)
(102.132 0 0)
(101.983 0 0)
(101.98 0 0)
(102.101 0 0)
(102.324 0 0)
(102.633 0 0)
(103.015 0 0)
(103.459 0 0)
(103.957 0 0)
(104.499 0 0)
(105.081 0 0)
(105.696 0 0)
(106.34 0 0)
(107.01 0 0)
(107.703 0 0)
(108.414 0 0)
(109.143 0 0)
(109.886 0 0)
(110.643 0 0)
(111.41 0 0)
(112.188 0 0)
(112.975 0 0)
(113.769 0 0)
(114.569 0 0)
(115.375 0 0)
(116.187 0 0)
(117.002 0 0)
(117.821 0 0)
(118.642 0 0)
(119.467 0 0)
(120.293 0 0)
(121.12 0 0)
(121.949 0 0)
(122.778 0 0)
(123.607 0 0)
(124.437 0 0)
(125.266 0 0)
(126.095 0 0)
(126.923 0 0)
(127.75 0 0)
(128.575 0 0)
(129.4 0 0)
(130.222 0 0)
(131.043 0 0)
(131.862 0 0)
(132.679 0 0)
(133.493 0 0)
(134.308 0 0)
(135.11 0 0)
(135.941 0 0)
(136.673 0 0)
(137.703 0 0)
(181.037 0 0)
(178.331 0 0)
(175.523 0 0)
(172.607 0 0)
(169.573 0 0)
(166.41 0 0)
(163.109 0 0)
(159.658 0 0)
(156.047 0 0)
(152.264 0 0)
(148.306 0 0)
(144.174 0 0)
(139.888 0 0)
(135.489 0 0)
(131.05 0 0)
(126.671 0 0)
(122.474 0 0)
(118.578 0 0)
(115.079 0 0)
(112.039 0 0)
(109.478 0 0)
(107.381 0 0)
(105.713 0 0)
(104.422 0 0)
(103.457 0 0)
(102.768 0 0)
(102.31 0 0)
(102.044 0 0)
(101.94 0 0)
(101.969 0 0)
(102.111 0 0)
(102.348 0 0)
(102.664 0 0)
(103.047 0 0)
(103.489 0 0)
(103.98 0 0)
(104.514 0 0)
(105.085 0 0)
(105.688 0 0)
(106.318 0 0)
(106.973 0 0)
(107.649 0 0)
(108.344 0 0)
(109.055 0 0)
(109.78 0 0)
(110.518 0 0)
(111.267 0 0)
(112.025 0 0)
(112.792 0 0)
(113.566 0 0)
(114.347 0 0)
(115.133 0 0)
(115.924 0 0)
(116.719 0 0)
(117.518 0 0)
(118.319 0 0)
(119.123 0 0)
(119.929 0 0)
(120.736 0 0)
(121.544 0 0)
(122.353 0 0)
(123.162 0 0)
(123.971 0 0)
(124.78 0 0)
(125.588 0 0)
(126.396 0 0)
(127.203 0 0)
(128.008 0 0)
(128.812 0 0)
(129.615 0 0)
(130.416 0 0)
(131.214 0 0)
(132.011 0 0)
(132.805 0 0)
(133.6 0 0)
(134.382 0 0)
(135.192 0 0)
(135.907 0 0)
(136.909 0 0)
(178.519 0 0)
(175.798 0 0)
(172.974 0 0)
(170.039 0 0)
(166.983 0 0)
(163.797 0 0)
(160.471 0 0)
(156.993 0 0)
(153.355 0 0)
(149.549 0 0)
(145.575 0 0)
(141.445 0 0)
(137.187 0 0)
(132.858 0 0)
(128.541 0 0)
(124.343 0 0)
(120.38 0 0)
(116.755 0 0)
(113.544 0 0)
(110.787 0 0)
(108.486 0 0)
(106.617 0 0)
(105.139 0 0)
(104.003 0 0)
(103.161 0 0)
(102.568 0 0)
(102.183 0 0)
(101.972 0 0)
(101.908 0 0)
(101.965 0 0)
(102.126 0 0)
(102.374 0 0)
(102.696 0 0)
(103.08 0 0)
(103.519 0 0)
(104.004 0 0)
(104.53 0 0)
(105.09 0 0)
(105.68 0 0)
(106.297 0 0)
(106.937 0 0)
(107.598 0 0)
(108.276 0 0)
(108.97 0 0)
(109.677 0 0)
(110.397 0 0)
(111.127 0 0)
(111.867 0 0)
(112.615 0 0)
(113.37 0 0)
(114.132 0 0)
(114.899 0 0)
(115.67 0 0)
(116.446 0 0)
(117.225 0 0)
(118.006 0 0)
(118.79 0 0)
(119.576 0 0)
(120.364 0 0)
(121.152 0 0)
(121.941 0 0)
(122.73 0 0)
(123.52 0 0)
(124.309 0 0)
(125.098 0 0)
(125.886 0 0)
(126.672 0 0)
(127.458 0 0)
(128.243 0 0)
(129.026 0 0)
(129.807 0 0)
(130.586 0 0)
(131.363 0 0)
(132.138 0 0)
(132.913 0 0)
(133.676 0 0)
(134.466 0 0)
(135.163 0 0)
(136.138 0 0)
(175.998 0 0)
(173.262 0 0)
(170.42 0 0)
(167.465 0 0)
(164.388 0 0)
(161.178 0 0)
(157.826 0 0)
(154.323 0 0)
(150.66 0 0)
(146.837 0 0)
(142.857 0 0)
(138.743 0 0)
(134.535 0 0)
(130.303 0 0)
(126.137 0 0)
(122.144 0 0)
(118.431 0 0)
(115.082 0 0)
(112.153 0 0)
(109.663 0 0)
(107.602 0 0)
(105.94 0 0)
(104.633 0 0)
(103.636 0 0)
(102.904 0 0)
(102.396 0 0)
(102.076 0 0)
(101.914 0 0)
(101.885 0 0)
(101.968 0 0)
(102.145 0 0)
(102.403 0 0)
(102.729 0 0)
(103.114 0 0)
(103.549 0 0)
(104.028 0 0)
(104.545 0 0)
(105.095 0 0)
(105.673 0 0)
(106.277 0 0)
(106.903 0 0)
(107.548 0 0)
(108.21 0 0)
(108.887 0 0)
(109.578 0 0)
(110.28 0 0)
(110.993 0 0)
(111.715 0 0)
(112.444 0 0)
(113.181 0 0)
(113.924 0 0)
(114.672 0 0)
(115.424 0 0)
(116.181 0 0)
(116.941 0 0)
(117.703 0 0)
(118.468 0 0)
(119.235 0 0)
(120.003 0 0)
(120.772 0 0)
(121.542 0 0)
(122.312 0 0)
(123.082 0 0)
(123.852 0 0)
(124.622 0 0)
(125.391 0 0)
(126.158 0 0)
(126.925 0 0)
(127.69 0 0)
(128.454 0 0)
(129.216 0 0)
(129.976 0 0)
(130.735 0 0)
(131.49 0 0)
(132.246 0 0)
(132.99 0 0)
(133.76 0 0)
(134.441 0 0)
(135.389 0 0)
(173.474 0 0)
(170.722 0 0)
(167.862 0 0)
(164.886 0 0)
(161.786 0 0)
(158.552 0 0)
(155.175 0 0)
(151.649 0 0)
(147.967 0 0)
(144.133 0 0)
(140.161 0 0)
(136.082 0 0)
(131.949 0 0)
(127.84 0 0)
(123.852 0 0)
(120.085 0 0)
(116.63 0 0)
(113.556 0 0)
(110.896 0 0)
(108.656 0 0)
(106.816 0 0)
(105.341 0 0)
(104.189 0 0)
(103.316 0 0)
(102.681 0 0)
(102.249 0 0)
(101.987 0 0)
(101.868 0 0)
(101.871 0 0)
(101.976 0 0)
(102.167 0 0)
(102.433 0 0)
(102.763 0 0)
(103.148 0 0)
(103.579 0 0)
(104.052 0 0)
(104.56 0 0)
(105.1 0 0)
(105.667 0 0)
(106.257 0 0)
(106.869 0 0)
(107.5 0 0)
(108.147 0 0)
(108.808 0 0)
(109.482 0 0)
(110.167 0 0)
(110.863 0 0)
(111.567 0 0)
(112.279 0 0)
(112.998 0 0)
(113.722 0 0)
(114.452 0 0)
(115.186 0 0)
(115.925 0 0)
(116.666 0 0)
(117.41 0 0)
(118.156 0 0)
(118.904 0 0)
(119.654 0 0)
(120.404 0 0)
(121.155 0 0)
(121.907 0 0)
(122.658 0 0)
(123.41 0 0)
(124.161 0 0)
(124.911 0 0)
(125.66 0 0)
(126.408 0 0)
(127.155 0 0)
(127.9 0 0)
(128.643 0 0)
(129.385 0 0)
(130.125 0 0)
(130.861 0 0)
(131.599 0 0)
(132.325 0 0)
(133.075 0 0)
(133.74 0 0)
(134.663 0 0)
(170.948 0 0)
(168.177 0 0)
(165.298 0 0)
(162.302 0 0)
(159.179 0 0)
(155.921 0 0)
(152.521 0 0)
(148.974 0 0)
(145.28 0 0)
(141.447 0 0)
(137.498 0 0)
(133.476 0 0)
(129.444 0 0)
(125.486 0 0)
(121.697 0 0)
(118.17 0 0)
(114.978 0 0)
(112.171 0 0)
(109.767 0 0)
(107.758 0 0)
(106.119 0 0)
(104.813 0 0)
(103.798 0 0)
(103.036 0 0)
(102.489 0 0)
(102.124 0 0)
(101.914 0 0)
(101.833 0 0)
(101.864 0 0)
(101.988 0 0)
(102.193 0 0)
(102.466 0 0)
(102.798 0 0)
(103.182 0 0)
(103.609 0 0)
(104.076 0 0)
(104.576 0 0)
(105.105 0 0)
(105.661 0 0)
(106.239 0 0)
(106.837 0 0)
(107.453 0 0)
(108.085 0 0)
(108.731 0 0)
(109.389 0 0)
(110.058 0 0)
(110.737 0 0)
(111.424 0 0)
(112.119 0 0)
(112.82 0 0)
(113.527 0 0)
(114.24 0 0)
(114.956 0 0)
(115.676 0 0)
(116.4 0 0)
(117.126 0 0)
(117.854 0 0)
(118.584 0 0)
(119.315 0 0)
(120.048 0 0)
(120.781 0 0)
(121.514 0 0)
(122.248 0 0)
(122.981 0 0)
(123.714 0 0)
(124.446 0 0)
(125.177 0 0)
(125.906 0 0)
(126.635 0 0)
(127.362 0 0)
(128.088 0 0)
(128.811 0 0)
(129.533 0 0)
(130.252 0 0)
(130.971 0 0)
(131.679 0 0)
(132.411 0 0)
(133.06 0 0)
(133.957 0 0)
(168.417 0 0)
(165.629 0 0)
(162.73 0 0)
(159.712 0 0)
(156.566 0 0)
(153.286 0 0)
(149.866 0 0)
(146.305 0 0)
(142.606 0 0)
(138.788 0 0)
(134.882 0 0)
(130.94 0 0)
(127.035 0 0)
(123.252 0 0)
(119.681 0 0)
(116.401 0 0)
(113.471 0 0)
(110.921 0 0)
(108.756 0 0)
(106.96 0 0)
(105.502 0 0)
(104.348 0 0)
(103.457 0 0)
(102.793 0 0)
(102.324 0 0)
(102.019 0 0)
(101.854 0 0)
(101.808 0 0)
(101.863 0 0)
(102.005 0 0)
(102.22 0 0)
(102.499 0 0)
(102.834 0 0)
(103.216 0 0)
(103.639 0 0)
(104.099 0 0)
(104.591 0 0)
(105.111 0 0)
(105.655 0 0)
(106.221 0 0)
(106.806 0 0)
(107.409 0 0)
(108.026 0 0)
(108.657 0 0)
(109.3 0 0)
(109.953 0 0)
(110.615 0 0)
(111.286 0 0)
(111.964 0 0)
(112.649 0 0)
(113.339 0 0)
(114.034 0 0)
(114.733 0 0)
(115.436 0 0)
(116.142 0 0)
(116.851 0 0)
(117.562 0 0)
(118.274 0 0)
(118.988 0 0)
(119.703 0 0)
(120.418 0 0)
(121.134 0 0)
(121.85 0 0)
(122.565 0 0)
(123.28 0 0)
(123.995 0 0)
(124.708 0 0)
(125.42 0 0)
(126.131 0 0)
(126.841 0 0)
(127.549 0 0)
(128.255 0 0)
(128.959 0 0)
(129.66 0 0)
(130.362 0 0)
(131.053 0 0)
(131.766 0 0)
(132.4 0 0)
(133.273 0 0)
(165.882 0 0)
(163.076 0 0)
(160.156 0 0)
(157.117 0 0)
(153.95 0 0)
(150.65 0 0)
(147.215 0 0)
(143.646 0 0)
(139.955 0 0)
(136.168 0 0)
(132.326 0 0)
(128.49 0 0)
(124.736 0 0)
(121.149 0 0)
(117.809 0 0)
(114.78 0 0)
(112.104 0 0)
(109.797 0 0)
(107.853 0 0)
(106.251 0 0)
(104.958 0 0)
(103.939 0 0)
(103.158 0 0)
(102.583 0 0)
(102.182 0 0)
(101.931 0 0)
(101.807 0 0)
(101.792 0 0)
(101.869 0 0)
(102.025 0 0)
(102.25 0 0)
(102.534 0 0)
(102.87 0 0)
(103.25 0 0)
(103.669 0 0)
(104.123 0 0)
(104.606 0 0)
(105.116 0 0)
(105.65 0 0)
(106.204 0 0)
(106.776 0 0)
(107.365 0 0)
(107.969 0 0)
(108.585 0 0)
(109.213 0 0)
(109.851 0 0)
(110.498 0 0)
(111.153 0 0)
(111.815 0 0)
(112.483 0 0)
(113.156 0 0)
(113.835 0 0)
(114.517 0 0)
(115.204 0 0)
(115.893 0 0)
(116.584 0 0)
(117.278 0 0)
(117.974 0 0)
(118.67 0 0)
(119.368 0 0)
(120.067 0 0)
(120.765 0 0)
(121.464 0 0)
(122.162 0 0)
(122.86 0 0)
(123.558 0 0)
(124.254 0 0)
(124.949 0 0)
(125.643 0 0)
(126.335 0 0)
(127.026 0 0)
(127.715 0 0)
(128.402 0 0)
(129.086 0 0)
(129.771 0 0)
(130.445 0 0)
(131.141 0 0)
(131.76 0 0)
(132.608 0 0)
(163.344 0 0)
(160.518 0 0)
(157.579 0 0)
(154.519 0 0)
(151.332 0 0)
(148.016 0 0)
(144.571 0 0)
(141.005 0 0)
(137.337 0 0)
(133.601 0 0)
(129.846 0 0)
(126.14 0 0)
(122.56 0 0)
(119.185 0 0)
(116.082 0 0)
(113.301 0 0)
(110.869 0 0)
(108.79 0 0)
(107.049 0 0)
(105.623 0 0)
(104.478 0 0)
(103.58 0 0)
(102.898 0 0)
(102.401 0 0)
(102.062 0 0)
(101.859 0 0)
(101.771 0 0)
(101.782 0 0)
(101.879 0 0)
(102.049 0 0)
(102.282 0 0)
(102.57 0 0)
(102.906 0 0)
(103.284 0 0)
(103.699 0 0)
(104.146 0 0)
(104.621 0 0)
(105.122 0 0)
(105.645 0 0)
(106.187 0 0)
(106.748 0 0)
(107.324 0 0)
(107.913 0 0)
(108.516 0 0)
(109.129 0 0)
(109.752 0 0)
(110.384 0 0)
(111.023 0 0)
(111.67 0 0)
(112.322 0 0)
(112.98 0 0)
(113.642 0 0)
(114.309 0 0)
(114.978 0 0)
(115.651 0 0)
(116.327 0 0)
(117.004 0 0)
(117.683 0 0)
(118.363 0 0)
(119.044 0 0)
(119.726 0 0)
(120.408 0 0)
(121.09 0 0)
(121.772 0 0)
(122.453 0 0)
(123.134 0 0)
(123.814 0 0)
(124.492 0 0)
(125.17 0 0)
(125.845 0 0)
(126.519 0 0)
(127.192 0 0)
(127.862 0 0)
(128.53 0 0)
(129.197 0 0)
(129.855 0 0)
(130.534 0 0)
(131.138 0 0)
(131.963 0 0)
(160.801 0 0)
(157.956 0 0)
(154.998 0 0)
(151.919 0 0)
(148.716 0 0)
(145.39 0 0)
(141.944 0 0)
(138.393 0 0)
(134.765 0 0)
(131.1 0 0)
(127.457 0 0)
(123.904 0 0)
(120.516 0 0)
(117.363 0 0)
(114.499 0 0)
(111.96 0 0)
(109.758 0 0)
(107.89 0 0)
(106.335 0 0)
(105.067 0 0)
(104.055 0 0)
(103.266 0 0)
(102.672 0 0)
(102.245 0 0)
(101.961 0 0)
(101.8 0 0)
(101.744 0 0)
(101.78 0 0)
(101.894 0 0)
(102.075 0 0)
(102.315 0 0)
(102.607 0 0)
(102.943 0 0)
(103.318 0 0)
(103.728 0 0)
(104.169 0 0)
(104.636 0 0)
(105.128 0 0)
(105.64 0 0)
(106.172 0 0)
(106.72 0 0)
(107.283 0 0)