/*--------------------------------*- C++ -*----------------------------------*\
| =========                 |                                                 |
| \\      /  F ield         | OpenFOAM: The Open Source CFD Toolbox           |
|  \\    /   O peration     | Version:  2312                                  |
|   \\  /    A nd           | Website:  www.openfoam.com                      |
|    \\/     M anipulation  |                                                 |
\*---------------------------------------------------------------------------*/
FoamFile
{
    version     2.0;
    format      ascii;
    arch        "LSB;label=32;scalar=64";
    class       volVectorField;
    location    "0.47";
    object      U;
}
// * * * * * * * * * * * * * * * * * * * * * * * * * * * * * * * * * * * * * //

dimensions      [0 1 -1 0 0 0 0];

internalField   nonuniform List<vector> 
31205
(
(218.372 0 0)
(220.881 0 0)
(223.324 0 0)
(225.703 0 0)
(228.021 0 0)
(230.281 0 0)
(232.485 0 0)
(234.634 0 0)
(236.732 0 0)
(238.78 0 0)
(240.779 0 0)
(242.732 0 0)
(244.64 0 0)
(246.503 0 0)
(248.324 0 0)
(250.104 0 0)
(251.843 0 0)
(253.543 0 0)
(255.204 0 0)
(256.828 0 0)
(258.415 0 0)
(259.967 0 0)
(261.484 0 0)
(262.966 0 0)
(264.414 0 0)
(265.829 0 0)
(267.212 0 0)
(268.562 0 0)
(269.881 0 0)
(271.169 0 0)
(272.426 0 0)
(273.653 0 0)
(274.85 0 0)
(276.018 0 0)
(277.156 0 0)
(278.265 0 0)
(279.345 0 0)
(280.397 0 0)
(281.42 0 0)
(282.415 0 0)
(283.383 0 0)
(284.322 0 0)
(285.234 0 0)
(286.118 0 0)
(286.975 0 0)
(287.804 0 0)
(288.606 0 0)
(289.38 0 0)
(290.127 0 0)
(290.846 0 0)
(291.538 0 0)
(292.202 0 0)
(292.838 0 0)
(293.447 0 0)
(294.027 0 0)
(294.579 0 0)
(295.103 0 0)
(295.598 0 0)
(296.064 0 0)
(296.501 0 0)
(296.908 0 0)
(297.286 0 0)
(297.633 0 0)
(297.949 0 0)
(298.234 0 0)
(298.488 0 0)
(298.709 0 0)
(298.896 0 0)
(299.051 0 0)
(299.171 0 0)
(299.255 0 0)
(299.304 0 0)
(299.315 0 0)
(299.289 0 0)
(299.22 0 0)
(299.12 0 0)
(298.954 0 0)
(298.808 0 0)
(298.45 0 0)
(221.034 0 0)
(223.401 0 0)
(225.707 0 0)
(227.956 0 0)
(230.151 0 0)
(232.292 0 0)
(234.383 0 0)
(236.425 0 0)
(238.419 0 0)
(240.368 0 0)
(242.272 0 0)
(244.134 0 0)
(245.954 0 0)
(247.734 0 0)
(249.474 0 0)
(251.176 0 0)
(252.841 0 0)
(254.469 0 0)
(256.061 0 0)
(257.619 0 0)
(259.143 0 0)
(260.633 0 0)
(262.091 0 0)
(263.517 0 0)
(264.911 0 0)
(266.274 0 0)
(267.606 0 0)
(268.908 0 0)
(270.181 0 0)
(271.425 0 0)
(272.64 0 0)
(273.826 0 0)
(274.984 0 0)
(276.115 0 0)
(277.217 0 0)
(278.293 0 0)
(279.341 0 0)
(280.363 0 0)
(281.358 0 0)
(282.326 0 0)
(283.268 0 0)
(284.184 0 0)
(285.073 0 0)
(285.937 0 0)
(286.775 0 0)
(287.587 0 0)
(288.373 0 0)
(289.133 0 0)
(289.867 0 0)
(290.575 0 0)
(291.258 0 0)
(291.914 0 0)
(292.544 0 0)
(293.148 0 0)
(293.726 0 0)
(294.277 0 0)
(294.802 0 0)
(295.3 0 0)
(295.771 0 0)
(296.214 0 0)
(296.63 0 0)
(297.018 0 0)
(297.377 0 0)
(297.708 0 0)
(298.01 0 0)
(298.283 0 0)
(298.526 0 0)
(298.738 0 0)
(298.919 0 0)
(299.068 0 0)
(299.185 0 0)
(299.269 0 0)
(299.319 0 0)
(299.335 0 0)
(299.313 0 0)
(299.26 0 0)
(299.152 0 0)
(299.053 0 0)
(298.785 0 0)
(223.662 0 0)
(225.893 0 0)
(228.07 0 0)
(230.195 0 0)
(232.271 0 0)
(234.3 0 0)
(236.282 0 0)
(238.22 0 0)
(240.115 0 0)
(241.968 0 0)
(243.781 0 0)
(245.554 0 0)
(247.29 0 0)
(248.988 0 0)
(250.649 0 0)
(252.276 0 0)
(253.868 0 0)
(255.426 0 0)
(256.951 0 0)
(258.444 0 0)
(259.906 0 0)
(261.336 0 0)
(262.736 0 0)
(264.106 0 0)
(265.446 0 0)
(266.757 0 0)
(268.04 0 0)
(269.295 0 0)
(270.522 0 0)
(271.722 0 0)
(272.894 0 0)
(274.04 0 0)
(275.16 0 0)
(276.253 0 0)
(277.321 0 0)
(278.362 0 0)
(279.379 0 0)
(280.37 0 0)
(281.335 0 0)
(282.276 0 0)
(283.192 0 0)
(284.084 0 0)
(284.951 0 0)
(285.793 0 0)
(286.611 0 0)
(287.404 0 0)
(288.173 0 0)
(288.918 0 0)
(289.638 0 0)
(290.334 0 0)
(291.006 0 0)
(291.653 0 0)
(292.276 0 0)
(292.874 0 0)
(293.447 0 0)
(293.996 0 0)
(294.519 0 0)
(295.017 0 0)
(295.49 0 0)
(295.938 0 0)
(296.359 0 0)
(296.755 0 0)
(297.124 0 0)
(297.467 0 0)
(297.782 0 0)
(298.07 0 0)
(298.331 0 0)
(298.563 0 0)
(298.766 0 0)
(298.94 0 0)
(299.085 0 0)
(299.199 0 0)
(299.281 0 0)
(299.333 0 0)
(299.35 0 0)
(299.339 0 0)
(299.279 0 0)
(299.222 0 0)
(299.031 0 0)
(226.188 0 0)
(228.292 0 0)
(230.348 0 0)
(232.358 0 0)
(234.323 0 0)
(236.246 0 0)
(238.126 0 0)
(239.966 0 0)
(241.767 0 0)
(243.529 0 0)
(245.255 0 0)
(246.945 0 0)
(248.599 0 0)
(250.22 0 0)
(251.807 0 0)
(253.361 0 0)
(254.884 0 0)
(256.375 0 0)
(257.836 0 0)
(259.266 0 0)
(260.668 0 0)
(262.04 0 0)
(263.384 0 0)
(264.7 0 0)
(265.989 0 0)
(267.25 0 0)
(268.485 0 0)
(269.693 0 0)
(270.876 0 0)
(272.033 0 0)
(273.164 0 0)
(274.271 0 0)
(275.353 0 0)
(276.41 0 0)
(277.442 0 0)
(278.451 0 0)
(279.436 0 0)
(280.396 0 0)
(281.334 0 0)
(282.247 0 0)
(283.138 0 0)
(284.005 0 0)
(284.849 0 0)
(285.67 0 0)
(286.467 0 0)
(287.242 0 0)
(287.994 0 0)
(288.723 0 0)
(289.429 0 0)
(290.112 0 0)
(290.772 0 0)
(291.409 0 0)
(292.023 0 0)
(292.614 0 0)
(293.182 0 0)
(293.726 0 0)
(294.247 0 0)
(294.744 0 0)
(295.218 0 0)
(295.667 0 0)
(296.093 0 0)
(296.494 0 0)
(296.871 0 0)
(297.222 0 0)
(297.549 0 0)
(297.85 0 0)
(298.125 0 0)
(298.374 0 0)
(298.596 0 0)
(298.792 0 0)
(298.959 0 0)
(299.099 0 0)
(299.21 0 0)
(299.293 0 0)
(299.344 0 0)
(299.369 0 0)
(299.351 0 0)
(299.33 0 0)
(299.204 0 0)
(228.588 0 0)
(230.576 0 0)
(232.52 0 0)
(234.422 0 0)
(236.284 0 0)
(238.107 0 0)
(239.892 0 0)
(241.64 0 0)
(243.352 0 0)
(245.03 0 0)
(246.674 0 0)
(248.284 0 0)
(249.863 0 0)
(251.409 0 0)
(252.926 0 0)
(254.411 0 0)
(255.868 0 0)
(257.295 0 0)
(258.695 0 0)
(260.066 0 0)
(261.41 0 0)
(262.727 0 0)
(264.017 0 0)
(265.282 0 0)
(266.521 0 0)
(267.734 0 0)
(268.923 0 0)
(270.087 0 0)
(271.227 0 0)
(272.342 0 0)
(273.434 0 0)
(274.503 0 0)
(275.548 0 0)
(276.57 0 0)
(277.569 0 0)
(278.545 0 0)
(279.499 0 0)
(280.431 0 0)
(281.34 0 0)
(282.227 0 0)
(283.092 0 0)
(283.935 0 0)
(284.757 0 0)
(285.556 0 0)
(286.334 0 0)
(287.09 0 0)
(287.825 0 0)
(288.538 0 0)
(289.23 0 0)
(289.899 0 0)
(290.548 0 0)
(291.174 0 0)
(291.779 0 0)
(292.362 0 0)
(292.924 0 0)
(293.463 0 0)
(293.98 0 0)
(294.476 0 0)
(294.949 0 0)
(295.399 0 0)
(295.827 0 0)
(296.232 0 0)
(296.614 0 0)
(296.973 0 0)
(297.309 0 0)
(297.62 0 0)
(297.908 0 0)
(298.172 0 0)
(298.41 0 0)
(298.624 0 0)
(298.812 0 0)
(298.975 0 0)
(299.11 0 0)
(299.22 0 0)
(299.301 0 0)
(299.357 0 0)
(299.376 0 0)
(299.388 0 0)
(299.318 0 0)
(230.861 0 0)
(232.74 0 0)
(234.58 0 0)
(236.383 0 0)
(238.148 0 0)
(239.878 0 0)
(241.574 0 0)
(243.236 0 0)
(244.866 0 0)
(246.463 0 0)
(248.03 0 0)
(249.566 0 0)
(251.072 0 0)
(252.55 0 0)
(253.999 0 0)
(255.42 0 0)
(256.814 0 0)
(258.181 0 0)
(259.521 0 0)
(260.836 0 0)
(262.125 0 0)
(263.39 0 0)
(264.629 0 0)
(265.845 0 0)
(267.036 0 0)
(268.204 0 0)
(269.348 0 0)
(270.469 0 0)
(271.568 0 0)
(272.644 0 0)
(273.698 0 0)
(274.729 0 0)
(275.739 0 0)
(276.727 0 0)
(277.694 0 0)
(278.639 0 0)
(279.563 0 0)
(280.466 0 0)
(281.348 0 0)
(282.209 0 0)
(283.05 0 0)
(283.87 0 0)
(284.669 0 0)
(285.448 0 0)
(286.206 0 0)
(286.944 0 0)
(287.662 0 0)
(288.359 0 0)
(289.036 0 0)
(289.693 0 0)
(290.329 0 0)
(290.945 0 0)
(291.54 0 0)
(292.115 0 0)
(292.669 0 0)
(293.203 0 0)
(293.716 0 0)
(294.209 0 0)
(294.68 0 0)
(295.131 0 0)
(295.56 0 0)
(295.968 0 0)
(296.354 0 0)
(296.719 0 0)
(297.062 0 0)
(297.383 0 0)
(297.681 0 0)
(297.957 0 0)
(298.21 0 0)
(298.439 0 0)
(298.645 0 0)
(298.827 0 0)
(298.985 0 0)
(299.118 0 0)
(299.226 0 0)
(299.31 0 0)
(299.361 0 0)
(299.401 0 0)
(299.381 0 0)
(233.013 0 0)
(234.791 0 0)
(236.535 0 0)
(238.244 0 0)
(239.919 0 0)
(241.563 0 0)
(243.175 0 0)
(244.757 0 0)
(246.308 0 0)
(247.83 0 0)
(249.324 0 0)
(250.79 0 0)
(252.229 0 0)
(253.64 0 0)
(255.026 0 0)
(256.385 0 0)
(257.72 0 0)
(259.029 0 0)
(260.314 0 0)
(261.575 0 0)
(262.813 0 0)
(264.027 0 0)
(265.218 0 0)
(266.386 0 0)
(267.532 0 0)
(268.656 0 0)
(269.758 0 0)
(270.838 0 0)
(271.898 0 0)
(272.936 0 0)
(273.953 0 0)
(274.949 0 0)
(275.925 0 0)
(276.88 0 0)
(277.815 0 0)
(278.731 0 0)
(279.626 0 0)
(280.501 0 0)
(281.357 0 0)
(282.193 0 0)
(283.009 0 0)
(283.807 0 0)
(284.584 0 0)
(285.343 0 0)
(286.082 0 0)
(286.802 0 0)
(287.503 0 0)
(288.184 0 0)
(288.847 0 0)
(289.49 0 0)
(290.114 0 0)
(290.719 0 0)
(291.305 0 0)
(291.871 0 0)
(292.418 0 0)
(292.946 0 0)
(293.455 0 0)
(293.943 0 0)
(294.413 0 0)
(294.862 0 0)
(295.292 0 0)
(295.701 0 0)
(296.091 0 0)
(296.46 0 0)
(296.809 0 0)
(297.137 0 0)
(297.445 0 0)
(297.731 0 0)
(297.996 0 0)
(298.239 0 0)
(298.461 0 0)
(298.66 0 0)
(298.837 0 0)
(298.991 0 0)
(299.121 0 0)
(299.23 0 0)
(299.31 0 0)
(299.375 0 0)
(299.399 0 0)
(235.051 0 0)
(236.736 0 0)
(238.389 0 0)
(240.011 0 0)
(241.603 0 0)
(243.165 0 0)
(244.699 0 0)
(246.205 0 0)
(247.683 0 0)
(249.134 0 0)
(250.56 0 0)
(251.959 0 0)
(253.333 0 0)
(254.683 0 0)
(256.008 0 0)
(257.31 0 0)
(258.588 0 0)
(259.843 0 0)
(261.075 0 0)
(262.285 0 0)
(263.473 0 0)
(264.639 0 0)
(265.783 0 0)
(266.907 0 0)
(268.009 0 0)
(269.091 0 0)
(270.153 0 0)
(271.194 0 0)
(272.215 0 0)
(273.217 0 0)
(274.199 0 0)
(275.161 0 0)
(276.104 0 0)
(277.028 0 0)
(277.933 0 0)
(278.819 0 0)
(279.686 0 0)
(280.535 0 0)
(281.365 0 0)
(282.177 0 0)
(282.97 0 0)
(283.745 0 0)
(284.502 0 0)
(285.24 0 0)
(285.961 0 0)
(286.663 0 0)
(287.347 0 0)
(288.013 0 0)
(288.661 0 0)
(289.291 0 0)
(289.903 0 0)
(290.497 0 0)
(291.073 0 0)
(291.631 0 0)
(292.17 0 0)
(292.692 0 0)
(293.195 0 0)
(293.679 0 0)
(294.146 0 0)
(294.594 0 0)
(295.023 0 0)
(295.433 0 0)
(295.825 0 0)
(296.197 0 0)
(296.551 0 0)
(296.885 0 0)
(297.2 0 0)
(297.495 0 0)
(297.77 0 0)
(298.026 0 0)
(298.26 0 0)
(298.475 0 0)
(298.668 0 0)
(298.841 0 0)
(298.991 0 0)
(299.121 0 0)
(299.227 0 0)
(299.314 0 0)
(299.377 0 0)
(236.983 0 0)
(238.581 0 0)
(240.15 0 0)
(241.69 0 0)
(243.204 0 0)
(244.69 0 0)
(246.15 0 0)
(247.585 0 0)
(248.994 0 0)
(250.379 0 0)
(251.739 0 0)
(253.076 0 0)
(254.39 0 0)
(255.681 0 0)
(256.949 0 0)
(258.195 0 0)
(259.419 0 0)
(260.623 0 0)
(261.804 0 0)
(262.966 0 0)
(264.106 0 0)
(265.227 0 0)
(266.327 0 0)
(267.408 0 0)
(268.469 0 0)
(269.51 0 0)
(270.533 0 0)
(271.537 0 0)
(272.522 0 0)
(273.488 0 0)
(274.436 0 0)
(275.366 0 0)
(276.277 0 0)
(277.171 0 0)
(278.047 0 0)
(278.905 0 0)
(279.745 0 0)
(280.568 0 0)
(281.373 0 0)
(282.161 0 0)
(282.932 0 0)
(283.685 0 0)
(284.421 0 0)
(285.14 0 0)
(285.842 0 0)
(286.527 0 0)
(287.195 0 0)
(287.846 0 0)
(288.48 0 0)
(289.096 0 0)
(289.696 0 0)
(290.279 0 0)
(290.845 0 0)
(291.394 0 0)
(291.925 0 0)
(292.44 0 0)
(292.937 0 0)
(293.417 0 0)
(293.88 0 0)
(294.325 0 0)
(294.753 0 0)
(295.164 0 0)
(295.556 0 0)
(295.931 0 0)
(296.288 0 0)
(296.627 0 0)
(296.948 0 0)
(297.251 0 0)
(297.535 0 0)
(297.8 0 0)
(298.047 0 0)
(298.274 0 0)
(298.482 0 0)
(298.671 0 0)
(298.839 0 0)
(298.988 0 0)
(299.116 0 0)
(299.222 0 0)
(299.319 0 0)
(238.817 0 0)
(240.333 0 0)
(241.824 0 0)
(243.288 0 0)
(244.728 0 0)
(246.142 0 0)
(247.533 0 0)
(248.901 0 0)
(250.245 0 0)
(251.567 0 0)
(252.866 0 0)
(254.144 0 0)
(255.4 0 0)
(256.635 0 0)
(257.849 0 0)
(259.043 0 0)
(260.217 0 0)
(261.37 0 0)
(262.504 0 0)
(263.619 0 0)
(264.715 0 0)
(265.792 0 0)
(266.85 0 0)
(267.889 0 0)
(268.911 0 0)
(269.914 0 0)
(270.899 0 0)
(271.867 0 0)
(272.817 0 0)
(273.75 0 0)
(274.665 0 0)
(275.563 0 0)
(276.445 0 0)
(277.309 0 0)
(278.157 0 0)
(278.987 0 0)
(279.802 0 0)
(280.599 0 0)
(281.381 0 0)
(282.146 0 0)
(282.894 0 0)
(283.627 0 0)
(284.343 0 0)
(285.043 0 0)
(285.727 0 0)
(286.395 0 0)
(287.046 0 0)
(287.682 0 0)
(288.302 0 0)
(288.906 0 0)
(289.493 0 0)
(290.065 0 0)
(290.62 0 0)
(291.16 0 0)
(291.683 0 0)
(292.191 0 0)
(292.682 0 0)
(293.157 0 0)
(293.616 0 0)
(294.058 0 0)
(294.484 0 0)
(294.894 0 0)
(295.287 0 0)
(295.663 0 0)
(296.023 0 0)
(296.365 0 0)
(296.691 0 0)
(297 0 0)
(297.291 0 0)
(297.565 0 0)
(297.821 0 0)
(298.06 0 0)
(298.28 0 0)
(298.483 0 0)
(298.667 0 0)
(298.832 0 0)
(298.98 0 0)
(299.103 0 0)
(299.23 0 0)
(240.559 0 0)
(241.999 0 0)
(243.416 0 0)
(244.809 0 0)
(246.179 0 0)
(247.527 0 0)
(248.853 0 0)
(250.157 0 0)
(251.44 0 0)
(252.702 0 0)
(253.944 0 0)
(255.165 0 0)
(256.367 0 0)
(257.549 0 0)
(258.712 0 0)
(259.856 0 0)
(260.981 0 0)
(262.088 0 0)
(263.176 0 0)
(264.247 0 0)
(265.3 0 0)
(266.335 0 0)
(267.352 0 0)
(268.353 0 0)
(269.336 0 0)
(270.303 0 0)
(271.252 0 0)
(272.185 0 0)
(273.102 0 0)
(274.002 0 0)
(274.886 0 0)
(275.754 0 0)
(276.606 0 0)
(277.443 0 0)
(278.263 0 0)
(279.068 0 0)
(279.857 0 0)
(280.63 0 0)
(281.388 0 0)
(282.131 0 0)
(282.858 0 0)
(283.57 0 0)
(284.266 0 0)
(284.948 0 0)
(285.614 0 0)
(286.265 0 0)
(286.901 0 0)
(287.522 0 0)
(288.128 0 0)
(288.718 0 0)
(289.294 0 0)
(289.854 0 0)
(290.4 0 0)
(290.93 0 0)
(291.445 0 0)
(291.945 0 0)
(292.43 0 0)
(292.899 0 0)
(293.353 0 0)
(293.792 0 0)
(294.216 0 0)
(294.624 0 0)
(295.016 0 0)
(295.393 0 0)
(295.754 0 0)
(296.099 0 0)
(296.429 0 0)
(296.742 0 0)
(297.04 0 0)
(297.321 0 0)
(297.585 0 0)
(297.833 0 0)
(298.065 0 0)
(298.279 0 0)
(298.477 0 0)
(298.657 0 0)
(298.821 0 0)
(298.96 0 0)
(299.114 0 0)
(242.215 0 0)
(243.584 0 0)
(244.932 0 0)
(246.258 0 0)
(247.563 0 0)
(248.847 0 0)
(250.112 0 0)
(251.356 0 0)
(252.581 0 0)
(253.787 0 0)
(254.974 0 0)
(256.142 0 0)
(257.293 0 0)
(258.425 0 0)
(259.539 0 0)
(260.635 0 0)
(261.715 0 0)
(262.777 0 0)
(263.822 0 0)
(264.85 0 0)
(265.862 0 0)
(266.857 0 0)
(267.836 0 0)
(268.799 0 0)
(269.746 0 0)
(270.677 0 0)
(271.592 0 0)
(272.492 0 0)
(273.377 0 0)
(274.246 0 0)
(275.1 0 0)
(275.939 0 0)
(276.763 0 0)
(277.572 0 0)
(278.366 0 0)
(279.145 0 0)
(279.91 0 0)
(280.66 0 0)
(281.395 0 0)
(282.116 0 0)
(282.822 0 0)
(283.514 0 0)
(284.192 0 0)
(284.855 0 0)
(285.504 0 0)
(286.139 0 0)
(286.759 0 0)
(287.366 0 0)
(287.958 0 0)
(288.535 0 0)
(289.099 0 0)
(289.648 0 0)
(290.183 0 0)
(290.704 0 0)
(291.21 0 0)
(291.703 0 0)
(292.181 0 0)
(292.644 0 0)
(293.093 0 0)
(293.528 0 0)
(293.949 0 0)
(294.354 0 0)
(294.746 0 0)
(295.122 0 0)
(295.484 0 0)
(295.831 0 0)
(296.163 0 0)
(296.48 0 0)
(296.782 0 0)
(297.069 0 0)
(297.341 0 0)
(297.597 0 0)
(297.838 0 0)
(298.063 0 0)
(298.272 0 0)
(298.465 0 0)
(298.644 0 0)
(298.796 0 0)
(298.973 0 0)
(243.791 0 0)
(245.093 0 0)
(246.375 0 0)
(247.638 0 0)
(248.882 0 0)
(250.107 0 0)
(251.313 0 0)
(252.502 0 0)
(253.672 0 0)
(254.825 0 0)
(255.96 0 0)
(257.078 0 0)
(258.179 0 0)
(259.263 0 0)
(260.331 0 0)
(261.383 0 0)
(262.418 0 0)
(263.438 0 0)
(264.441 0 0)
(265.429 0 0)
(266.402 0 0)
(267.359 0 0)
(268.301 0 0)
(269.228 0 0)
(270.141 0 0)
(271.038 0 0)
(271.921 0 0)
(272.789 0 0)
(273.642 0 0)
(274.482 0 0)
(275.307 0 0)
(276.117 0 0)
(276.914 0 0)
(277.697 0 0)
(278.465 0 0)
(279.22 0 0)
(279.961 0 0)
(280.688 0 0)
(281.402 0 0)
(282.102 0 0)
(282.788 0 0)
(283.461 0 0)
(284.12 0 0)
(284.765 0 0)
(285.397 0 0)
(286.016 0 0)
(286.621 0 0)
(287.213 0 0)
(287.791 0 0)
(288.356 0 0)
(288.908 0 0)
(289.446 0 0)
(289.97 0 0)
(290.482 0 0)
(290.979 0 0)
(291.464 0 0)
(291.935 0 0)
(292.392 0 0)
(292.836 0 0)
(293.266 0 0)
(293.683 0 0)
(294.086 0 0)
(294.475 0 0)
(294.851 0 0)
(295.213 0 0)
(295.561 0 0)
(295.895 0 0)
(296.214 0 0)
(296.52 0 0)
(296.812 0 0)
(297.089 0 0)
(297.352 0 0)
(297.601 0 0)
(297.835 0 0)
(298.054 0 0)
(298.258 0 0)
(298.45 0 0)
(298.613 0 0)
(298.81 0 0)
(245.291 0 0)
(246.53 0 0)
(247.752 0 0)
(248.955 0 0)
(250.141 0 0)
(251.31 0 0)
(252.462 0 0)
(253.597 0 0)
(254.715 0 0)
(255.817 0 0)
(256.904 0 0)
(257.974 0 0)
(259.029 0 0)
(260.068 0 0)
(261.091 0 0)
(262.1 0 0)
(263.094 0 0)
(264.073 0 0)
(265.037 0 0)
(265.986 0 0)
(266.922 0 0)
(267.843 0 0)
(268.749 0 0)
(269.642 0 0)
(270.521 0 0)
(271.386 0 0)
(272.237 0 0)
(273.074 0 0)
(273.898 0 0)
(274.709 0 0)
(275.506 0 0)
(276.29 0 0)
(277.06 0 0)
(277.818 0 0)
(278.562 0 0)
(279.293 0 0)
(280.011 0 0)
(280.716 0 0)
(281.409 0 0)
(282.088 0 0)
(282.754 0 0)
(283.408 0 0)
(284.049 0 0)
(284.678 0 0)
(285.293 0 0)
(285.896 0 0)
(286.486 0 0)
(287.064 0 0)
(287.628 0 0)
(288.181 0 0)
(288.72 0 0)
(289.247 0 0)
(289.762 0 0)
(290.263 0 0)
(290.752 0 0)
(291.228 0 0)
(291.692 0 0)
(292.143 0 0)
(292.581 0 0)
(293.007 0 0)
(293.419 0 0)
(293.819 0 0)
(294.206 0 0)
(294.58 0 0)
(294.941 0 0)
(295.289 0 0)
(295.624 0 0)
(295.946 0 0)
(296.254 0 0)
(296.55 0 0)
(296.832 0 0)
(297.1 0 0)
(297.355 0 0)
(297.596 0 0)
(297.824 0 0)
(298.037 0 0)
(298.241 0 0)
(298.414 0 0)
(298.629 0 0)
(246.72 0 0)
(247.901 0 0)
(249.064 0 0)
(250.212 0 0)
(251.343 0 0)
(252.459 0 0)
(253.559 0 0)
(254.644 0 0)
(255.713 0 0)
(256.768 0 0)
(257.807 0 0)
(258.832 0 0)
(259.843 0 0)
(260.839 0 0)
(261.821 0 0)
(262.789 0 0)
(263.742 0 0)
(264.683 0 0)
(265.609 0 0)
(266.522 0 0)
(267.421 0 0)
(268.308 0 0)
(269.181 0 0)
(270.04 0 0)
(270.887 0 0)
(271.721 0 0)
(272.542 0 0)
(273.35 0 0)
(274.146 0 0)
(274.928 0 0)
(275.699 0 0)
(276.456 0 0)
(277.202 0 0)
(277.935 0 0)
(278.655 0 0)
(279.363 0 0)
(280.059 0 0)
(280.743 0 0)
(281.415 0 0)
(282.074 0 0)
(282.722 0 0)
(283.357 0 0)
(283.981 0 0)
(284.592 0 0)
(285.192 0 0)
(285.779 0 0)
(286.354 0 0)
(286.918 0 0)
(287.47 0 0)
(288.009 0 0)
(288.537 0 0)
(289.053 0 0)
(289.557 0 0)
(290.049 0 0)
(290.529 0 0)
(290.997 0 0)
(291.453 0 0)
(291.897 0 0)
(292.329 0 0)
(292.75 0 0)
(293.158 0 0)
(293.554 0 0)
(293.938 0 0)
(294.31 0 0)
(294.669 0 0)
(295.017 0 0)
(295.352 0 0)
(295.675 0 0)
(295.985 0 0)
(296.283 0 0)
(296.569 0 0)
(296.842 0 0)
(297.102 0 0)
(297.35 0 0)
(297.585 0 0)
(297.806 0 0)
(298.019 0 0)
(298.201 0 0)
(298.431 0 0)
(248.083 0 0)
(249.208 0 0)
(250.317 0 0)
(251.412 0 0)
(252.492 0 0)
(253.557 0 0)
(254.608 0 0)
(255.645 0 0)
(256.668 0 0)
(257.677 0 0)
(258.673 0 0)
(259.655 0 0)
(260.623 0 0)
(261.578 0 0)
(262.52 0 0)
(263.449 0 0)
(264.365 0 0)
(265.269 0 0)
(266.159 0 0)
(267.037 0 0)
(267.902 0 0)
(268.755 0 0)
(269.596 0 0)
(270.424 0 0)
(271.24 0 0)
(272.044 0 0)
(272.836 0 0)
(273.616 0 0)
(274.384 0 0)
(275.14 0 0)
(275.885 0 0)
(276.617 0 0)
(277.338 0 0)
(278.048 0 0)
(278.745 0 0)
(279.432 0 0)
(280.106 0 0)
(280.769 0 0)
(281.421 0 0)
(282.061 0 0)
(282.69 0 0)
(283.308 0 0)
(283.914 0 0)
(284.509 0 0)
(285.093 0 0)
(285.665 0 0)
(286.226 0 0)
(286.776 0 0)
(287.314 0 0)
(287.842 0 0)
(288.358 0 0)
(288.862 0 0)
(289.356 0 0)
(289.838 0 0)
(290.309 0 0)
(290.769 0 0)
(291.218 0 0)
(291.655 0 0)
(292.081 0 0)
(292.496 0 0)
(292.899 0 0)
(293.291 0 0)
(293.672 0 0)
(294.041 0 0)
(294.398 0 0)
(294.745 0 0)
(295.079 0 0)
(295.403 0 0)
(295.714 0 0)
(296.014 0 0)
(296.302 0 0)
(296.579 0 0)
(296.843 0 0)
(297.096 0 0)
(297.337 0 0)
(297.565 0 0)
(297.786 0 0)
(297.975 0 0)
(298.218 0 0)
(249.382 0 0)
(250.455 0 0)
(251.513 0 0)
(252.558 0 0)
(253.589 0 0)
(254.607 0 0)
(255.612 0 0)
(256.604 0 0)
(257.583 0 0)
(258.549 0 0)
(259.502 0 0)
(260.443 0 0)
(261.372 0 0)
(262.288 0 0)
(263.192 0 0)
(264.084 0 0)
(264.964 0 0)
(265.832 0 0)
(266.688 0 0)
(267.532 0 0)
(268.365 0 0)
(269.186 0 0)
(269.996 0 0)
(270.794 0 0)
(271.581 0 0)
(272.356 0 0)
(273.12 0 0)
(273.873 0 0)
(274.615 0 0)
(275.345 0 0)
(276.065 0 0)
(276.773 0 0)
(277.471 0 0)
(278.157 0 0)
(278.833 0 0)
(279.498 0 0)
(280.152 0 0)
(280.795 0 0)
(281.427 0 0)
(282.049 0 0)
(282.66 0 0)
(283.26 0 0)
(283.849 0 0)
(284.428 0 0)
(284.996 0 0)
(285.554 0 0)
(286.101 0 0)
(286.637 0 0)
(287.163 0 0)
(287.678 0 0)
(288.182 0 0)
(288.676 0 0)
(289.159 0 0)
(289.632 0 0)
(290.094 0 0)
(290.545 0 0)
(290.986 0 0)
(291.416 0 0)
(291.836 0 0)
(292.245 0 0)
(292.643 0 0)
(293.03 0 0)
(293.407 0 0)
(293.773 0 0)
(294.129 0 0)
(294.473 0 0)
(294.807 0 0)
(295.13 0 0)
(295.442 0 0)
(295.743 0 0)
(296.033 0 0)
(296.312 0 0)
(296.58 0 0)
(296.836 0 0)
(297.082 0 0)
(297.316 0 0)
(297.544 0 0)
(297.739 0 0)
(297.993 0 0)
(250.623 0 0)
(251.646 0 0)
(252.656 0 0)
(253.653 0 0)
(254.639 0 0)
(255.612 0 0)
(256.573 0 0)
(257.522 0 0)
(258.459 0 0)
(259.384 0 0)
(260.298 0 0)
(261.2 0 0)
(262.09 0 0)
(262.969 0 0)
(263.837 0 0)
(264.694 0 0)
(265.539 0 0)
(266.373 0 0)
(267.197 0 0)
(268.009 0 0)
(268.811 0 0)
(269.601 0 0)
(270.381 0 0)
(271.15 0 0)
(271.909 0 0)
(272.657 0 0)
(273.394 0 0)
(274.121 0 0)
(274.837 0 0)
(275.543 0 0)
(276.239 0 0)
(276.924 0 0)
(277.599 0 0)
(278.263 0 0)
(278.918 0 0)
(279.562 0 0)
(280.196 0 0)
(280.819 0 0)
(281.433 0 0)
(282.036 0 0)
(282.63 0 0)
(283.213 0 0)
(283.786 0 0)
(284.349 0 0)
(284.902 0 0)
(285.445 0 0)
(285.978 0 0)
(286.502 0 0)
(287.015 0 0)
(287.518 0 0)
(288.01 0 0)
(288.493 0 0)
(288.966 0 0)
(289.429 0 0)
(289.882 0 0)
(290.325 0 0)
(290.758 0 0)
(291.181 0 0)
(291.594 0 0)
(291.997 0 0)
(292.39 0 0)
(292.773 0 0)
(293.145 0 0)
(293.508 0 0)
(293.86 0 0)
(294.202 0 0)
(294.535 0 0)
(294.856 0 0)
(295.168 0 0)
(295.47 0 0)
(295.761 0 0)
(296.041 0 0)
(296.312 0 0)
(296.572 0 0)
(296.822 0 0)
(297.059 0 0)
(297.293 0 0)
(297.494 0 0)
(297.757 0 0)
(251.807 0 0)
(252.783 0 0)
(253.748 0 0)
(254.701 0 0)
(255.643 0 0)
(256.573 0 0)
(257.492 0 0)
(258.401 0 0)
(259.298 0 0)
(260.185 0 0)
(261.06 0 0)
(261.925 0 0)
(262.78 0 0)
(263.623 0 0)
(264.457 0 0)
(265.28 0 0)
(266.092 0 0)
(266.894 0 0)
(267.686 0 0)
(268.468 0 0)
(269.239 0 0)
(270.001 0 0)
(270.752 0 0)
(271.494 0 0)
(272.225 0 0)
(272.947 0 0)
(273.658 0 0)
(274.36 0 0)
(275.052 0 0)
(275.734 0 0)
(276.407 0 0)
(277.069 0 0)
(277.722 0 0)
(278.366 0 0)
(279 0 0)
(279.624 0 0)
(280.238 0 0)
(280.843 0 0)
(281.439 0 0)
(282.024 0 0)
(282.601 0 0)
(283.168 0 0)
(283.725 0 0)
(284.273 0 0)
(284.811 0 0)
(285.34 0 0)
(285.859 0 0)
(286.369 0 0)
(286.87 0 0)
(287.361 0 0)
(287.843 0 0)
(288.315 0 0)
(288.778 0 0)
(289.231 0 0)
(289.675 0 0)
(290.11 0 0)
(290.535 0 0)
(290.95 0 0)
(291.356 0 0)
(291.753 0 0)
(292.14 0 0)
(292.518 0 0)
(292.886 0 0)
(293.245 0 0)
(293.594 0 0)
(293.933 0 0)
(294.263 0 0)
(294.584 0 0)
(294.895 0 0)
(295.196 0 0)
(295.487 0 0)
(295.769 0 0)
(296.041 0 0)
(296.303 0 0)
(296.556 0 0)
(296.798 0 0)
(297.036 0 0)
(297.241 0 0)
(297.512 0 0)
(252.939 0 0)
(253.871 0 0)
(254.792 0 0)
(255.703 0 0)
(256.603 0 0)
(257.493 0 0)
(258.373 0 0)
(259.243 0 0)
(260.103 0 0)
(260.952 0 0)
(261.792 0 0)
(262.622 0 0)
(263.441 0 0)
(264.252 0 0)
(265.052 0 0)
(265.843 0 0)
(266.624 0 0)
(267.395 0 0)
(268.157 0 0)
(268.909 0 0)
(269.652 0 0)
(270.386 0 0)
(271.11 0 0)
(271.825 0 0)
(272.53 0 0)
(273.226 0 0)
(273.913 0 0)
(274.591 0 0)
(275.26 0 0)
(275.919 0 0)
(276.569 0 0)
(277.21 0 0)
(277.842 0 0)
(278.465 0 0)
(279.079 0 0)
(279.684 0 0)
(280.28 0 0)
(280.866 0 0)
(281.444 0 0)
(282.013 0 0)
(282.573 0 0)
(283.123 0 0)
(283.665 0 0)
(284.198 0 0)
(284.722 0 0)
(285.237 0 0)
(285.743 0 0)
(286.241 0 0)
(286.729 0 0)
(287.208 0 0)
(287.679 0 0)
(288.14 0 0)
(288.593 0 0)
(289.037 0 0)
(289.472 0 0)
(289.898 0 0)
(290.315 0 0)
(290.723 0 0)
(291.122 0 0)
(291.512 0 0)
(291.894 0 0)
(292.266 0 0)
(292.63 0 0)
(292.984 0 0)
(293.329 0 0)
(293.666 0 0)
(293.993 0 0)
(294.312 0 0)
(294.621 0 0)
(294.922 0 0)
(295.213 0 0)
(295.495 0 0)
(295.768 0 0)
(296.032 0 0)
(296.287 0 0)
(296.531 0 0)
(296.773 0 0)
(296.982 0 0)
(297.259 0 0)
(254.02 0 0)
(254.911 0 0)
(255.791 0 0)
(256.662 0 0)
(257.523 0 0)
(258.375 0 0)
(259.217 0 0)
(260.05 0 0)
(260.874 0 0)
(261.689 0 0)
(262.494 0 0)
(263.29 0 0)
(264.077 0 0)
(264.855 0 0)
(265.624 0 0)
(266.384 0 0)
(267.135 0 0)
(267.877 0 0)
(268.61 0 0)
(269.334 0 0)
(270.05 0 0)
(270.757 0 0)
(271.455 0 0)
(272.144 0 0)
(272.825 0 0)
(273.496 0 0)
(274.16 0 0)
(274.814 0 0)
(275.46 0 0)
(276.098 0 0)
(276.726 0 0)
(277.346 0 0)
(277.958 0 0)
(278.561 0 0)
(279.156 0 0)
(279.742 0 0)
(280.32 0 0)
(280.889 0 0)
(281.449 0 0)
(282.001 0 0)
(282.545 0 0)
(283.08 0 0)
(283.607 0 0)
(284.126 0 0)
(284.636 0 0)
(285.137 0 0)
(285.63 0 0)
(286.115 0 0)
(286.591 0 0)
(287.059 0 0)
(287.519 0 0)
(287.97 0 0)
(288.412 0 0)
(288.847 0 0)
(289.273 0 0)
(289.69 0 0)
(290.099 0 0)
(290.5 0 0)
(290.892 0 0)
(291.276 0 0)
(291.651 0 0)
(292.018 0 0)
(292.376 0 0)
(292.726 0 0)
(293.068 0 0)
(293.401 0 0)
(293.725 0 0)
(294.041 0 0)
(294.349 0 0)
(294.648 0 0)
(294.939 0 0)
(295.22 0 0)
(295.494 0 0)
(295.759 0 0)
(296.015 0 0)
(296.261 0 0)
(296.506 0 0)
(296.717 0 0)
(297 0 0)
(255.054 0 0)
(255.905 0 0)
(256.747 0 0)
(257.58 0 0)
(258.404 0 0)
(259.219 0 0)
(260.026 0 0)
(260.824 0 0)
(261.614 0 0)
(262.395 0 0)
(263.168 0 0)
(263.932 0 0)
(264.687 0 0)
(265.435 0 0)
(266.174 0 0)
(266.904 0 0)
(267.627 0 0)
(268.341 0 0)
(269.046 0 0)
(269.744 0 0)
(270.433 0 0)
(271.114 0 0)
(271.787 0 0)
(272.452 0 0)
(273.109 0 0)
(273.757 0 0)
(274.397 0 0)
(275.03 0 0)
(275.654 0 0)
(276.27 0 0)
(276.878 0 0)
(277.478 0 0)
(278.07 0 0)
(278.654 0 0)
(279.23 0 0)
(279.798 0 0)
(280.358 0 0)
(280.91 0 0)
(281.454 0 0)
(281.99 0 0)
(282.519 0 0)
(283.039 0 0)
(283.551 0 0)
(284.055 0 0)
(284.551 0 0)
(285.04 0 0)
(285.52 0 0)
(285.993 0 0)
(286.457 0 0)
(286.914 0 0)
(287.362 0 0)
(287.803 0 0)
(288.236 0 0)
(288.66 0 0)
(289.077 0 0)
(289.486 0 0)
(289.887 0 0)
(290.28 0 0)
(290.665 0 0)
(291.043 0 0)
(291.412 0 0)
(291.773 0 0)
(292.126 0 0)
(292.471 0 0)
(292.809 0 0)
(293.138 0 0)
(293.459 0 0)
(293.773 0 0)
(294.078 0 0)
(294.375 0 0)
(294.664 0 0)
(294.946 0 0)
(295.219 0 0)
(295.484 0 0)
(295.741 0 0)
(295.988 0 0)
(296.235 0 0)
(296.448 0 0)
(296.735 0 0)
(256.044 0 0)
(256.857 0 0)
(257.662 0 0)
(258.459 0 0)
(259.248 0 0)
(260.029 0 0)
(260.802 0 0)
(261.567 0 0)
(262.324 0 0)
(263.073 0 0)
(263.815 0 0)
(264.548 0 0)
(265.274 0 0)
(265.992 0 0)
(266.702 0 0)
(267.405 0 0)
(268.1 0 0)
(268.787 0 0)
(269.466 0 0)
(270.138 0 0)
(270.802 0 0)
(271.459 0 0)
(272.108 0 0)
(272.749 0 0)
(273.382 0 0)
(274.009 0 0)
(274.627 0 0)
(275.238 0 0)
(275.841 0 0)
(276.437 0 0)
(277.025 0 0)
(277.606 0 0)
(278.179 0 0)
(278.744 0 0)
(279.302 0 0)
(279.853 0 0)
(280.396 0 0)
(280.931 0 0)
(281.459 0 0)
(281.98 0 0)
(282.493 0 0)
(282.998 0 0)
(283.496 0 0)
(283.986 0 0)
(284.469 0 0)
(284.945 0 0)
(285.413 0 0)
(285.873 0 0)
(286.326 0 0)
(286.772 0 0)
(287.209 0 0)
(287.64 0 0)
(288.063 0 0)
(288.478 0 0)
(288.886 0 0)
(289.287 0 0)
(289.68 0 0)
(290.065 0 0)
(290.443 0 0)
(290.813 0 0)
(291.176 0 0)
(291.532 0 0)
(291.88 0 0)
(292.22 0 0)
(292.553 0 0)
(292.878 0 0)
(293.196 0 0)
(293.506 0 0)
(293.808 0 0)
(294.104 0 0)
(294.391 0 0)
(294.671 0 0)
(294.943 0 0)
(295.208 0 0)
(295.466 0 0)
(295.713 0 0)
(295.961 0 0)
(296.176 0 0)
(296.465 0 0)
(256.991 0 0)
(257.769 0 0)
(258.539 0 0)
(259.302 0 0)
(260.057 0 0)
(260.805 0 0)
(261.546 0 0)
(262.279 0 0)
(263.005 0 0)
(263.724 0 0)
(264.436 0 0)
(265.14 0 0)
(265.838 0 0)
(266.528 0 0)
(267.211 0 0)
(267.886 0 0)
(268.555 0 0)
(269.216 0 0)
(269.871 0 0)
(270.518 0 0)
(271.158 0 0)
(271.791 0 0)
(272.417 0 0)
(273.035 0 0)
(273.647 0 0)
(274.251 0 0)
(274.849 0 0)
(275.439 0 0)
(276.022 0 0)
(276.598 0 0)
(277.167 0 0)
(277.729 0 0)
(278.284 0 0)
(278.832 0 0)
(279.372 0 0)
(279.906 0 0)
(280.432 0 0)
(280.952 0 0)
(281.464 0 0)
(281.969 0 0)
(282.468 0 0)
(282.959 0 0)
(283.443 0 0)
(283.92 0 0)
(284.39 0 0)
(284.852 0 0)
(285.308 0 0)
(285.757 0 0)
(286.198 0 0)
(286.633 0 0)
(287.06 0 0)
(287.481 0 0)
(287.894 0 0)
(288.3 0 0)
(288.699 0 0)
(289.091 0 0)
(289.476 0 0)
(289.854 0 0)
(290.225 0 0)
(290.588 0 0)
(290.945 0 0)
(291.294 0 0)
(291.637 0 0)
(291.972 0 0)
(292.3 0 0)
(292.621 0 0)
(292.935 0 0)
(293.241 0 0)
(293.541 0 0)
(293.834 0 0)
(294.119 0 0)
(294.397 0 0)
(294.668 0 0)
(294.932 0 0)
(295.19 0 0)
(295.437 0 0)
(295.686 0 0)
(295.902 0 0)
(296.193 0 0)
(257.898 0 0)
(258.642 0 0)
(259.379 0 0)
(260.109 0 0)
(260.833 0 0)
(261.549 0 0)
(262.259 0 0)
(262.963 0 0)
(263.659 0 0)
(264.35 0 0)
(265.033 0 0)
(265.71 0 0)
(266.38 0 0)
(267.043 0 0)
(267.7 0 0)
(268.35 0 0)
(268.993 0 0)
(269.63 0 0)
(270.26 0 0)
(270.884 0 0)
(271.501 0 0)
(272.111 0 0)
(272.715 0 0)
(273.312 0 0)
(273.902 0 0)
(274.486 0 0)
(275.063 0 0)
(275.633 0 0)
(276.197 0 0)
(276.754 0 0)
(277.304 0 0)
(277.848 0 0)
(278.385 0 0)
(278.916 0 0)
(279.44 0 0)
(279.957 0 0)
(280.468 0 0)
(280.972 0 0)
(281.469 0 0)
(281.959 0 0)
(282.443 0 0)
(282.92 0 0)
(283.391 0 0)
(283.855 0 0)
(284.312 0 0)
(284.763 0 0)
(285.206 0 0)
(285.644 0 0)
(286.074 0 0)
(286.498 0 0)
(286.915 0 0)
(287.325 0 0)
(287.729 0 0)
(288.126 0 0)
(288.516 0 0)
(288.9 0 0)
(289.277 0 0)
(289.647 0 0)
(290.01 0 0)
(290.367 0 0)
(290.717 0 0)
(291.061 0 0)
(291.397 0 0)
(291.727 0 0)
(292.05 0 0)
(292.367 0 0)
(292.677 0 0)
(292.98 0 0)
(293.276 0 0)
(293.566 0 0)
(293.849 0 0)
(294.125 0 0)
(294.394 0 0)
(294.657 0 0)
(294.913 0 0)
(295.161 0 0)
(295.409 0 0)
(295.625 0 0)
(295.918 0 0)
(258.766 0 0)
(259.478 0 0)
(260.184 0 0)
(260.883 0 0)
(261.576 0 0)
(262.263 0 0)
(262.944 0 0)
(263.619 0 0)
(264.288 0 0)
(264.95 0 0)
(265.607 0 0)
(266.257 0 0)
(266.901 0 0)
(267.539 0 0)
(268.17 0 0)
(268.796 0 0)
(269.415 0 0)
(270.029 0 0)
(270.636 0 0)
(271.237 0 0)
(271.831 0 0)
(272.42 0 0)
(273.002 0 0)
(273.578 0 0)
(274.148 0 0)
(274.712 0 0)
(275.269 0 0)
(275.821 0 0)
(276.366 0 0)
(276.905 0 0)
(277.437 0 0)
(277.964 0 0)
(278.484 0 0)
(278.998 0 0)
(279.505 0 0)
(280.007 0 0)
(280.502 0 0)
(280.991 0 0)
(281.473 0 0)
(281.95 0 0)
(282.42 0 0)
(282.883 0 0)
(283.341 0 0)
(283.792 0 0)
(284.237 0 0)
(284.675 0 0)
(285.107 0 0)
(285.533 0 0)
(285.953 0 0)
(286.366 0 0)
(286.773 0 0)
(287.173 0 0)
(287.568 0 0)
(287.956 0 0)
(288.337 0 0)
(288.712 0 0)
(289.081 0 0)
(289.444 0 0)
(289.8 0 0)
(290.15 0 0)
(290.494 0 0)
(290.831 0 0)
(291.162 0 0)
(291.486 0 0)
(291.804 0 0)
(292.116 0 0)
(292.422 0 0)
(292.721 0 0)
(293.014 0 0)
(293.3 0 0)
(293.58 0 0)
(293.854 0 0)
(294.121 0 0)
(294.382 0 0)
(294.638 0 0)
(294.884 0 0)
(295.132 0 0)
(295.348 0 0)
(295.64 0 0)
(259.598 0 0)
(260.28 0 0)
(260.956 0 0)
(261.626 0 0)
(262.29 0 0)
(262.949 0 0)
(263.602 0 0)
(264.249 0 0)
(264.891 0 0)
(265.527 0 0)
(266.158 0 0)
(266.783 0 0)
(267.402 0 0)
(268.015 0 0)
(268.623 0 0)
(269.225 0 0)
(269.822 0 0)
(270.412 0 0)
(270.997 0 0)
(271.577 0 0)
(272.15 0 0)
(272.718 0 0)
(273.28 0 0)
(273.836 0 0)
(274.386 0 0)
(274.931 0 0)
(275.469 0 0)
(276.002 0 0)
(276.529 0 0)
(277.05 0 0)
(277.566 0 0)
(278.075 0 0)
(278.579 0 0)
(279.077 0 0)
(279.569 0 0)
(280.055 0 0)
(280.535 0 0)
(281.009 0 0)
(281.478 0 0)
(281.94 0 0)
(282.397 0 0)
(282.847 0 0)
(283.292 0 0)
(283.73 0 0)