/*--------------------------------*- C++ -*----------------------------------*\
| =========                 |                                                 |
| \\      /  F ield         | OpenFOAM: The Open Source CFD Toolbox           |
|  \\    /   O peration     | Version:  2312                                  |
|   \\  /    A nd           | Website:  www.openfoam.com                      |
|    \\/     M anipulation  |                                                 |
\*---------------------------------------------------------------------------*/
FoamFile
{
    version     2.0;
    format      ascii;
    arch        "LSB;label=32;scalar=64";
    class       volScalarField;
    location    "1.3";
    object      wave;
}
// * * * * * * * * * * * * * * * * * * * * * * * * * * * * * * * * * * * * * //

dimensions      [0 0 0 0 0 0 0];

internalField   nonuniform List<scalar> 
100
(
0.981727
0.999462
0.992089
0.959792
0.903383
0.824279
0.724468
0.606456
0.473208
0.328073
0.174696
0.0169295
-0.141262
-0.295905
-0.443113
-0.57919
-0.700716
-0.804639
-0.888348
-0.949739
-0.98727
-0.999999
-0.987606
-0.950402
-0.889322
-0.8059
-0.702233
-0.580923
-0.445019
-0.297936
-0.143368
0.0148024
0.172601
0.326063
0.471333
0.604763
0.723
0.823073
0.902469
0.959193
0.99182
0.99953
0.982129
0.940056
0.874366
0.78671
0.67929
0.554805
0.416382
0.267499
0.111895
-0.0465193
-0.203765
-0.355892
-0.499078
-0.629727
-0.744555
-0.840678
-0.915681
-0.967681
-0.99537
-0.998054
-0.975664
-0.928763
-0.858529
-0.766728
-0.655664
-0.528129
-0.387326
-0.236793
-0.0803104
0.0781894
0.234725
0.385364
0.526321
0.654056
0.76536
0.857436
0.927972
0.975195
0.997919
0.995572
0.968215
0.916534
0.841828
0.745973
0.631378
0.500921
0.35788
0.205848
0.0486446
-0.109781
-0.265448
-0.414447
-0.553034
-0.677728
-0.785395
-0.873332
-0.939328
-0.981727
)
;

boundaryField
{
    movingWall
    {
        type            calculated;
        value           uniform 0;
    }
    fixedWalls
    {
        type            calculated;
        value           uniform 0;
    }
    frontAndBack
    {
        type            empty;
    }
}


// ************************************************************************* //
