/*--------------------------------*- C++ -*----------------------------------*\
| =========                 |                                                 |
| \\      /  F ield         | OpenFOAM: The Open Source CFD Toolbox           |
|  \\    /   O peration     | Version:  2312                                  |
|   \\  /    A nd           | Website:  www.openfoam.com                      |
|    \\/     M anipulation  |                                                 |
\*---------------------------------------------------------------------------*/
FoamFile
{
    version     2.0;
    format      ascii;
    arch        "LSB;label=32;scalar=64";
    class       volVectorField;
    location    "0.536";
    object      U;
}
// * * * * * * * * * * * * * * * * * * * * * * * * * * * * * * * * * * * * * //

dimensions      [0 1 -1 0 0 0 0];

internalField   nonuniform List<vector> 
31205
(
(173.707 0 0)
(170.324 0 0)
(166.836 0 0)
(163.239 0 0)
(159.527 0 0)
(155.694 0 0)
(151.737 0 0)
(147.655 0 0)
(143.45 0 0)
(139.133 0 0)
(134.728 0 0)
(130.275 0 0)
(125.842 0 0)
(121.526 0 0)
(117.445 0 0)
(113.723 0 0)
(110.469 0 0)
(107.753 0 0)
(105.6 0 0)
(103.995 0 0)
(102.895 0 0)
(102.238 0 0)
(101.96 0 0)
(101.998 0 0)
(102.297 0 0)
(102.81 0 0)
(103.497 0 0)
(104.327 0 0)
(105.272 0 0)
(106.312 0 0)
(107.43 0 0)
(108.61 0 0)
(109.843 0 0)
(111.119 0 0)
(112.43 0 0)
(113.77 0 0)
(115.134 0 0)
(116.517 0 0)
(117.916 0 0)
(119.328 0 0)
(120.749 0 0)
(122.179 0 0)
(123.615 0 0)
(125.055 0 0)
(126.498 0 0)
(127.944 0 0)
(129.39 0 0)
(130.835 0 0)
(132.281 0 0)
(133.724 0 0)
(135.166 0 0)
(136.605 0 0)
(138.041 0 0)
(139.474 0 0)
(140.903 0 0)
(142.327 0 0)
(143.748 0 0)
(145.164 0 0)
(146.575 0 0)
(147.982 0 0)
(149.383 0 0)
(150.779 0 0)
(152.17 0 0)
(153.555 0 0)
(154.935 0 0)
(156.31 0 0)
(157.678 0 0)
(159.041 0 0)
(160.398 0 0)
(161.75 0 0)
(163.095 0 0)
(164.435 0 0)
(165.769 0 0)
(167.095 0 0)
(168.422 0 0)
(169.723 0 0)
(171.08 0 0)
(172.239 0 0)
(173.983 0 0)
(170.647 0 0)
(167.264 0 0)
(163.777 0 0)
(160.181 0 0)
(156.471 0 0)
(152.643 0 0)
(148.696 0 0)
(144.631 0 0)
(140.454 0 0)
(136.183 0 0)
(131.851 0 0)
(127.509 0 0)
(123.237 0 0)
(119.138 0 0)
(115.33 0 0)
(111.922 0 0)
(109 0 0)
(106.61 0 0)
(104.757 0 0)
(103.411 0 0)
(102.524 0 0)
(102.035 0 0)
(101.885 0 0)
(102.017 0 0)
(102.383 0 0)
(102.939 0 0)
(103.652 0 0)
(104.492 0 0)
(105.438 0 0)
(106.47 0 0)
(107.573 0 0)
(108.734 0 0)
(109.943 0 0)
(111.192 0 0)
(112.473 0 0)
(113.782 0 0)
(115.113 0 0)
(116.463 0 0)
(117.827 0 0)
(119.204 0 0)
(120.59 0 0)
(121.984 0 0)
(123.384 0 0)
(124.788 0 0)
(126.195 0 0)
(127.604 0 0)
(129.014 0 0)
(130.424 0 0)
(131.833 0 0)
(133.241 0 0)
(134.647 0 0)
(136.051 0 0)
(137.452 0 0)
(138.85 0 0)
(140.244 0 0)
(141.635 0 0)
(143.021 0 0)
(144.403 0 0)
(145.781 0 0)
(147.154 0 0)
(148.522 0 0)
(149.885 0 0)
(151.243 0 0)
(152.596 0 0)
(153.944 0 0)
(155.286 0 0)
(156.622 0 0)
(157.954 0 0)
(159.279 0 0)
(160.6 0 0)
(161.914 0 0)
(163.223 0 0)
(164.526 0 0)
(165.822 0 0)
(167.119 0 0)
(168.39 0 0)
(169.715 0 0)
(170.851 0 0)
(172.544 0 0)
(167.43 0 0)
(164.045 0 0)
(160.557 0 0)
(156.962 0 0)
(153.255 0 0)
(149.434 0 0)
(145.5 0 0)
(141.458 0 0)
(137.322 0 0)
(133.115 0 0)
(128.881 0 0)
(124.685 0 0)
(120.615 0 0)
(116.777 0 0)
(113.278 0 0)
(110.211 0 0)
(107.635 0 0)
(105.572 0 0)
(104.011 0 0)
(102.913 0 0)
(102.227 0 0)
(101.896 0 0)
(101.865 0 0)
(102.083 0 0)
(102.508 0 0)
(103.104 0 0)
(103.839 0 0)
(104.689 0 0)
(105.634 0 0)
(106.657 0 0)
(107.745 0 0)
(108.886 0 0)
(110.072 0 0)
(111.294 0 0)
(112.547 0 0)
(113.825 0 0)
(115.125 0 0)
(116.441 0 0)
(117.772 0 0)
(119.114 0 0)
(120.465 0 0)
(121.824 0 0)
(123.189 0 0)
(124.557 0 0)
(125.929 0 0)
(127.303 0 0)
(128.677 0 0)
(130.052 0 0)
(131.426 0 0)
(132.8 0 0)
(134.171 0 0)
(135.54 0 0)
(136.907 0 0)
(138.271 0 0)
(139.631 0 0)
(140.988 0 0)
(142.341 0 0)
(143.69 0 0)
(145.035 0 0)
(146.375 0 0)
(147.711 0 0)
(149.042 0 0)
(150.368 0 0)
(151.689 0 0)
(153.005 0 0)
(154.316 0 0)
(155.622 0 0)
(156.922 0 0)
(158.217 0 0)
(159.506 0 0)
(160.791 0 0)
(162.069 0 0)
(163.343 0 0)
(164.609 0 0)
(165.876 0 0)
(167.118 0 0)
(168.412 0 0)
(169.525 0 0)
(171.171 0 0)
(164.141 0 0)
(160.754 0 0)
(157.265 0 0)
(153.67 0 0)
(149.967 0 0)
(146.156 0 0)
(142.241 0 0)
(138.232 0 0)
(134.15 0 0)
(130.029 0 0)
(125.922 0 0)
(121.907 0 0)
(118.075 0 0)
(114.53 0 0)
(111.363 0 0)
(108.644 0 0)
(106.409 0 0)
(104.661 0 0)
(103.374 0 0)
(102.505 0 0)
(102.002 0 0)
(101.814 0 0)
(101.89 0 0)
(102.186 0 0)
(102.665 0 0)
(103.295 0 0)
(104.05 0 0)
(104.908 0 0)
(105.852 0 0)
(106.866 0 0)
(107.939 0 0)
(109.061 0 0)
(110.224 0 0)
(111.42 0 0)
(112.646 0 0)
(113.894 0 0)
(115.163 0 0)
(116.447 0 0)
(117.745 0 0)
(119.054 0 0)
(120.372 0 0)
(121.696 0 0)
(123.027 0 0)
(124.361 0 0)
(125.698 0 0)
(127.038 0 0)
(128.378 0 0)
(129.719 0 0)
(131.059 0 0)
(132.398 0 0)
(133.736 0 0)
(135.072 0 0)
(136.405 0 0)
(137.736 0 0)
(139.063 0 0)
(140.387 0 0)
(141.708 0 0)
(143.024 0 0)
(144.337 0 0)
(145.645 0 0)
(146.949 0 0)
(148.249 0 0)
(149.543 0 0)
(150.833 0 0)
(152.118 0 0)
(153.399 0 0)
(154.674 0 0)
(155.944 0 0)
(157.209 0 0)
(158.468 0 0)
(159.723 0 0)
(160.972 0 0)
(162.216 0 0)
(163.453 0 0)
(164.69 0 0)
(165.904 0 0)
(167.168 0 0)
(168.257 0 0)
(169.859 0 0)
(160.827 0 0)
(157.437 0 0)
(153.947 0 0)
(150.355 0 0)
(146.66 0 0)
(142.865 0 0)
(138.978 0 0)
(135.016 0 0)
(131.008 0 0)
(126.998 0 0)
(123.052 0 0)
(119.251 0 0)
(115.69 0 0)
(112.458 0 0)
(109.631 0 0)
(107.256 0 0)
(105.346 0 0)
(103.888 0 0)
(102.85 0 0)
(102.186 0 0)
(101.846 0 0)
(101.783 0 0)
(101.953 0 0)
(102.317 0 0)
(102.843 0 0)
(103.503 0 0)
(104.274 0 0)
(105.138 0 0)
(106.078 0 0)
(107.083 0 0)
(108.141 0 0)
(109.244 0 0)
(110.384 0 0)
(111.556 0 0)
(112.754 0 0)
(113.975 0 0)
(115.213 0 0)
(116.467 0 0)
(117.733 0 0)
(119.01 0 0)
(120.295 0 0)
(121.587 0 0)
(122.884 0 0)
(124.185 0 0)
(125.489 0 0)
(126.795 0 0)
(128.102 0 0)
(129.409 0 0)
(130.717 0 0)
(132.023 0 0)
(133.328 0 0)
(134.631 0 0)
(135.932 0 0)
(137.23 0 0)
(138.525 0 0)
(139.817 0 0)
(141.106 0 0)
(142.391 0 0)
(143.672 0 0)
(144.949 0 0)
(146.222 0 0)
(147.491 0 0)
(148.755 0 0)
(150.015 0 0)
(151.27 0 0)
(152.52 0 0)
(153.765 0 0)
(155.005 0 0)
(156.241 0 0)
(157.471 0 0)
(158.696 0 0)
(159.916 0 0)
(161.132 0 0)
(162.34 0 0)
(163.549 0 0)
(164.735 0 0)
(165.969 0 0)
(167.035 0 0)
(168.596 0 0)
(157.509 0 0)
(154.118 0 0)
(150.63 0 0)
(147.044 0 0)
(143.363 0 0)
(139.592 0 0)
(135.747 0 0)
(131.85 0 0)
(127.94 0 0)
(124.073 0 0)
(120.319 0 0)
(116.765 0 0)
(113.497 0 0)
(110.591 0 0)
(108.102 0 0)
(106.053 0 0)
(104.444 0 0)
(103.251 0 0)
(102.434 0 0)
(101.95 0 0)
(101.752 0 0)
(101.798 0 0)
(102.049 0 0)
(102.471 0 0)
(103.036 0 0)
(103.721 0 0)
(104.504 0 0)
(105.371 0 0)
(106.307 0 0)
(107.301 0 0)
(108.344 0 0)
(109.428 0 0)
(110.547 0 0)
(111.694 0 0)
(112.866 0 0)
(114.058 0 0)
(115.268 0 0)
(116.492 0 0)
(117.727 0 0)
(118.973 0 0)
(120.226 0 0)
(121.486 0 0)
(122.751 0 0)
(124.02 0 0)
(125.292 0 0)
(126.566 0 0)
(127.84 0 0)
(129.116 0 0)
(130.391 0 0)
(131.665 0 0)
(132.938 0 0)
(134.209 0 0)
(135.478 0 0)
(136.745 0 0)
(138.009 0 0)
(139.27 0 0)
(140.528 0 0)
(141.782 0 0)
(143.032 0 0)
(144.279 0 0)
(145.522 0 0)
(146.76 0 0)
(147.995 0 0)
(149.224 0 0)
(150.45 0 0)
(151.671 0 0)
(152.887 0 0)
(154.098 0 0)
(155.304 0 0)
(156.506 0 0)
(157.703 0 0)
(158.894 0 0)
(160.081 0 0)
(161.262 0 0)
(162.442 0 0)
(163.601 0 0)
(164.806 0 0)
(165.848 0 0)
(167.37 0 0)
(154.197 0 0)
(150.808 0 0)
(147.326 0 0)
(143.753 0 0)
(140.093 0 0)
(136.36 0 0)
(132.573 0 0)
(128.764 0 0)
(124.981 0 0)
(121.287 0 0)
(117.758 0 0)
(114.476 0 0)
(111.517 0 0)
(108.938 0 0)
(106.774 0 0)
(105.031 0 0)
(103.696 0 0)
(102.737 0 0)
(102.115 0 0)
(101.788 0 0)
(101.713 0 0)
(101.852 0 0)
(102.172 0 0)
(102.643 0 0)
(103.241 0 0)
(103.945 0 0)
(104.738 0 0)
(105.605 0 0)
(106.535 0 0)
(107.518 0 0)
(108.546 0 0)
(109.611 0 0)
(110.707 0 0)
(111.831 0 0)
(112.977 0 0)
(114.142 0 0)
(115.324 0 0)
(116.519 0 0)
(117.724 0 0)
(118.94 0 0)
(120.163 0 0)
(121.392 0 0)
(122.625 0 0)
(123.863 0 0)
(125.103 0 0)
(126.346 0 0)
(127.589 0 0)
(128.833 0 0)
(130.077 0 0)
(131.32 0 0)
(132.562 0 0)
(133.802 0 0)
(135.04 0 0)
(136.276 0 0)
(137.51 0 0)
(138.741 0 0)
(139.968 0 0)
(141.192 0 0)
(142.413 0 0)
(143.63 0 0)
(144.843 0 0)
(146.053 0 0)
(147.258 0 0)
(148.459 0 0)
(149.655 0 0)
(150.847 0 0)
(152.035 0 0)
(153.218 0 0)
(154.396 0 0)
(155.569 0 0)
(156.738 0 0)
(157.902 0 0)
(159.061 0 0)
(160.214 0 0)
(161.367 0 0)
(162.499 0 0)
(163.676 0 0)
(164.694 0 0)
(166.178 0 0)
(150.897 0 0)
(147.514 0 0)
(144.043 0 0)
(140.491 0 0)
(136.866 0 0)
(133.185 0 0)
(129.477 0 0)
(125.782 0 0)
(122.156 0 0)
(118.668 0 0)
(115.391 0 0)
(112.4 0 0)
(109.755 0 0)
(107.495 0 0)
(105.638 0 0)
(104.176 0 0)
(103.086 0 0)
(102.335 0 0)
(101.883 0 0)
(101.691 0 0)
(101.721 0 0)
(101.94 0 0)
(102.318 0 0)
(102.83 0 0)
(103.454 0 0)
(104.173 0 0)
(104.972 0 0)
(105.839 0 0)
(106.761 0 0)
(107.732 0 0)
(108.744 0 0)
(109.79 0 0)
(110.865 0 0)
(111.965 0 0)
(113.086 0 0)
(114.225 0 0)
(115.379 0 0)
(116.545 0 0)
(117.723 0 0)
(118.908 0 0)
(120.102 0 0)
(121.301 0 0)
(122.504 0 0)
(123.712 0 0)
(124.921 0 0)
(126.133 0 0)
(127.346 0 0)
(128.56 0 0)
(129.773 0 0)
(130.986 0 0)
(132.198 0 0)
(133.408 0 0)
(134.616 0 0)
(135.823 0 0)
(137.026 0 0)
(138.228 0 0)
(139.426 0 0)
(140.621 0 0)
(141.812 0 0)
(143.001 0 0)
(144.185 0 0)
(145.366 0 0)
(146.542 0 0)
(147.715 0 0)
(148.883 0 0)
(150.047 0 0)
(151.207 0 0)
(152.362 0 0)
(153.513 0 0)
(154.659 0 0)
(155.8 0 0)
(156.937 0 0)
(158.069 0 0)
(159.195 0 0)
(160.321 0 0)
(161.427 0 0)
(162.575 0 0)
(163.571 0 0)
(165.018 0 0)
(147.613 0 0)
(144.241 0 0)
(140.791 0 0)
(137.27 0 0)
(133.693 0 0)
(130.085 0 0)
(126.481 0 0)
(122.93 0 0)
(119.491 0 0)
(116.236 0 0)
(113.232 0 0)
(110.541 0 0)
(108.207 0 0)
(106.253 0 0)
(104.679 0 0)
(103.471 0 0)
(102.599 0 0)
(102.03 0 0)
(101.725 0 0)
(101.65 0 0)
(101.77 0 0)
(102.056 0 0)
(102.483 0 0)
(103.029 0 0)
(103.675 0 0)
(104.405 0 0)
(105.207 0 0)
(106.07 0 0)
(106.985 0 0)
(107.943 0 0)
(108.938 0 0)
(109.965 0 0)
(111.019 0 0)
(112.096 0 0)
(113.192 0 0)
(114.306 0 0)
(115.433 0 0)
(116.572 0 0)
(117.721 0 0)
(118.878 0 0)
(120.043 0 0)
(121.213 0 0)
(122.387 0 0)
(123.565 0 0)
(124.745 0 0)
(125.928 0 0)
(127.111 0 0)
(128.295 0 0)
(129.479 0 0)
(130.662 0 0)
(131.845 0 0)
(133.026 0 0)
(134.205 0 0)
(135.382 0 0)
(136.557 0 0)
(137.73 0 0)
(138.899 0 0)
(140.066 0 0)
(141.229 0 0)
(142.389 0 0)
(143.546 0 0)
(144.698 0 0)
(145.847 0 0)
(146.992 0 0)
(148.133 0 0)
(149.27 0 0)
(150.402 0 0)
(151.53 0 0)
(152.654 0 0)
(153.773 0 0)
(154.888 0 0)
(155.998 0 0)
(157.104 0 0)
(158.203 0 0)
(159.303 0 0)
(160.383 0 0)
(161.505 0 0)
(162.478 0 0)
(163.888 0 0)
(144.351 0 0)
(140.999 0 0)
(137.578 0 0)
(134.102 0 0)
(130.593 0 0)
(127.08 0 0)
(123.607 0 0)
(120.228 0 0)
(117.006 0 0)
(114.006 0 0)
(111.288 0 0)
(108.899 0 0)
(106.865 0 0)
(105.196 0 0)
(103.882 0 0)
(102.9 0 0)
(102.221 0 0)
(101.809 0 0)
(101.632 0 0)
(101.656 0 0)
(101.853 0 0)
(102.196 0 0)
(102.664 0 0)
(103.237 0 0)
(103.9 0 0)
(104.639 0 0)
(105.442 0 0)
(106.3 0 0)
(107.205 0 0)
(108.149 0 0)
(109.128 0 0)
(110.136 0 0)
(111.169 0 0)
(112.224 0 0)
(113.296 0 0)
(114.384 0 0)
(115.485 0 0)
(116.598 0 0)
(117.72 0 0)
(118.85 0 0)
(119.986 0 0)
(121.128 0 0)
(122.273 0 0)
(123.423 0 0)
(124.575 0 0)
(125.728 0 0)
(126.883 0 0)
(128.038 0 0)
(129.193 0 0)
(130.348 0 0)
(131.502 0 0)
(132.655 0 0)
(133.806 0 0)
(134.955 0 0)
(136.102 0 0)
(137.246 0 0)
(138.388 0 0)
(139.527 0 0)
(140.663 0 0)
(141.795 0 0)
(142.924 0 0)
(144.05 0 0)
(145.172 0 0)
(146.29 0 0)
(147.404 0 0)
(148.514 0 0)
(149.62 0 0)
(150.721 0 0)
(151.819 0 0)
(152.912 0 0)
(154 0 0)
(155.084 0 0)
(156.164 0 0)
(157.238 0 0)
(158.312 0 0)
(159.367 0 0)
(160.462 0 0)
(161.414 0 0)
(162.788 0 0)
(141.118 0 0)
(137.794 0 0)
(134.417 0 0)
(131.004 0 0)
(127.582 0 0)
(124.191 0 0)
(120.878 0 0)
(117.7 0 0)
(114.717 0 0)
(111.989 0 0)
(109.561 0 0)
(107.465 0 0)
(105.716 0 0)
(104.309 0 0)
(103.228 0 0)
(102.448 0 0)
(101.936 0 0)
(101.662 0 0)
(101.594 0 0)
(101.703 0 0)
(101.965 0 0)
(102.356 0 0)
(102.858 0 0)
(103.454 0 0)
(104.129 0 0)
(104.873 0 0)
(105.675 0 0)
(106.527 0 0)
(107.421 0 0)
(108.352 0 0)
(109.315 0 0)
(110.304 0 0)
(111.316 0 0)
(112.348 0 0)
(113.397 0 0)
(114.461 0 0)
(115.537 0 0)
(116.623 0 0)
(117.719 0 0)
(118.822 0 0)
(119.931 0 0)
(121.045 0 0)
(122.163 0 0)
(123.285 0 0)
(124.409 0 0)
(125.535 0 0)
(126.662 0 0)
(127.789 0 0)
(128.917 0 0)
(130.044 0 0)
(131.17 0 0)
(132.295 0 0)
(133.418 0 0)
(134.54 0 0)
(135.66 0 0)
(136.777 0 0)
(137.892 0 0)
(139.004 0 0)
(140.113 0 0)
(141.219 0 0)
(142.321 0 0)
(143.42 0 0)
(144.516 0 0)
(145.607 0 0)
(146.695 0 0)
(147.779 0 0)
(148.859 0 0)
(149.935 0 0)
(151.007 0 0)
(152.074 0 0)
(153.138 0 0)
(154.196 0 0)
(155.251 0 0)
(156.3 0 0)
(157.349 0 0)
(158.379 0 0)
(159.448 0 0)
(160.378 0 0)
(161.717 0 0)
(137.924 0 0)
(134.641 0 0)
(131.322 0 0)
(127.992 0 0)
(124.683 0 0)
(121.44 0 0)
(118.314 0 0)
(115.361 0 0)
(112.636 0 0)
(110.186 0 0)
(108.044 0 0)
(106.23 0 0)
(104.744 0 0)
(103.576 0 0)
(102.703 0 0)
(102.098 0 0)
(101.733 0 0)
(101.577 0 0)
(101.602 0 0)
(101.785 0 0)
(102.101 0 0)
(102.533 0 0)
(103.062 0 0)
(103.676 0 0)
(104.361 0 0)
(105.108 0 0)
(105.907 0 0)
(106.751 0 0)
(107.635 0 0)
(108.551 0 0)
(109.497 0 0)
(110.468 0 0)
(111.459 0 0)
(112.47 0 0)
(113.496 0 0)
(114.536 0 0)
(115.587 0 0)
(116.648 0 0)
(117.718 0 0)
(118.795 0 0)
(119.878 0 0)
(120.965 0 0)
(122.057 0 0)
(123.152 0 0)
(124.249 0 0)
(125.347 0 0)
(126.447 0 0)
(127.548 0 0)
(128.648 0 0)
(129.748 0 0)
(130.848 0 0)
(131.946 0 0)
(133.043 0 0)
(134.138 0 0)
(135.231 0 0)
(136.322 0 0)
(137.41 0 0)
(138.496 0 0)
(139.579 0 0)
(140.658 0 0)
(141.735 0 0)
(142.808 0 0)
(143.878 0 0)
(144.944 0 0)
(146.007 0 0)
(147.065 0 0)
(148.12 0 0)
(149.171 0 0)
(150.218 0 0)
(151.26 0 0)
(152.299 0 0)
(153.333 0 0)
(154.363 0 0)
(155.387 0 0)
(156.411 0 0)
(157.417 0 0)
(158.461 0 0)
(159.37 0 0)
(160.676 0 0)
(134.778 0 0)
(131.552 0 0)
(128.311 0 0)
(125.087 0 0)
(121.917 0 0)
(118.85 0 0)
(115.935 0 0)
(113.226 0 0)
(110.767 0 0)
(108.595 0 0)
(106.73 0 0)
(105.178 0 0)
(103.933 0 0)
(102.978 0 0)
(102.288 0 0)
(101.838 0 0)
(101.599 0 0)
(101.545 0 0)
(101.651 0 0)
(101.895 0 0)
(102.258 0 0)
(102.723 0 0)
(103.275 0 0)
(103.902 0 0)
(104.594 0 0)
(105.341 0 0)
(106.136 0 0)
(106.973 0 0)
(107.844 0 0)
(108.747 0 0)
(109.676 0 0)
(110.627 0 0)
(111.599 0 0)
(112.588 0 0)
(113.592 0 0)
(114.609 0 0)
(115.636 0 0)
(116.673 0 0)
(117.718 0 0)
(118.769 0 0)
(119.827 0 0)
(120.888 0 0)
(121.954 0 0)
(123.023 0 0)
(124.093 0 0)
(125.166 0 0)
(126.24 0 0)
(127.314 0 0)
(128.388 0 0)
(129.462 0 0)
(130.535 0 0)
(131.607 0 0)
(132.678 0 0)
(133.747 0 0)
(134.815 0 0)
(135.88 0 0)
(136.943 0 0)
(138.003 0 0)
(139.06 0 0)
(140.115 0 0)
(141.166 0 0)
(142.214 0 0)
(143.259 0 0)
(144.3 0 0)
(145.338 0 0)
(146.372 0 0)
(147.402 0 0)
(148.428 0 0)
(149.451 0 0)
(150.469 0 0)
(151.483 0 0)
(152.493 0 0)
(153.499 0 0)
(154.499 0 0)
(155.499 0 0)
(156.482 0 0)
(157.501 0 0)
(158.39 0 0)
(159.662 0 0)
(131.697 0 0)
(128.545 0 0)
(125.405 0 0)
(122.311 0 0)
(119.306 0 0)
(116.438 0 0)
(113.755 0 0)
(111.3 0 0)
(109.11 0 0)
(107.208 0 0)
(105.604 0 0)
(104.294 0 0)
(103.267 0 0)
(102.5 0 0)
(101.972 0 0)
(101.655 0 0)
(101.525 0 0)
(101.558 0 0)
(101.733 0 0)
(102.029 0 0)
(102.431 0 0)
(102.924 0 0)
(103.494 0 0)
(104.132 0 0)
(104.828 0 0)
(105.574 0 0)
(106.363 0 0)
(107.19 0 0)
(108.05 0 0)
(108.938 0 0)
(109.85 0 0)
(110.784 0 0)
(111.736 0 0)
(112.704 0 0)
(113.686 0 0)
(114.68 0 0)
(115.684 0 0)
(116.697 0 0)
(117.718 0 0)
(118.745 0 0)
(119.777 0 0)
(120.814 0 0)
(121.854 0 0)
(122.897 0 0)
(123.943 0 0)
(124.99 0 0)
(126.038 0 0)
(127.087 0 0)
(128.136 0 0)
(129.184 0 0)
(130.232 0 0)
(131.279 0 0)
(132.325 0 0)
(133.369 0 0)
(134.411 0 0)
(135.451 0 0)
(136.489 0 0)
(137.524 0 0)
(138.557 0 0)
(139.587 0 0)
(140.614 0 0)
(141.637 0 0)
(142.658 0 0)
(143.675 0 0)
(144.688 0 0)
(145.698 0 0)
(146.704 0 0)
(147.707 0 0)
(148.705 0 0)
(149.7 0 0)
(150.69 0 0)
(151.677 0 0)
(152.659 0 0)
(153.636 0 0)
(154.613 0 0)
(155.573 0 0)
(156.567 0 0)
(157.436 0 0)
(158.675 0 0)
(128.697 0 0)
(125.64 0 0)
(122.624 0 0)
(119.686 0 0)
(116.87 0 0)
(114.221 0 0)
(111.781 0 0)
(109.586 0 0)
(107.66 0 0)
(106.015 0 0)
(104.652 0 0)
(103.562 0 0)
(102.727 0 0)
(102.128 0 0)
(101.739 0 0)
(101.538 0 0)
(101.502 0 0)
(101.61 0 0)
(101.843 0 0)
(102.183 0 0)
(102.618 0 0)
(103.133 0 0)
(103.718 0 0)
(104.363 0 0)
(105.061 0 0)
(105.805 0 0)
(106.588 0 0)
(107.405 0 0)
(108.252 0 0)
(109.125 0 0)
(110.021 0 0)
(110.936 0 0)
(111.869 0 0)
(112.817 0 0)
(113.777 0 0)
(114.749 0 0)
(115.731 0 0)
(116.721 0 0)
(117.718 0 0)
(118.721 0 0)
(119.729 0 0)
(120.742 0 0)
(121.758 0 0)
(122.776 0 0)
(123.797 0 0)
(124.82 0 0)
(125.843 0 0)
(126.867 0 0)
(127.891 0 0)
(128.915 0 0)
(129.938 0 0)
(130.961 0 0)
(131.982 0 0)
(133.001 0 0)
(134.019 0 0)
(135.035 0 0)
(136.049 0 0)
(137.06 0 0)
(138.069 0 0)
(139.074 0 0)
(140.077 0 0)
(141.077 0 0)
(142.074 0 0)
(143.067 0 0)
(144.057 0 0)
(145.044 0 0)
(146.027 0 0)
(147.006 0 0)
(147.981 0 0)
(148.952 0 0)
(149.92 0 0)
(150.883 0 0)
(151.843 0 0)
(152.797 0 0)
(153.751 0 0)
(154.688 0 0)
(155.659 0 0)
(156.508 0 0)
(157.716 0 0)
(125.796 0 0)
(122.858 0 0)
(119.99 0 0)
(117.231 0 0)
(114.624 0 0)
(112.208 0 0)
(110.018 0 0)
(108.079 0 0)
(106.405 0 0)
(105 0 0)
(103.857 0 0)
(102.963 0 0)
(102.3 0 0)
(101.846 0 0)
(101.58 0 0)
(101.479 0 0)
(101.523 0 0)
(101.694 0 0)
(101.976 0 0)
(102.354 0 0)
(102.815 0 0)
(103.349 0 0)
(103.945 0 0)
(104.596 0 0)
(105.294 0 0)
(106.033 0 0)
(106.809 0 0)
(107.615 0 0)
(108.45 0 0)
(109.308 0 0)
(110.188 0 0)
(111.085 0 0)
(111.999 0 0)
(112.927 0 0)
(113.866 0 0)
(114.817 0 0)
(115.776 0 0)
(116.744 0 0)
(117.718 0 0)
(118.698 0 0)
(119.683 0 0)
(120.672 0 0)
(121.664 0 0)
(122.659 0 0)
(123.656 0 0)
(124.655 0 0)
(125.654 0 0)
(126.654 0 0)
(127.654 0 0)
(128.654 0 0)
(129.653 0 0)
(130.652 0 0)
(131.649 0 0)
(132.645 0 0)
(133.639 0 0)
(134.631 0 0)
(135.621 0 0)
(136.609 0 0)
(137.594 0 0)
(138.577 0 0)
(139.557 0 0)
(140.533 0 0)
(141.507 0 0)
(142.477 0 0)
(143.445 0 0)
(144.408 0 0)
(145.368 0 0)
(146.324 0 0)
(147.277 0 0)
(148.226 0 0)
(149.171 0 0)
(150.112 0 0)
(151.049 0 0)
(151.981 0 0)
(152.912 0 0)
(153.828 0 0)
(154.776 0 0)
(155.606 0 0)
(156.782 0 0)
(123.017 0 0)
(120.22 0 0)
(117.523 0 0)
(114.963 0 0)
(112.579 0 0)
(110.404 0 0)
(108.462 0 0)
(106.77 0 0)
(105.333 0 0)
(104.147 0 0)
(103.203 0 0)
(102.484 0 0)
(101.971 0 0)
(101.644 0 0)
(101.482 0 0)
(101.467 0 0)
(101.581 0 0)
(101.806 0 0)
(102.13 0 0)
(102.538 0 0)
(103.022 0 0)
(103.57 0 0)
(104.174 0 0)
(104.828 0 0)
(105.525 0 0)
(106.259 0 0)
(107.026 0 0)
(107.822 0 0)
(108.644 0 0)
(109.487 0 0)
(110.35 0 0)
(111.23 0 0)
(112.126 0 0)
(113.034 0 0)
(113.953 0 0)
(114.883 0 0)
(115.821 0 0)
(116.767 0 0)
(117.719 0 0)
(118.676 0 0)
(119.638 0 0)
(120.605 0 0)
(121.574 0 0)
(122.546 0 0)
(123.519 0 0)
(124.495 0 0)
(125.471 0 0)
(126.448 0 0)
(127.424 0 0)
(128.401 0 0)
(129.377 0 0)
(130.353 0 0)
(131.327 0 0)
(132.299 0 0)
(133.271 0 0)
(134.24 0 0)
(135.207 0 0)
(136.172 0 0)
(137.134 0 0)
(138.094 0 0)
(139.051 0 0)
(140.005 0 0)
(140.957 0 0)
(141.905 0 0)
(142.849 0 0)
(143.791 0 0)
(144.728 0 0)
(145.663 0 0)
(146.593 0 0)
(147.52 0 0)
(148.443 0 0)
(149.362 0 0)
(150.277 0 0)
(151.188 0 0)
(152.097 0 0)
(152.992 0 0)
(153.917 0 0)
(154.729 0 0)
(155.874 0 0)
(120.379 0 0)
(117.746 0 0)
(115.239 0 0)
(112.894 0 0)
(110.741 0 0)
(108.806 0 0)
(107.105 0 0)
(105.646 0 0)
(104.427 0 0)
(103.441 0 0)
(102.674 0 0)
(102.108 0 0)
(101.726 0 0)
(101.509 0 0)
(101.439 0 0)
(101.497 0 0)
(101.669 0 0)
(101.94 0 0)
(102.299 0 0)
(102.734 0 0)
(103.235 0 0)
(103.794 0 0)
(104.404 0 0)
(105.059 0 0)
(105.753 0 0)
(106.482 0 0)
(107.24 0 0)
(108.025 0 0)
(108.833 0 0)
(109.662 0 0)
(110.509 0 0)
(111.372 0 0)
(112.249 0 0)
(113.138 0 0)
(114.038 0 0)
(114.947 0 0)
(115.865 0 0)
(116.789 0 0)
(117.72 0 0)
(118.655 0 0)
(119.595 0 0)
(120.539 0 0)
(121.486 0 0)
(122.436 0 0)
(123.387 0 0)
(124.34 0 0)
(125.293 0 0)
(126.247 0 0)
(127.202 0 0)
(128.156 0 0)
(129.109 0 0)
(130.062 0 0)
(131.014 0 0)
(131.964 0 0)
(132.913 0 0)
(133.86 0 0)
(134.805 0 0)
(135.747 0 0)
(136.688 0 0)
(137.626 0 0)
(138.561 0 0)
(139.493 0 0)
(140.422 0 0)
(141.348 0 0)
(142.271 0 0)
(143.191 0 0)
(144.107 0 0)
(145.02 0 0)
(145.929 0 0)
(146.834 0 0)
(147.736 0 0)
(148.634 0 0)
(149.528 0 0)
(150.417 0 0)
(151.305 0 0)
(152.178 0 0)
(153.082 0 0)
(153.875 0 0)
(154.992 0 0)
(117.903 0 0)
(115.453 0 0)
(113.152 0 0)
(111.029 0 0)
(109.109 0 0)
(107.408 0 0)
(105.936 0 0)
(104.693 0 0)
(103.673 0 0)
(102.865 0 0)
(102.254 0 0)
(101.823 0 0)
(101.555 0 0)
(101.433 0 0)
(101.44 0 0)
(101.561 0 0)
(101.783 0 0)
(102.094 0 0)
(102.482 0 0)
(102.937 0 0)
(103.453 0 0)
(104.021 0 0)
(104.635 0 0)
(105.289 0 0)
(105.979 0 0)
(106.701 0 0)
(107.45 0 0)
(108.224 0 0)
(109.019 0 0)
(109.833 0 0)
(110.664 0 0)
(111.51 0 0)
(112.369 0 0)
(113.24 0 0)
(114.12 0 0)
(115.01 0 0)
(115.907 0 0)
(116.811 0 0)
(117.721 0 0)
(118.635 0 0)
(119.554 0 0)
(120.476 0 0)
(121.402 0 0)
(122.329 0 0)
(123.259 0 0)
(124.189 0 0)
(125.121 0 0)
(126.053 0 0)
(126.986 0 0)
(127.918 0 0)
(128.85 0 0)
(129.781 0 0)
(130.711 0 0)
(131.639 0 0)
(132.566 0 0)
(133.491 0 0)
(134.415 0 0)
(135.336 0 0)
(136.254 0 0)
(137.171 0 0)
(138.084 0 0)
(138.995 0 0)
(139.903 0 0)
(140.808 0 0)
(141.71 0 0)
(142.609 0 0)
(143.504 0 0)
(144.395 0 0)
(145.284 0 0)
(146.168 0 0)
(147.049 0 0)
(147.926 0 0)
(148.799 0 0)
(149.667 0 0)
(150.535 0 0)
(151.388 0 0)
(152.27 0 0)
(153.046 0 0)
(154.133 0 0)
(115.606 0 0)
(113.353 0 0)
(111.267 0 0)
(109.369 0 0)
(107.677 0 0)
(106.2 0 0)
(104.941 0 0)
(103.895 0 0)
(103.053 0 0)
(102.403 0 0)
(101.929 0 0)
(101.616 0 0)
(101.446 0 0)
(101.406 0 0)
(101.48 0 0)
(101.655 0 0)
(101.92 0 0)
(102.263 0 0)
(102.675 0 0)
(103.148 0 0)
(103.675 0 0)
(104.249 0 0)
(104.865 0 0)
(105.518 0 0)
(106.203 0 0)
(106.917 0 0)
(107.656 0 0)
(108.419 0 0)
(109.201 0 0)
(110 0 0)
(110.816 0 0)
(111.645 0 0)
(112.487 0 0)
(113.339 0 0)
(114.201 0 0)
(115.071 0 0)
(115.948 0 0)
(116.832 0 0)
(117.722 0 0)
(118.616 0 0)
(119.514 0 0)
(120.415 0 0)
(121.32 0 0)
(122.226 0 0)
(123.134 0 0)
(124.044 0 0)
(124.955 0 0)
(125.865 0 0)
(126.777 0 0)
(127.688 0 0)
(128.598 0 0)
(129.508 0 0)
(130.416 0 0)
(131.324 0 0)
(132.23 0 0)
(133.134 0 0)
(134.036 0 0)
(134.936 0 0)
(135.834 0 0)
(136.729 0 0)
(137.622 0 0)
(138.512 0 0)
(139.4 0 0)
(140.284 0 0)
(141.165 0 0)
(142.043 0 0)
(142.918 0 0)
(143.789 0 0)
(144.657 0 0)
(145.521 0 0)
(146.381 0 0)
(147.238 0 0)
(148.091 0 0)
(148.939 0 0)
(149.787 0 0)
(150.62 0 0)
(151.481 0 0)
(152.239 0 0)
(153.298 0 0)
(113.5 0 0)
(111.454 0 0)
(109.585 0 0)
(107.909 0 0)
(106.435 0 0)
(105.167 0 0)
(104.103 0 0)
(103.235 0 0)
(102.553 0 0)
(102.042 0 0)
(101.688 0 0)
(101.476 0 0)
(101.392 0 0)
(101.421 0 0)
(101.553 0 0)
(101.773 0 0)
(102.074 0 0)
(102.444 0 0)
(102.876 0 0)
(103.364 0 0)
(103.899 0 0)
(104.477 0 0)
(105.094 0 0)
(105.743 0 0)
(106.423 0 0)
(107.129 0 0)
(107.859 0 0)
(108.609 0 0)
(109.378 0 0)
(110.163 0 0)
(110.963 0 0)
(111.776 0 0)
(112.601 0 0)
(113.435 0 0)
(114.279 0 0)
(115.131 0 0)
(115.989 0 0)
(116.853 0 0)
(117.723 0 0)
(118.597 0 0)
(119.475 0 0)
(120.356 0 0)
(121.24 0 0)
(122.126 0 0)
(123.014 0 0)
(123.903 0 0)
(124.793 0 0)
(125.683 0 0)
(126.574 0 0)
(127.464 0 0)
(128.354 0 0)
(129.243 0 0)
(130.131 0 0)
(131.018 0 0)
(131.903 0 0)
(132.787 0 0)
(133.669 0 0)
(134.548 0 0)
(135.426 0 0)
(136.301 0 0)
(137.174 0 0)
(138.044 0 0)
(138.911 0 0)
(139.775 0 0)
(140.636 0 0)
(141.494 0 0)
(142.349 0 0)
(143.2 0 0)
(144.048 0 0)
(144.892 0 0)
(145.733 0 0)
(146.57 0 0)
(147.403 0 0)
(148.232 0 0)
(149.059 0 0)
(149.873 0 0)
(150.714 0 0)
(151.455 0 0)
(152.487 0 0)
(111.593 0 0)
(109.758 0 0)
(108.103 0 0)
(106.639 0 0)
(105.371 0 0)
(104.295 0 0)
(103.408 0 0)
(102.699 0 0)
(102.156 0 0)
(101.767 0 0)
(101.517 0 0)
(101.393 0 0)
(101.383 0 0)
(101.473 0 0)
(101.653 0 0)
(101.912 0 0)
(102.243 0 0)
(102.636 0 0)
(103.085 0 0)
(103.583 0 0)
(104.125 0 0)
(104.705 0 0)
(105.321 0 0)
(105.967 0 0)
(106.64 0 0)
(107.338 0 0)
(108.057 0 0)
(108.795 0 0)
(109.551 0 0)
(110.323 0 0)
(111.107 0 0)
(111.904 0 0)
(112.712 0 0)
(113.529 0 0)
(114.355 0 0)
(115.189 0 0)
(116.028 0 0)
(116.874 0 0)
(117.724 0 0)
(118.579 0 0)
(119.438 0 0)
(120.299 0 0)
(121.164 0 0)
(122.03 0 0)
(122.898 0 0)
(123.767 0 0)
(124.636 0 0)
(125.507 0 0)
(126.377 0 0)
(127.247 0 0)
(128.117 0 0)
(128.986 0 0)
(129.854 0 0)
(130.721 0 0)
(131.587 0 0)
(132.45 0 0)
(133.312 0 0)
(134.172 0 0)
(135.03 0 0)
(135.885 0 0)
(136.738 0 0)
(137.589 0 0)
(138.436 0 0)
(139.281 0 0)
(140.122 0 0)
(140.961 0 0)
(141.796 0 0)
(142.628 0 0)
(143.457 0 0)
(144.281 0 0)
(145.103 0 0)
(145.92 0 0)
(146.735 0 0)
(147.544 0 0)
(148.353 0 0)
(149.148 0 0)
(149.968 0 0)
(150.693 0 0)
(151.698 0 0)
(109.887 0 0)
(108.26 0 0)
(106.812 0 0)
(105.549 0 0)
(104.469 0 0)
(103.568 0 0)
(102.839 0 0)
(102.271 0 0)
(101.851 0 0)
(101.568 0 0)
(101.408 0 0)
(101.36 0 0)
(101.412 0 0)
(101.554 0 0)
(101.776 0 0)
(102.068 0 0)
(102.424 0 0)
(102.836 0 0)
(103.298 0 0)
(103.804 0 0)
(104.351 0 0)
(104.932 0 0)
(105.546 0 0)
(106.187 0 0)
(106.853 0 0)
(107.542 0 0)
(108.251 0 0)
(108.978 0 0)
(109.721 0 0)
(110.478 0 0)
(111.248 0 0)
(112.029 0 0)
(112.82 0 0)
(113.621 0 0)
(114.429 0 0)
(115.245 0 0)
(116.067 0 0)
(116.894 0 0)
(117.726 0 0)
(118.562 0 0)
(119.402 0 0)
(120.244 0 0)
(121.089 0 0)
(121.936 0 0)
(122.785 0 0)
(123.634 0 0)
(124.485 0 0)
(125.336 0 0)
(126.187 0 0)
(127.037 0 0)
(127.888 0 0)
(128.737 0 0)
(129.586 0 0)
(130.434 0 0)
(131.28 0 0)
(132.124 0 0)
(132.967 0 0)
(133.807 0 0)
(134.646 0 0)
(135.482 0 0)
(136.316 0 0)
(137.147 0 0)
(137.975 0 0)
(138.801 0 0)
(139.624 0 0)
(140.443 0 0)
(141.26 0 0)
(142.073 0 0)
(142.882 0 0)
(143.688 0 0)
(144.491 0 0)
(145.29 0 0)
(146.085 0 0)
(146.876 0 0)
(147.666 0 0)
(148.443 0 0)
(149.243 0 0)
(149.953 0 0)
(150.931 0 0)
(108.378 0 0)
(106.952 0 0)
(105.7 0 0)
(104.622 0 0)
(103.714 0 0)
(102.971 0 0)
(102.382 0 0)
(101.937 0 0)
(101.624 0 0)
(101.433 0 0)
(101.352 0 0)
(101.369 0 0)
(101.475 0 0)
(101.661 0 0)
(101.918 0 0)
(102.238 0 0)
(102.615 0 0)
(103.042 0 0)
(103.515 0 0)
(104.028 0 0)
(104.577 0 0)
(105.158 0 0)
(105.768 0 0)
(106.404 0 0)
(107.063 0 0)
(107.742 0 0)
(108.441 0 0)
(109.156 0 0)
(109.886 0 0)
(110.629 0 0)
(111.384 0 0)
(112.15 0 0)
(112.926 0 0)
(113.71 0 0)
(114.502 0 0)
(115.3 0 0)
(116.104 0 0)
(116.914 0 0)
(117.728 0 0)
(118.546 0 0)
(119.367 0 0)
(120.191 0 0)
(121.017 0 0)
(121.846 0 0)
(122.675 0 0)
(123.506 0 0)
(124.338 0 0)
(125.17 0 0)
(126.002 0 0)
(126.834 0 0)
(127.665 0 0)
(128.496 0 0)
(129.326 0 0)
(130.155 0 0)
(130.982 0 0)
(131.807 0 0)
(132.631 0 0)
(133.453 0 0)
(134.273 0 0)
(135.091 0 0)
(135.906 0 0)
(136.719 0 0)
(137.528 0 0)
(138.335 0 0)
(139.14 0 0)
(139.941 0 0)
(140.739 0 0)
(141.533 0 0)
(142.325 0 0)
(143.112 0 0)
(143.897 0 0)
(144.677 0 0)
(145.455 0 0)
(146.227 0 0)
(146.999 0 0)
(147.758 0 0)
(148.539 0 0)
(149.233 0 0)
(150.186 0 0)
(107.06 0 0)
(105.824 0 0)
(104.753 0 0)
(103.844 0 0)
(103.091 0 0)
(102.487 0 0)
(102.022 0 0)
(101.685 0 0)
(101.466 0 0)
(101.354 0 0)
(101.34 0 0)
(101.413 0 0)
(101.566 0 0)
(101.789 0 0)
(102.075 0 0)
(102.419 0 0)
(102.813 0 0)
(103.253 0 0)
(103.734 0 0)
(104.251 0 0)
(104.801 0 0)
(105.381 0 0)
(105.987 0 0)
(106.617 0 0)
(107.268 0 0)
(107.939 0 0)
(108.626 0 0)
(109.33 0 0)
(110.047 0 0)
(110.777 0 0)
(111.518 0 0)
(112.269 0 0)
(113.029 0 0)
(113.797 0 0)
(114.572 0 0)
(115.354 0 0)
(116.141 0 0)
(116.933 0 0)
(117.73 0 0)
(118.53 0 0)
(119.333 0 0)
(120.139 0 0)
(120.948 0 0)
(121.758 0 0)
(122.569 0 0)
(123.382 0 0)
(124.195 0 0)
(125.009 0 0)
(125.823 0 0)
(126.636 0 0)
(127.45 0 0)
(128.262 0 0)
(129.074 0 0)
(129.884 0 0)
(130.693 0 0)
(131.5 0 0)
(132.306 0 0)
(133.11 0 0)
(133.912 0 0)
(134.711 0 0)
(135.508 0 0)
(136.303 0 0)
(137.094 0 0)
(137.884 0 0)
(138.67 0 0)
(139.453 0 0)
(140.233 0 0)
(141.01 0 0)
(141.783 0 0)
(142.553 0 0)
(143.32 0 0)
(144.083 0 0)
(144.842 0 0)
(145.597 0 0)
(146.351 0 0)
(147.092 0 0)
(147.855 0 0)
(148.534 0 0)
(149.462 0 0)
(105.92 0 0)
(104.861 0 0)
(103.956 0 0)
(103.199 0 0)
(102.585 0 0)
(102.103 0 0)
(101.746 0 0)
(101.504 0 0)
(101.366 0 0)
(101.323 0 0)
(101.366 0 0)
(101.488 0 0)
(101.68 0 0)
(101.935 0 0)
(102.246 0 0)
(102.609 0 0)
(103.018 0 0)
(103.467 0 0)
(103.954 0 0)
(104.474 0 0)
(105.025 0 0)
(105.602 0 0)
(106.203 0 0)
(106.827 0 0)
(107.47 0 0)
(108.131 0 0)
(108.808 0 0)
(109.499 0 0)
(110.204 0 0)
(110.92 0 0)
(111.647 0 0)
(112.384 0 0)
(113.129 0 0)
(113.881 0 0)
(114.641 0 0)
(115.406 0 0)
(116.177 0 0)
(116.952 0 0)
(117.731 0 0)
(118.515 0 0)
(119.301 0 0)
(120.089 0 0)
(120.88 0 0)
(121.673 0 0)
(122.467 0 0)
(123.262 0 0)
(124.057 0 0)
(124.853 0 0)
(125.649 0 0)
(126.445 0 0)
(127.241 0 0)
(128.035 0 0)
(128.829 0 0)
(129.622 0 0)
(130.413 0 0)
(131.203 0 0)
(131.991 0 0)
(132.777 0 0)
(133.561 0 0)
(134.343 0 0)
(135.122 0 0)
(135.899 0 0)
(136.673 0 0)
(137.445 0 0)
(138.214 0 0)
(138.979 0 0)
(139.742 0 0)
(140.501 0 0)
(141.257 0 0)
(142.01 0 0)
(142.759 0 0)
(143.505 0 0)
(144.247 0 0)
(144.985 0 0)
(145.721 0 0)
(146.445 0 0)
(147.191 0 0)
(147.854 0 0)
(148.758 0 0)
(104.946 0 0)
(104.049 0 0)
(103.294 0 0)
(102.673 0 0)
(102.18 0 0)
(101.807 0 0)
(101.544 0 0)
(101.383 0 0)
(101.315 0 0)
(101.332 0 0)
(101.425 0 0)
(101.588 0 0)
(101.813 0 0)
(102.095 0 0)
(102.428 0 0)
(102.806 0 0)
(103.226 0 0)
(103.684 0 0)
(104.175 0 0)
(104.697 0 0)
(105.246 0 0)
(105.82 0 0)
(106.416 0 0)
(107.032 0 0)
(107.667 0 0)
(108.319 0 0)
(108.985 0 0)
(109.665 0 0)
(110.357 0 0)
(111.061 0 0)
(111.774 0 0)
(112.496 0 0)
(113.226 0 0)
(113.963 0 0)
(114.707 0 0)
(115.457 0 0)
(116.211 0 0)
(116.97 0 0)
(117.733 0 0)
(118.5 0 0)
(119.269 0 0)