/*--------------------------------*- C++ -*----------------------------------*\
| =========                 |                                                 |
| \\      /  F ield         | OpenFOAM: The Open Source CFD Toolbox           |
|  \\    /   O peration     | Version:  2312                                  |
|   \\  /    A nd           | Website:  www.openfoam.com                      |
|    \\/     M anipulation  |                                                 |
\*---------------------------------------------------------------------------*/
FoamFile
{
    version     2.0;
    format      ascii;
    arch        "LSB;label=32;scalar=64";
    class       volVectorField;
    location    "2.1";
    object      flux;
}
// * * * * * * * * * * * * * * * * * * * * * * * * * * * * * * * * * * * * * //

dimensions      [0 1 -1 1 0 0 0];

internalField   nonuniform List<vector> 
100
(
(-7.18812 0 0)
(-6.88634 0 0)
(-6.5883 0 0)
(-6.29446 0 0)
(-6.00525 0 0)
(-5.72105 0 0)
(-5.44221 0 0)
(-5.16903 0 0)
(-4.9018 0 0)
(-4.64074 0 0)
(-4.38608 0 0)
(-4.138 0 0)
(-3.89663 0 0)
(-3.66212 0 0)
(-3.43456 0 0)
(-3.21403 0 0)
(-3.00057 0 0)
(-2.79424 0 0)
(-2.59503 0 0)
(-2.40294 0 0)
(-2.21796 0 0)
(-2.04005 0 0)
(-1.86916 0 0)
(-1.70521 0 0)
(-1.54814 0 0)
(-1.39786 0 0)
(-1.25427 0 0)
(-1.11727 0 0)
(-0.986722 0 0)
(-0.862522 0 0)
(-0.744535 0 0)
(-0.632624 0 0)
(-0.526648 0 0)
(-0.426463 0 0)
(-0.331918 0 0)
(-0.242862 0 0)
(-0.159138 0 0)
(-0.0805905 0 0)
(-0.0070608 0 0)
(0.0616105 0 0)
(0.125583 0 0)
(0.185017 0 0)
(0.240072 0 0)
(0.290906 0 0)
(0.337677 0 0)
(0.380541 0 0)
(0.419652 0 0)
(0.455163 0 0)
(0.487224 0 0)
(0.515982 0 0)
(0.541583 0 0)
(0.564167 0 0)
(0.583875 0 0)
(0.600842 0 0)
(0.6152 0 0)
(0.627078 0 0)
(0.636602 0 0)
(0.643893 0 0)
(0.649069 0 0)
(0.652244 0 0)
(0.653529 0 0)
(0.653031 0 0)
(0.650852 0 0)
(0.647092 0 0)
(0.641845 0 0)
(0.635202 0 0)
(0.627253 0 0)
(0.618079 0 0)
(0.607762 0 0)
(0.596377 0 0)
(0.583998 0 0)
(0.570694 0 0)
(0.556531 0 0)
(0.541571 0 0)
(0.525873 0 0)
(0.509494 0 0)
(0.492485 0 0)
(0.474898 0 0)
(0.456779 0 0)
(0.438171 0 0)
(0.419117 0 0)
(0.399654 0 0)
(0.37982 0 0)
(0.359648 0 0)
(0.339169 0 0)
(0.318414 0 0)
(0.297409 0 0)
(0.27618 0 0)
(0.254751 0 0)
(0.233143 0 0)
(0.211379 0 0)
(0.189476 0 0)
(0.167452 0 0)
(0.145326 0 0)
(0.123111 0 0)
(0.100824 0 0)
(0.078478 0 0)
(0.0560873 0 0)
(0.033665 0 0)
(0.0112238 0 0)
)
;

boundaryField
{
    movingWall
    {
        type            calculated;
        value           uniform (-7.33988 0 0);
    }
    fixedWalls
    {
        type            calculated;
        value           nonuniform List<vector> 
201
(
(-7.18812 0 0)
(-6.88634 0 0)
(-6.5883 0 0)
(-6.29446 0 0)
(-6.00525 0 0)
(-5.72105 0 0)
(-5.44221 0 0)
(-5.16903 0 0)
(-4.9018 0 0)
(-4.64074 0 0)
(-4.38608 0 0)
(-4.138 0 0)
(-3.89663 0 0)
(-3.66212 0 0)
(-3.43456 0 0)
(-3.21403 0 0)
(-3.00057 0 0)
(-2.79424 0 0)
(-2.59503 0 0)
(-2.40294 0 0)
(-2.21796 0 0)
(-2.04005 0 0)
(-1.86916 0 0)
(-1.70521 0 0)
(-1.54814 0 0)
(-1.39786 0 0)
(-1.25427 0 0)
(-1.11727 0 0)
(-0.986722 0 0)
(-0.862522 0 0)
(-0.744535 0 0)
(-0.632624 0 0)
(-0.526648 0 0)
(-0.426463 0 0)
(-0.331918 0 0)
(-0.242862 0 0)
(-0.159138 0 0)
(-0.0805905 0 0)
(-0.0070608 0 0)
(0.0616105 0 0)
(0.125583 0 0)
(0.185017 0 0)
(0.240072 0 0)
(0.290906 0 0)
(0.337677 0 0)
(0.380541 0 0)
(0.419652 0 0)
(0.455163 0 0)
(0.487224 0 0)
(0.515982 0 0)
(0.541583 0 0)
(0.564167 0 0)
(0.583875 0 0)
(0.600842 0 0)
(0.6152 0 0)
(0.627078 0 0)
(0.636602 0 0)
(0.643893 0 0)
(0.649069 0 0)
(0.652244 0 0)
(0.653529 0 0)
(0.653031 0 0)
(0.650852 0 0)
(0.647092 0 0)
(0.641845 0 0)
(0.635202 0 0)
(0.627253 0 0)
(0.618079 0 0)
(0.607762 0 0)
(0.596377 0 0)
(0.583998 0 0)
(0.570694 0 0)
(0.556531 0 0)
(0.541571 0 0)
(0.525873 0 0)
(0.509494 0 0)
(0.492485 0 0)
(0.474898 0 0)
(0.456779 0 0)
(0.438171 0 0)
(0.419117 0 0)
(0.399654 0 0)
(0.37982 0 0)
(0.359648 0 0)
(0.339169 0 0)
(0.318414 0 0)
(0.297409 0 0)
(0.27618 0 0)
(0.254751 0 0)
(0.233143 0 0)
(0.211379 0 0)
(0.189476 0 0)
(0.167452 0 0)
(0.145326 0 0)
(0.123111 0 0)
(0.100824 0 0)
(0.078478 0 0)
(0.0560873 0 0)
(0.033665 0 0)
(0.0112238 0 0)
(0 0 0)
(-7.18812 0 0)
(-6.88634 0 0)
(-6.5883 0 0)
(-6.29446 0 0)
(-6.00525 0 0)
(-5.72105 0 0)
(-5.44221 0 0)
(-5.16903 0 0)
(-4.9018 0 0)
(-4.64074 0 0)
(-4.38608 0 0)
(-4.138 0 0)
(-3.89663 0 0)
(-3.66212 0 0)
(-3.43456 0 0)
(-3.21403 0 0)
(-3.00057 0 0)
(-2.79424 0 0)
(-2.59503 0 0)
(-2.40294 0 0)
(-2.21796 0 0)
(-2.04005 0 0)
(-1.86916 0 0)
(-1.70521 0 0)
(-1.54814 0 0)
(-1.39786 0 0)
(-1.25427 0 0)
(-1.11727 0 0)
(-0.986722 0 0)
(-0.862522 0 0)
(-0.744535 0 0)
(-0.632624 0 0)
(-0.526648 0 0)
(-0.426463 0 0)
(-0.331918 0 0)
(-0.242862 0 0)
(-0.159138 0 0)
(-0.0805905 0 0)
(-0.0070608 0 0)
(0.0616105 0 0)
(0.125583 0 0)
(0.185017 0 0)
(0.240072 0 0)
(0.290906 0 0)
(0.337677 0 0)
(0.380541 0 0)
(0.419652 0 0)
(0.455163 0 0)
(0.487224 0 0)
(0.515982 0 0)
(0.541583 0 0)
(0.564167 0 0)
(0.583875 0 0)
(0.600842 0 0)
(0.6152 0 0)
(0.627078 0 0)
(0.636602 0 0)
(0.643893 0 0)
(0.649069 0 0)
(0.652244 0 0)
(0.653529 0 0)
(0.653031 0 0)
(0.650852 0 0)
(0.647092 0 0)
(0.641845 0 0)
(0.635202 0 0)
(0.627253 0 0)
(0.618079 0 0)
(0.607762 0 0)
(0.596377 0 0)
(0.583998 0 0)
(0.570694 0 0)
(0.556531 0 0)
(0.541571 0 0)
(0.525873 0 0)
(0.509494 0 0)
(0.492485 0 0)
(0.474898 0 0)
(0.456779 0 0)
(0.438171 0 0)
(0.419117 0 0)
(0.399654 0 0)
(0.37982 0 0)
(0.359648 0 0)
(0.339169 0 0)
(0.318414 0 0)
(0.297409 0 0)
(0.27618 0 0)
(0.254751 0 0)
(0.233143 0 0)
(0.211379 0 0)
(0.189476 0 0)
(0.167452 0 0)
(0.145326 0 0)
(0.123111 0 0)
(0.100824 0 0)
(0.078478 0 0)
(0.0560873 0 0)
(0.033665 0 0)
(0.0112238 0 0)
)
;
    }
    frontAndBack
    {
        type            empty;
    }
}


// ************************************************************************* //
