/*--------------------------------*- C++ -*----------------------------------*\
| =========                 |                                                 |
| \\      /  F ield         | OpenFOAM: The Open Source CFD Toolbox           |
|  \\    /   O peration     | Version:  2312                                  |
|   \\  /    A nd           | Website:  www.openfoam.com                      |
|    \\/     M anipulation  |                                                 |
\*---------------------------------------------------------------------------*/
FoamFile
{
    version     2.0;
    format      ascii;
    arch        "LSB;label=32;scalar=64";
    class       volScalarField;
    location    "2.1";
    object      gradTx;
}
// * * * * * * * * * * * * * * * * * * * * * * * * * * * * * * * * * * * * * //

dimensions      [0 -1 0 1 0 0 0];

internalField   nonuniform List<scalar> 
100
(
-7.18812
-6.88634
-6.5883
-6.29446
-6.00525
-5.72105
-5.44221
-5.16903
-4.9018
-4.64074
-4.38608
-4.138
-3.89663
-3.66212
-3.43456
-3.21403
-3.00057
-2.79424
-2.59503
-2.40294
-2.21796
-2.04005
-1.86916
-1.70521
-1.54814
-1.39786
-1.25427
-1.11727
-0.986722
-0.862522
-0.744535
-0.632624
-0.526648
-0.426463
-0.331918
-0.242862
-0.159138
-0.0805905
-0.0070608
0.0616105
0.125583
0.185017
0.240072
0.290906
0.337677
0.380541
0.419652
0.455163
0.487224
0.515982
0.541583
0.564167
0.583875
0.600842
0.6152
0.627078
0.636602
0.643893
0.649069
0.652244
0.653529
0.653031
0.650852
0.647092
0.641845
0.635202
0.627253
0.618079
0.607762
0.596377
0.583998
0.570694
0.556531
0.541571
0.525873
0.509494
0.492485
0.474898
0.456779
0.438171
0.419117
0.399654
0.37982
0.359648
0.339169
0.318414
0.297409
0.27618
0.254751
0.233143
0.211379
0.189476
0.167452
0.145326
0.123111
0.100824
0.078478
0.0560873
0.033665
0.0112238
)
;

boundaryField
{
    movingWall
    {
        type            calculated;
        value           uniform -7.33988;
    }
    fixedWalls
    {
        type            calculated;
        value           nonuniform List<scalar> 
201
(
-7.18812
-6.88634
-6.5883
-6.29446
-6.00525
-5.72105
-5.44221
-5.16903
-4.9018
-4.64074
-4.38608
-4.138
-3.89663
-3.66212
-3.43456
-3.21403
-3.00057
-2.79424
-2.59503
-2.40294
-2.21796
-2.04005
-1.86916
-1.70521
-1.54814
-1.39786
-1.25427
-1.11727
-0.986722
-0.862522
-0.744535
-0.632624
-0.526648
-0.426463
-0.331918
-0.242862
-0.159138
-0.0805905
-0.0070608
0.0616105
0.125583
0.185017
0.240072
0.290906
0.337677
0.380541
0.419652
0.455163
0.487224
0.515982
0.541583
0.564167
0.583875
0.600842
0.6152
0.627078
0.636602
0.643893
0.649069
0.652244
0.653529
0.653031
0.650852
0.647092
0.641845
0.635202
0.627253
0.618079
0.607762
0.596377
0.583998
0.570694
0.556531
0.541571
0.525873
0.509494
0.492485
0.474898
0.456779
0.438171
0.419117
0.399654
0.37982
0.359648
0.339169
0.318414
0.297409
0.27618
0.254751
0.233143
0.211379
0.189476
0.167452
0.145326
0.123111
0.100824
0.078478
0.0560873
0.033665
0.0112238
0
-7.18812
-6.88634
-6.5883
-6.29446
-6.00525
-5.72105
-5.44221
-5.16903
-4.9018
-4.64074
-4.38608
-4.138
-3.89663
-3.66212
-3.43456
-3.21403
-3.00057
-2.79424
-2.59503
-2.40294
-2.21796
-2.04005
-1.86916
-1.70521
-1.54814
-1.39786
-1.25427
-1.11727
-0.986722
-0.862522
-0.744535
-0.632624
-0.526648
-0.426463
-0.331918
-0.242862
-0.159138
-0.0805905
-0.0070608
0.0616105
0.125583
0.185017
0.240072
0.290906
0.337677
0.380541
0.419652
0.455163
0.487224
0.515982
0.541583
0.564167
0.583875
0.600842
0.6152
0.627078
0.636602
0.643893
0.649069
0.652244
0.653529
0.653031
0.650852
0.647092
0.641845
0.635202
0.627253
0.618079
0.607762
0.596377
0.583998
0.570694
0.556531
0.541571
0.525873
0.509494
0.492485
0.474898
0.456779
0.438171
0.419117
0.399654
0.37982
0.359648
0.339169
0.318414
0.297409
0.27618
0.254751
0.233143
0.211379
0.189476
0.167452
0.145326
0.123111
0.100824
0.078478
0.0560873
0.033665
0.0112238
)
;
    }
    frontAndBack
    {
        type            empty;
    }
}


// ************************************************************************* //
