/*--------------------------------*- C++ -*----------------------------------*\
| =========                 |                                                 |
| \\      /  F ield         | OpenFOAM: The Open Source CFD Toolbox           |
|  \\    /   O peration     | Version:  2312                                  |
|   \\  /    A nd           | Website:  www.openfoam.com                      |
|    \\/     M anipulation  |                                                 |
\*---------------------------------------------------------------------------*/
FoamFile
{
    version     2.0;
    format      ascii;
    arch        "LSB;label=32;scalar=64";
    class       surfaceScalarField;
    location    "0.309";
    object      phi;
}
// * * * * * * * * * * * * * * * * * * * * * * * * * * * * * * * * * * * * * //

dimensions      [0 3 -1 0 0 0 0];

oriented        oriented;

internalField   nonuniform List<scalar> 
62015
(
89.3168
0.174231
-89.3806
89.2449
0.170848
89.1651
0.16737
89.0777
0.163799
88.9826
0.160138
88.8802
0.156389
88.7706
0.152555
88.6538
0.148639
88.5299
0.144644
88.3991
0.140574
88.2615
0.13643
88.117
0.132216
87.9657
0.127935
87.8077
0.123591
87.6429
0.119186
87.4713
0.114724
87.2928
0.110208
87.1075
0.105642
86.9152
0.101028
86.7157
0.0963712
86.5091
0.0916743
86.2951
0.0869406
86.0736
0.0821743
85.8443
0.0773791
85.6071
0.0725583
85.3616
0.0677163
85.1075
0.0628563
84.8445
0.0579831
84.5723
0.0531003
84.2903
0.0482119
83.9982
0.0433221
83.6954
0.0384354
83.3812
0.0335565
83.0552
0.0286888
82.7164
0.0238382
82.3642
0.0190081
81.9975
0.0142044
81.6155
0.00943183
81.2168
0.00469492
80.8003
0
80.3645
-0.00464777
79.9077
-0.00924294
79.428
-0.0137784
78.9231
-0.0182482
78.3906
-0.0226456
77.8274
-0.026962
77.2299
-0.0311906
76.5936
-0.0353209
75.9133
-0.0393436
75.1845
-0.0432472
74.3991
-0.0470193
73.5329
-0.0506447
72.556
-0.0540925
71.5172
-0.0573219
70.5799
-0.0603662
69.5327
-0.0633928
66.7714
-0.066176
59.9652
-0.0668071
49.7334
-0.0622854
40.3188
-0.0533098
34.6491
-0.0451782
32.1691
-0.0410947
31.3116
-0.0402157
31.117
-0.0409108
31.182
-0.0422559
31.3557
-0.043866
31.5812
-0.0455936
31.8355
-0.047381
32.1087
-0.0492041
32.3955
-0.0510514
32.6932
-0.0529168
32.9999
-0.0547959
33.3141
-0.0566865
33.6355
-0.0585849
33.9616
-0.0604924
34.2977
-0.0623969
34.6249
-0.0643288
34.9995
-0.0661859
-0.0682814
35.2481
86.7373
0.343636
-86.8138
86.6537
0.336911
86.5632
0.330002
86.466
0.322915
86.3621
0.315654
86.2518
0.308224
86.1351
0.300632
86.0121
0.292882
85.883
0.284981
85.7477
0.276932
85.6064
0.268744
85.4591
0.260421
85.3058
0.25197
85.1465
0.243395
84.9813
0.234705
84.81
0.225905
84.6327
0.217001
84.4493
0.207999
84.2597
0.198908
84.0638
0.189732
83.8616
0.18048
83.6528
0.171158
83.4372
0.161772
83.2148
0.15233
82.9853
0.14284
82.7484
0.133309
82.5039
0.123744
82.2515
0.114153
81.9907
0.104542
81.7213
0.0949225
81.4428
0.0852995
81.1547
0.0756825
80.8565
0.0660792
80.5477
0.0564992
80.2274
0.0469501
79.8951
0.0374416
79.55
0.0279825
79.191
0.0185825
78.8173
0.00925172
78.4276
0
78.0208
-0.00916202
77.5952
-0.0182233
77.1493
-0.0271724
76.6812
-0.0359968
76.1887
-0.0446835
75.6692
-0.0532188
75.1197
-0.0615869
74.5366
-0.0697725
73.9151
-0.0777563
73.2508
-0.0855179
72.539
-0.093034
71.7686
-0.100282
70.9104
-0.107224
69.9481
-0.113784
68.9761
-0.119903
68.1308
-0.125758
66.8757
-0.131663
63.1839
-0.13634
55.2591
-0.134577
45.0802
-0.121433
36.9551
-0.102229
32.5881
-0.0879724
30.8229
-0.0820497
30.2598
-0.0814849
30.1728
-0.0833361
30.2738
-0.0861614
30.456
-0.0893878
30.6785
-0.0927966
30.9247
-0.0963016
31.187
-0.0998652
31.4612
-0.103469
31.7453
-0.107103
32.0373
-0.110761
32.3368
-0.114434
32.6413
-0.118126
32.9555
-0.121812
33.2621
-0.125549
33.6129
-0.129146
-0.13319
33.8487
84.2216
0.508283
-84.3095
84.1277
0.498261
84.0277
0.487973
83.9219
0.477429
83.8102
0.466633
83.6929
0.455595
83.57
0.444321
83.4417
0.432821
83.3079
0.421101
83.1688
0.409169
83.0244
0.397036
82.8747
0.384708
82.7197
0.372194
82.5596
0.359503
82.3941
0.346645
82.2234
0.333628
82.0473
0.320461
81.8659
0.307154
81.679
0.293717
81.4865
0.280158
81.2884
0.266489
81.0845
0.252718
80.8746
0.238857
80.6586
0.224914
80.4363
0.210902
80.2075
0.19683
79.9718
0.18271
79.7291
0.168551
79.479
0.154366
79.2211
0.140166
78.9551
0.125962
78.6806
0.111767
78.397
0.097591
78.1038
0.0834483
77.8005
0.0693502
77.4864
0.0553104
77.1608
0.0413418
76.8229
0.0274574
76.4717
0.0136721
76.1063
0
75.7256
-0.0135439
75.3282
-0.026944
74.9128
-0.0401842
74.4776
-0.0532464
74.0209
-0.0661132
73.5402
-0.0787652
73.0333
-0.0911809
72.4969
-0.103338
71.9273
-0.115212
71.3201
-0.126775
70.671
-0.137994
69.975
-0.148838
69.216
-0.159268
68.3631
-0.169212
67.4257
-0.178544
66.5403
-0.187254
65.7413
-0.195791
64.0629
-0.204296
59.2333
-0.209045
50.4185
-0.200659
40.7746
-0.175488
34.0814
-0.146894
30.8455
-0.129308
29.631
-0.123429
29.2835
-0.123979
29.2735
-0.127256
29.3991
-0.131619
29.5854
-0.136437
29.8035
-0.141468
30.0412
-0.146615
30.2927
-0.151834
30.5548
-0.157103
30.8256
-0.162409
31.1041
-0.16774
31.388
-0.173098
31.6815
-0.17845
31.9684
-0.183874
32.2964
-0.189101
-0.194954
32.5193
81.7667
0.668228
-81.8641
81.6639
0.654961
81.5559
0.641354
81.4427
0.627416
81.3246
0.613155
81.2014
0.598584
81.0735
0.583709
80.9407
0.568544
80.8032
0.553096
80.6611
0.537377
80.5143
0.521398
80.363
0.50517
80.207
0.488703
80.0464
0.472009
79.8812
0.455099
79.7114
0.437985
79.5369
0.42068
79.3577
0.403194
79.1736
0.385541
78.9847
0.367732
78.7908
0.349781
78.5917
0.3317
78.3874
0.313502
78.1777
0.2952
77.9624
0.276809
77.7412
0.258341
77.5141
0.23981
77.2806
0.221232
77.0405
0.202619
76.7935
0.183986
76.5393
0.165349
76.2775
0.146722
76.0075
0.128121
75.729
0.109561
75.4415
0.0910588
75.1443
0.0726306
74.8368
0.054293
74.5182
0.0360636
74.1879
0.0179598
73.8449
0
73.4881
-0.0177967
73.1166
-0.0354107
72.7289
-0.0528214
72.3237
-0.0700068
71.8994
-0.0869456
71.454
-0.103612
70.9853
-0.119981
70.4909
-0.136025
69.9675
-0.151714
69.4114
-0.167014
68.8183
-0.181888
68.1845
-0.196292
67.5031
-0.210185
66.7527
-0.22351
65.9067
-0.236142
65.0111
-0.247919
64.2238
-0.259009
63.3796
-0.270172
61.0414
-0.280591
55.0136
-0.282389
45.7152
-0.262751
37.0127
-0.224066
31.7144
-0.18862
29.3823
-0.170326
28.5679
-0.165719
28.3711
-0.167806
28.4135
-0.172618
28.5545
-0.178516
28.7416
-0.184876
28.9541
-0.191459
29.183
-0.198166
29.4239
-0.204952
29.6742
-0.211793
29.9327
-0.21867
30.1969
-0.225584
30.4706
-0.232491
30.7388
-0.239488
31.0453
-0.246241
-0.253774
31.2553
79.3712
0.823536
-79.4767
79.2611
0.807082
79.1465
0.790218
79.0273
0.772955
78.9038
0.755304
78.7761
0.737277
78.6441
0.718886
78.5079
0.700142
78.3677
0.68106
78.2234
0.661651
78.075
0.641928
77.9227
0.621903
77.7663
0.601592
77.606
0.581007
77.4416
0.560161
77.2732
0.539071
77.1006
0.517748
76.9239
0.496208
76.7431
0.474467
76.5579
0.452538
76.3683
0.430437
76.1742
0.40818
75.9755
0.385782
75.772
0.363259
75.5635
0.340628
75.3499
0.317904
75.131
0.295106
74.9064
0.272248
74.676
0.24935
74.4395
0.226428
74.1965
0.2035
73.9467
0.180585
73.6897
0.1577
73.4251
0.134864
73.1524
0.112098
72.8711
0.0894193
72.5805
0.0668499
72.2802
0.0444091
71.9693
0.0221184
71.6471
0
71.3126
-0.021924
70.965
-0.0436304
70.603
-0.0650948
70.2255
-0.0862915
69.8309
-0.107195
69.4178
-0.127776
68.9841
-0.148005
68.5277
-0.16785
68.0462
-0.187277
67.5362
-0.206249
66.9939
-0.224721
66.4155
-0.242646
65.7974
-0.259974
65.1298
-0.276651
64.3867
-0.292589
63.5541
-0.307599
62.72
-0.32154
62.0214
-0.334906
61.001
-0.348597
57.8178
-0.359548
50.7301
-0.354399
41.4255
-0.319694
33.8897
-0.268241
29.8039
-0.229051
28.1434
-0.211915
27.6057
-0.209198
27.5099
-0.212976
27.5863
-0.219332
27.7358
-0.226719
27.921
-0.234554
28.1269
-0.242611
28.3469
-0.250792
28.5773
-0.259055
28.8165
-0.267369
29.0618
-0.275731
29.3167
-0.284087
29.567
-0.292551
29.8533
-0.300728
-0.309823
30.0505
77.0349
0.974277
-77.147
76.9187
0.954699
76.7987
0.934646
76.6748
0.91413
76.5471
0.893165
76.4158
0.871764
76.2807
0.849942
76.1421
0.827711
76
0.805088
75.8543
0.782085
75.7051
0.758719
75.5525
0.735005
75.3964
0.710957
75.2368
0.686592
75.0737
0.661926
74.9071
0.636975
74.7369
0.611756
74.5631
0.586285
74.3857
0.56058
74.2044
0.534659
74.0194
0.508538
73.8304
0.482235
73.6373
0.45577
73.44
0.429161
73.2383
0.402425
73.0322
0.375583
72.8212
0.348653
72.6054
0.321656
72.3844
0.29461
72.1579
0.267537
71.9257
0.240457
71.6874
0.21339
71.4428
0.186359
71.1914
0.159384
70.9327
0.132489
70.6664
0.105694
70.3919
0.079024
70.1087
0.0525023
69.816
0.0261525
69.5133
0
69.1996
-0.0259298
68.8743
-0.0516105
68.5362
-0.0770143
68.1843
-0.102113
67.8173
-0.126876
67.4339
-0.151273
67.0323
-0.17527
66.6108
-0.198831
66.1672
-0.221919
65.699
-0.244492
65.2028
-0.266504
64.6749
-0.287904
64.112
-0.308635
63.5101
-0.328637
62.8553
-0.347843
62.1202
-0.366119
61.3116
-0.383213
60.5549
-0.399104
59.9105
-0.414731
58.5692
-0.430645
54.4531
-0.439924
46.5863
-0.423463
37.6875
-0.371524
31.3579
-0.309644
28.2493
-0.269477
27.0687
-0.254565
26.7188
-0.253958
26.6897
-0.259429
26.7872
-0.267279
26.9402
-0.276087
27.1217
-0.28532
27.3205
-0.294765
27.5314
-0.304335
27.7518
-0.313978
27.979
-0.323682
28.2157
-0.333386
28.4489
-0.343214
28.7159
-0.352718
-0.363259
28.901
74.7572
1.12053
-74.8746
74.6363
1.09789
74.512
1.07472
74.3844
1.05103
74.2536
1.02683
74.1196
1.00214
73.9824
0.976972
73.8422
0.951345
73.6989
0.925275
73.5525
0.898778
73.4032
0.87187
73.2509
0.844569
73.0956
0.816893
72.9372
0.788858
72.7759
0.760485
72.6115
0.731789
72.444
0.702792
72.2734
0.673511
72.0996
0.643965
71.9226
0.614175
71.7422
0.58416
71.5583
0.553942
71.3709
0.523538
71.1798
0.492972
70.9849
0.462264
70.786
0.431435
70.583
0.400508
70.3756
0.369504
70.1636
0.338445
69.9469
0.307355
69.7251
0.276256
69.4979
0.245173
69.265
0.214127
69.0262
0.183145
68.7809
0.152252
68.5288
0.12147
68.2695
0.0908282
68.0023
0.0603509
67.7268
0.0300658
67.4423
0
67.1482
-0.0298177
66.8436
-0.0593578
66.5278
-0.0885905
66.1996
-0.117484
65.8582
-0.146006
65.5022
-0.174121
65.1303
-0.201793
64.7408
-0.228986
64.3319
-0.255655
63.9015
-0.281759
63.447
-0.307249
62.9651
-0.332072
62.4524
-0.356167
61.9058
-0.379467
61.3201
-0.401906
60.6776
-0.423399
59.9531
-0.443745
59.181
-0.462655
58.5087
-0.480365
57.863
-0.498271
56.0718
-0.515741
51.045
-0.520425
42.7379
-0.488665
34.5247
-0.419162
29.3118
-0.349849
26.9546
-0.310706
26.1114
-0.298477
25.8884
-0.299971
25.903
-0.307063
26.013
-0.316329
26.1663
-0.326479
26.3429
-0.337025
26.5341
-0.347774
26.7362
-0.358635
26.9457
-0.369579
27.165
-0.38053
27.3818
-0.391622
27.6304
-0.402363
-0.414239
27.8037
72.5379
1.26238
-72.6596
72.4133
1.23675
72.2858
1.21054
72.1555
1.18375
72.0224
1.15639
71.8865
1.1285
71.748
1.10007
71.6068
1.07114
71.4631
1.04172
71.3167
1.01182
71.1678
0.981475
71.0163
0.950692
70.8622
0.919493
70.7056
0.887899
70.5464
0.855928
70.3846
0.823603
70.2201
0.790943
70.0529
0.757969
69.883
0.724702
69.7102
0.691166
69.5346
0.657381
69.356
0.623369
69.1743
0.589155
68.9894
0.554759
68.8011
0.520206
68.6094
0.48552
68.4141
0.450724
68.2149
0.415843
68.0117
0.380901
67.8043
0.345923
67.5925
0.310936
67.3759
0.275964
67.1543
0.241034
66.9274
0.206172
66.6949
0.171407
66.4563
0.136764
66.2112
0.102273
65.9593
0.0679624
65.6999
0.0338613
65.4326
0
65.1567
-0.0335907
64.8715
-0.066879
64.5764
-0.0998322
64.2704
-0.132416
63.9527
-0.164596
63.622
-0.196333
63.2774
-0.227592
62.9173
-0.258329
62.5402
-0.288503
62.1444
-0.318066
61.7276
-0.346969
61.2873
-0.375156
60.8202
-0.402569
60.3232
-0.429135
59.7935
-0.454782
59.2241
-0.479436
58.5938
-0.50298
57.8844
-0.525141
57.1604
-0.545644
56.5692
-0.565116
55.855
-0.585275
53.5254
-0.603201
47.7022
-0.599967
39.2787
-0.549896
31.8913
-0.463977
27.641
-0.390088
25.8459
-0.353162
25.2388
-0.343684
25.1019
-0.347153
25.1449
-0.355756
25.2616
-0.366348
25.4131
-0.377752
25.5838
-0.389526
25.7675
-0.401484
25.9598
-0.413561
26.1623
-0.425662
26.3632
-0.437921
26.5942
-0.449808
-0.462913
26.7562
70.3765
1.39991
-70.5014
70.2491
1.37137
70.1193
1.34219
69.987
1.31237
69.8524
1.28195
69.7155
1.25093
69.5763
1.21934
69.4349
1.1872
69.2912
1.15452
69.1454
1.12132
68.9973
1.08763
68.8471
1.05347
68.6948
1.01885
68.5402
0.983804
68.3835
0.948347
68.2245
0.912503
68.0632
0.876293
67.8997
0.839742
67.7338
0.802873
67.5655
0.765708
67.3947
0.728273
67.2214
0.69059
67.0453
0.652686
66.8666
0.614585
66.6849
0.576311
66.5002
0.537892
66.3124
0.499353
66.1212
0.46072
65.9265
0.422021
65.7282
0.383282
65.5259
0.344531
65.3195
0.305796
65.1086
0.267105
64.8931
0.228488
64.6726
0.189973
64.4468
0.15159
64.2153
0.11337
63.9777
0.0753444
63.7335
0.0375433
63.4823
0
63.2235
-0.0372526
62.9565
-0.0741806
62.6806
-0.110749
62.3952
-0.146921
62.0994
-0.18266
61.7923
-0.217927
61.4728
-0.252681
61.1398
-0.28688
60.7919
-0.320478
60.4275
-0.353427
60.045
-0.385676
59.6422
-0.41717
59.2164
-0.447846
58.7646
-0.477637
58.284
-0.506464
57.7717
-0.534248
57.2185
-0.560907
56.601
-0.586279
55.9123
-0.610017
55.2453
-0.631937
54.7217
-0.65317
53.8734
-0.675443
50.9699
-0.692326
44.5233
-0.67789
36.2454
-0.607757
29.7112
-0.507425
26.2517
-0.431206
24.8708
-0.397013
24.4291
-0.390122
24.3507
-0.395389
24.4119
-0.405381
24.5316
-0.4172
24.6797
-0.42977
24.8444
-0.442678
25.0196
-0.455773
25.2055
-0.468921
25.3911
-0.482251
25.6051
-0.495198
-0.509428
25.7563
68.2724
1.53322
-68.3996
68.1431
1.50184
68.0117
1.46976
67.8782
1.43701
67.7428
1.40359
67.6054
1.36954
67.4661
1.33487
67.325
1.2996
67.1819
1.26376
67.0371
1.22736
66.8904
1.19043
66.7419
1.15299
66.5915
1.11506
66.4394
1.07666
66.2853
1.03783
66.1294
0.998574
65.9716
0.958927
65.8119
0.918912
65.6502
0.878553
65.4864
0.837877
65.3205
0.796908
65.1524
0.755672
64.982
0.714197
64.8093
0.67251
64.6341
0.630637
64.4563
0.588606
64.2758
0.546445
64.0923
0.504183
63.9059
0.461848
63.7162
0.419469
63.5231
0.377076
63.3265
0.334699
63.1259
0.292368
62.9212
0.250114
62.7122
0.207969
62.4985
0.165963
62.2797
0.12413
62.0556
0.0825032
61.8257
0.0411147
61.5896
0
61.3468
-0.0408062
61.0968
-0.0812684
60.839
-0.121349
60.5727
-0.16101
60.2973
-0.200213
60.0119
-0.238916
59.7157
-0.277078
59.4075
-0.314654
59.0864
-0.351597
58.7509
-0.387859
58.3995
-0.423386
58.0306
-0.458123
57.642
-0.492008
57.2311
-0.524975
56.7951
-0.556945
56.3313
-0.587834
55.8368
-0.617559
55.2998
-0.646024
54.6965
-0.673013
54.0342
-0.698115
53.4292
-0.721327
52.9531
-0.744341
51.9183
-0.768435
48.4593
-0.78254
41.5834
-0.75408
33.6324
-0.663352
27.902
-0.55081
25.0712
-0.473716
23.9932
-0.442279
23.6678
-0.437691
23.6294
-0.444554
23.7019
-0.455807
23.8219
-0.468754
23.9659
-0.482395
24.1234
-0.496365
24.293
-0.51045
24.4636
-0.524752
24.6612
-0.538671
-0.553925
24.802
66.2249
1.66241
-66.3537
66.0943
1.62826
65.962
1.59336
65.828
1.55775
65.6924
1.52143
65.5551
1.48443
65.4162
1.44677
65.2758
1.40847
65.1339
1.36955
64.9904
1.33005
64.8454
1.28997
64.6989
1.24935
64.5509
1.20821
64.4014
1.16657
64.2503
1.12446
64.0977
1.0819
63.9435
1.03893
63.7877
0.995557
63.6302
0.95182
63.471
0.907744
63.31
0.863355
63.1472
0.818682
62.9824
0.773753
62.8157
0.728596
62.6468
0.683239
62.4757
0.637715
62.3023
0.59205
62.1264
0.546276
61.9478
0.500423
61.7665
0.454522
61.5823
0.408605
61.3949
0.362702
61.2042
0.316848
61.0098
0.271073
60.8117
0.225412
60.6094
0.179897
60.4027
0.134563
60.1914
0.089446
59.9749
0.0445793
59.753
0
59.5252
-0.0442552
59.2911
-0.0881488
59.05
-0.131642
58.8016
-0.174695
58.5451
-0.217267
58.2798
-0.259316
58.005
-0.300799
57.7198
-0.341669
57.4232
-0.381879
57.1141
-0.421379
56.7912
-0.460115
56.453
-0.498031
56.0979
-0.535066
55.7238
-0.571154
55.3282
-0.606222
54.9082
-0.640184
54.4618
-0.67295
53.9852
-0.704432
53.4647
-0.734518
52.8774
-0.76293
52.2467
-0.789211
51.704
-0.813629
51.2535
-0.838431
50.0022
-0.863914
46.0504
-0.873506
38.9301
-0.828979
31.4075
-0.718048
26.3884
-0.595196
24.046
-0.517897
23.1886
-0.488902
22.9453
-0.486268
22.934
-0.494523
23.0131
-0.506908
23.1319
-0.520878
23.2703
-0.535515
23.4232
-0.550401
23.5789
-0.565566
23.7606
-0.580367
-0.596545
23.8913
64.2332
1.78756
-64.3629
64.102
1.75072
63.9694
1.71309
63.8354
1.67469
63.7
1.63555
63.5633
1.59568
63.4253
1.55512
63.2861
1.51388
63.1456
1.47199
63.0039
1.42947
62.8609
1.38634
62.7167
1.34264
62.5713
1.29838
62.4246
1.2536
62.2767
1.20832
62.1275
1.16257
61.9771
1.11637
61.8253
1.06975
61.6721
1.02275
61.5175
0.975382
61.3614
0.927684
61.2038
0.879685
61.0446
0.831413
60.8837
0.782899
60.721
0.734173
60.5565
0.685268
60.3899
0.636213
60.2213
0.587042
60.0504
0.537785
59.8772
0.488477
59.7014
0.439149
59.5229
0.389835
59.3415
0.340569
59.157
0.291385
58.9691
0.242319
58.7777
0.193405
58.5825
0.14468
58.3831
0.0961789
58.1793
0.0479398
57.9707
0
57.757
-0.047602
57.5377
-0.0948271
57.3123
-0.141635
57.0805
-0.187985
56.8415
-0.233835
56.5949
-0.279141
56.34
-0.323859
56.0759
-0.367941
55.8019
-0.411339
55.5169
-0.454003
55.22
-0.495879
54.9098
-0.536909
54.585
-0.577034
54.2439
-0.616188
53.8845
-0.6543
53.5043
-0.69129
53.1007
-0.727068
52.672
-0.761538
52.2136
-0.794608
51.7099
-0.826145
51.1409
-0.8558
50.5452
-0.883107
50.0619
-0.908669
49.6177
-0.935228
48.1461
-0.961594
43.7944
-0.96521
36.585
-0.903499
29.526
-0.773293
25.1076
-0.641414
23.1378
-0.563887
22.4406
-0.536791
22.2552
-0.53573
22.2621
-0.545172
22.3446
-0.558556
22.4601
-0.573466
22.5951
-0.588949
22.7357
-0.604844
22.9015
-0.620428
-0.637426
23.0223
62.2964
1.90878
-62.4264
62.1651
1.86932
62.0327
1.82903
61.8992
1.78794
61.7646
1.74605
61.6289
1.70341
61.4922
1.66003
61.3544
1.61594
61.2157
1.57116
61.076
1.52571
60.9353
1.47964
60.7937
1.43295
60.6511
1.38568
60.5074
1.33785
60.3628
1.2895
60.2172
1.24066
60.0706
1.19134
59.9228
1.14158
59.774
1.09141
59.624
1.04086
59.4728
0.989961
59.3204
0.938743
59.1667
0.887238
59.0115
0.835477
58.8549
0.783492
58.6967
0.731316
58.5369
0.678982
58.3753
0.626524
58.2118
0.573974
58.0462
0.521368
57.8786
0.468739
57.7086
0.416123
57.5361
0.363555
57.3609
0.311071
57.1829
0.258708
57.0017
0.206501
56.8173
0.154489
56.6292
0.102709
56.4373
0.0511994
56.2413
0
56.0407
-0.0508499
55.8352
-0.10131
55.6245
-0.151338
55.4081
-0.200893
55.1855
-0.24993
54.9562
-0.298406
54.7196
-0.346274
54.475
-0.393488
54.2217
-0.439997
53.9589
-0.48575
53.6857
-0.530695
53.401
-0.574773
53.1037
-0.617926
52.7923
-0.660088
52.4654
-0.70119
52.1208
-0.741157
51.7562
-0.779904
51.3694
-0.817334
50.9586
-0.853347
50.5186
-0.887849
50.0324
-0.92068
49.4838
-0.951423
48.9249
-0.979627
48.4953
-1.00628
48.0452
-1.03452
46.375
-1.06128
41.7312
-1.05797
34.5501
-0.978897
27.9406
-0.830515
24.01
-0.690125
22.3196
-0.611757
21.7378
-0.585852
21.5929
-0.585962
21.6118
-0.596377
21.6947
-0.610649
21.8084
-0.626341
21.9327
-0.642763
22.0827
-0.659004
-0.676708
22.1936
60.4136
2.02617
-60.5434
60.2827
1.98417
60.1509
1.9413
60.0183
1.89758
59.8848
1.85304
59.7505
1.8077
59.6154
1.76159
59.4795
1.71473
59.3428
1.66715
59.2054
1.61888
59.0672
1.56994
58.9283
1.52036
58.7886
1.47018
58.6482
1.41941
58.507
1.36808
58.3651
1.31624
58.2223
1.2639
58.0787
1.2111
57.9342
1.15787
57.7888
1.10425
57.6425
1.05025
57.4952
0.995918
57.3468
0.941286
57.1973
0.886383
57.0466
0.831246
56.8946
0.775907
56.7412
0.720401
56.5864
0.664762
56.43
0.609027
56.2719
0.55323
56.112
0.497407
55.9501
0.441595
55.7861
0.38583
55.6198
0.33015
55.4511
0.274593
55.2797
0.219197
55.1054
0.164
54.9281
0.109041
54.7474
0.0543614
54.563
0
54.3748
-0.0540017
54.1823
-0.107602
53.9853
-0.160758
53.7832
-0.213427
53.5758
-0.265565
53.3625
-0.317125
53.1428
-0.368061
52.9163
-0.418326
52.6821
-0.467869
52.4397
-0.516639
52.1882
-0.564582
51.9268
-0.611641
51.6544
-0.657758
51.37
-0.702868
51.0721
-0.746905
50.7593
-0.789795
50.4297
-0.831459
50.081
-0.871807
49.711
-0.910737
49.3183
-0.948146
48.897
-0.983936
48.4292
-1.01792
47.9026
-1.04962
47.3803
-1.07861
46.9977
-1.10629
46.5384
-1.13608
44.7132
-1.16291
39.8883
-1.15241
32.8148
-1.05665
26.6079
-0.891098
23.0581
-0.741909
21.5725
-0.661575
21.0725
-0.636009
20.9556
-0.636854
20.9812
-0.648047
21.0649
-0.66302
21.1699
-0.679575
21.3029
-0.696276
-0.714542
21.4038
58.5837
2.13983
-58.713
58.4537
2.09536
58.323
2.04999
58.1916
2.00373
58.0595
1.95661
57.9269
1.90866
57.7937
1.8599
57.6598
1.81036
57.5255
1.76007
57.3905
1.70906
57.2551
1.65735
57.119
1.60497
56.9825
1.55196
56.8454
1.49834
56.7077
1.44414
56.5694
1.3894
56.4306
1.33414
56.2911
1.2784
56.151
1.22221
56.0102
1.1656
55.8687
1.10861
55.7264
1.05127
55.5833
0.993612
55.4393
0.935673
55.2943
0.877486
55.1483
0.819087
55.0012
0.760512
54.853
0.701798
54.7034
0.642979
54.5524
0.584094
54.3999
0.52518
54.2458
0.466275
54.0899
0.407416
53.9321
0.348642
53.7721
0.289992
53.61
0.231505
53.4453
0.173223
53.278
0.115183
53.1079
0.0574285
52.9346
0
52.7579
-0.0570601
52.5776
-0.113709
52.3932
-0.169904
52.2046
-0.225599
52.0113
-0.280751
51.8129
-0.335312
51.6089
-0.389235
51.3989
-0.442473
51.1824
-0.494974
50.9586
-0.546687
50.7271
-0.597557
50.4869
-0.647531
50.2373
-0.696547
49.9772
-0.744545
49.7057
-0.791458
49.4214
-0.837216
49.1228
-0.881744
48.8082
-0.924957
48.4754
-0.966761
48.1224
-1.00705
47.7479
-1.04572
47.3455
-1.08267
46.8971
-1.11768
46.3938
-1.15022
45.9062
-1.17992
45.5638
-1.20853
45.1011
-1.23973
43.1804
-1.2665
38.2809
-1.24933
31.3619
-1.13835
25.4917
-0.956422
22.2249
-0.797373
20.8835
-0.713463
20.4397
-0.687215
20.3405
-0.688337
20.3711
-0.700023
20.4487
-0.715742
20.562
-0.732502
-0.75111
20.652
56.8058
2.24986
-56.9341
56.677
2.203
56.5476
2.15519
56.4178
2.10647
56.2875
2.05685
56.1568
2.00637
56.0257
1.95505
55.8941
1.90292
55.7623
1.85
55.63
1.79634
55.4974
1.74195
55.3644
1.68686
55.231
1.63111
55.0973
1.57473
54.9632
1.51776
54.8287
1.46021
54.6938
1.40213
54.5585
1.34354
54.4227
1.28449
54.2865
1.225
54.1497
1.16511
54.0123
1.10486
53.8743
1.04427
53.7357
0.983396
53.5963
0.922259
53.4562
0.860901
53.3152
0.799358
53.1732
0.737667
53.0302
0.675867
52.886
0.613995
52.7407
0.552089
52.5939
0.490189
52.4457
0.428334
52.2959
0.366564
52.1444
0.304919
51.9909
0.243439
51.8354
0.182165
51.6776
0.121139
51.5173
0.0604035
51.3544
0
51.1886
-0.060028
51.0196
-0.119637
50.8472
-0.178782
50.671
-0.237419
50.4908
-0.2955
50.3062
-0.352981
50.1168
-0.409811
49.9222
-0.465944
49.7218
-0.521328
49.5153
-0.575912
49.3019
-0.629641
49.0812
-0.682461
48.8523
-0.734312
48.6144
-0.785136
48.3666
-0.834866
48.108
-0.883436
47.8372
-0.930771
47.5529
-0.976794
47.2533
-1.02142
46.9364
-1.06455
46.6006
-1.10607
46.2443
-1.14587
45.8611
-1.18386
45.433
-1.2198
44.9536
-1.25309
44.4977
-1.28342
44.1892
-1.31284
43.7362
-1.34526
41.7895
-1.37214
36.9144
-1.34965
30.1737
-1.22562
24.5642
-1.02794
21.4916
-0.857252
20.2442
-0.767639
19.8352
-0.739495
19.7478
-0.740289
19.7756
-0.752392
19.8614
-0.768179
-0.786675
19.9382
55.0788
2.35635
-55.2058
54.9514
2.30717
54.8237
2.25701
54.6957
2.20591
54.5674
2.15387
54.4389
2.10094
54.3101
2.04713
54.181
1.99249
54.0518
1.93704
53.9223
1.8808
53.7927
1.82381
53.6628
1.76611
53.5327
1.70772
53.4025
1.64867
53.272
1.589
53.1413
1.52874
53.0104
1.46793
52.8792
1.40659
52.7477
1.34477
52.6159
1.28249
52.4838
1.21981
52.3513
1.15674
52.2183
1.09332
52.0849
1.0296
51.951
0.965614
51.8165
0.901393
51.6813
0.836979
51.5454
0.772409
51.4087
0.707723
51.2711
0.64296
51.1325
0.578159
50.9929
0.513361
50.852
0.448606
50.7099
0.383935
50.5662
0.319388
50.421
0.255008
50.2741
0.190836
50.1252
0.126916
49.9743
0.0632893
49.8211
0
49.6655
-0.0629079
49.5071
-0.12539
49.3458
-0.1874
49.1813
-0.248895
49.0133
-0.309825
48.8415
-0.370145
48.6656
-0.429806
48.4851
-0.488757
48.2998
-0.546951
48.109
-0.604333
47.9124
-0.660851
47.7094
-0.71645
47.4994
-0.771072
47.2817
-0.824659
47.0555
-0.877146
46.82
-0.928468
46.5741
-0.978556
46.3168
-1.02733
46.0467
-1.07472
45.7621
-1.12063
45.4612
-1.16495
45.1423
-1.20759
44.8043
-1.24842
44.4407
-1.28735
44.0337
-1.32411
43.5784
-1.35809
43.1502
-1.38898
42.87
-1.41906
42.444
-1.45252
40.545
-1.47993
35.7865
-1.45422
29.2341
-1.32009
23.8068
-1.10725
20.8468
-0.922523
19.6487
-0.824511
19.2584
-0.792883
19.1718
-0.792847
19.2078
-0.804569
-0.821761
19.2648
53.4016
2.45941
-53.5269
53.276
2.40798
53.1502
2.35555
53.0242
2.30213
52.8981
2.24775
52.7719
2.19245
52.6456
2.13624
52.5192
2.07917
52.3927
2.02126
52.2662
1.96254
52.1395
1.90304
52.0129
1.8428
51.8862
1.78185
51.7594
1.72022
51.6326
1.65795
51.5057
1.59507
51.3787
1.53161
51.2516
1.46762
51.1244
1.40312
50.997
1.33815
50.8694
1.27275
50.7417
1.20696
50.6136
1.14081
50.4853
1.07434
50.3566
1.00759
50.2276
0.940605
50.0981
0.873413
49.968
0.806059
49.8374
0.738581
49.7061
0.671021
49.574
0.603418
49.4411
0.535815
49.3072
0.468252
49.1723
0.400771
49.0362
0.333414
48.8988
0.266224
48.76
0.199245
48.6196
0.132518
48.4774
0.0660884
48.3334
0
48.1872
-0.0657024
48.0388
-0.130973
47.8879
-0.195767
47.7343
-0.260037
47.5776
-0.323737
47.4177
-0.386818
47.2543
-0.449232
47.087
-0.510929
46.9154
-0.571858
46.7392
-0.631969
46.558
-0.691207
46.3713
-0.749519
46.1785
-0.806847
45.9791
-0.863133
45.7725
-0.918316
45.5579
-0.972332
45.3345
-1.02511
45.1013
-1.07659
44.8574
-1.12668
44.6014
-1.17531
44.3318
-1.22238
44.0467
-1.2678
43.7448
-1.31143
43.425
-1.35319
43.081
-1.39296
42.696
-1.43048
42.2647
-1.4651
41.86
-1.49648
41.6025
-1.52704
41.2213
-1.56131
39.4426
-1.58987
34.8886
-1.56369
28.5316
-1.42324
23.2101
-1.19617
20.2845
-0.994561
19.096
-0.884677
18.704
-0.847738
18.623
-0.845558
-0.857756
18.6413
51.7731
2.55913
-51.8966
51.6494
2.50553
51.5257
2.45089
51.402
2.39523
51.2783
2.33859
51.1545
2.28099
51.0308
2.22246
50.9072
2.16304
50.7836
2.10275
50.66
2.04162
50.5366
1.9797
50.4132
1.91701
50.2899
1.85359
50.1666
1.78947
50.0434
1.72468
49.9203
1.65926
49.7972
1.59325
49.6742
1.52668
49.5512
1.45959
49.4281
1.39202
49.305
1.32401
49.1819
1.25558
49.0587
1.18679
48.9353
1.11766
48.8117
1.04825
48.6879
0.978578
48.5638
0.9087
48.4394
0.838651
48.3146
0.768473
48.1893
0.698206
48.0634
0.627892
47.9369
0.557573
47.8097
0.487291
47.6817
0.41709
47.5527
0.347011
47.4227
0.277099
47.2916
0.207398
47.1591
0.137951
47.0253
0.0688034
46.8898
0
46.7526
-0.0684138
46.6135
-0.136392
46.4723
-0.203888
46.3288
-0.270856
46.1827
-0.337247
46.0339
-0.403012
45.882
-0.468105
45.7268
-0.532474
45.568
-0.596069
45.4052
-0.658838
45.2382
-0.720729
45.0663
-0.781687
44.8894
-0.841656
44.7067
-0.900579
44.5179
-0.958397
44.3222
-1.01505
44.1191
-1.07046
43.9076
-1.12458
43.687
-1.17732
43.4563
-1.22861
43.2143
-1.27837
42.9595
-1.32649
42.6902
-1.37289
42.4051
-1.41744
42.1032
-1.46002
41.7792
-1.50055
41.4167
-1.53877
41.0093
-1.57399
40.624
-1.60583
40.3829
-1.63668
40.061
-1.67148
38.4687
-1.70183
34.206
-1.67838
28.0589
-1.53633
22.7728
-1.29679
19.8068
-1.0752
18.5831
-0.949311
18.1792
-0.904069
-0.899113
18.1003
50.1921
2.65561
-50.3136
50.0706
2.59991
49.9492
2.54313
49.8279
2.48531
49.7066
2.42648
49.5855
2.36666
49.4646
2.30588
49.3438
2.24418
49.2231
2.1816
49.1026
2.11815
48.9823
2.05388
48.8622
1.98882
48.7423
1.92301
48.6226
1.85647
48.5031
1.78925
48.3837
1.72138
48.2645
1.65291
48.1455
1.58385
48.0266
1.51426
47.9078
1.44417
47.7891
1.37362
47.6705
1.30265
47.5519
1.2313
47.4333
1.1596
47.3147
1.08761
47.196
1.01535
47.0771
0.942876
46.9581
0.870221
46.8389
0.797429
46.7193
0.724543
46.5994
0.651604
46.479
0.578657
46.3581
0.505743
46.2366
0.432907
46.1144
0.360192
45.9914
0.287643
45.8675
0.215304
45.7426
0.14322
45.6165
0.0714371
45.4891
0
45.3603
-0.0710449
45.2299
-0.141651
45.0978
-0.211772
44.9637
-0.281359
44.8275
-0.350365
44.6889
-0.418742
44.5478
-0.48644
44.4038
-0.553409
44.2568
-0.619599
44.1064
-0.684958
43.9523
-0.749434
43.7942
-0.812973
43.6317
-0.875519
43.4643
-0.937017
43.2916
-0.997408
43.1132
-1.05663
42.9283
-1.11462
42.7364
-1.17132
42.5368
-1.22665
42.3286
-1.28055
42.1109
-1.33292
41.8827
-1.3837
41.6425
-1.43278
41.3888
-1.48006
41.1203
-1.52543
40.8363
-1.56877
40.5321
-1.60999
40.1926
-1.64884
39.8092
-1.68464
39.4398
-1.71692
39.2083
-1.74788
38.9525
-1.78287
37.601
-1.81549
33.7174
-1.79808
27.8115
-1.66018
22.5042
-1.41129
19.4189
-1.1671
18.1117
-1.0199
-0.961082
17.754
48.6577
2.74894
-48.777
48.5385
2.69121
48.4195
2.63237
48.3006
2.57246
48.182
2.5115
48.0636
2.44954
47.9455
2.38659
47.8276
2.32269
47.7099
2.25788
47.5926
2.19219
47.4755
2.12565
47.3587
2.0583
47.2422
1.99018
47.126
1.92131
47.0101
1.85174
46.8945
1.78151
46.7791
1.71064
46.664
1.63918
46.5491
1.56717
46.4345
1.49465
46.3201
1.42165
46.2059
1.34822
46.0918
1.2744
45.9779
1.20022
45.864
1.12573
45.7502
1.05097
45.6365
0.975976
45.5226
0.900799
45.4087
0.825479
45.2947
0.750058
45.1804
0.67458
45.0659
0.599087
44.951
0.523626
44.8357
0.448238
44.72
0.37297
44.6036
0.297865
44.4865
0.222971
44.3686
0.148331
44.2499
0.0739918
44.1301
0
44.0091
-0.0735979
43.8869
-0.146755
43.7632
-0.219423
43.6379
-0.291556
43.5109
-0.363104
43.3819
-0.434018
43.2507
-0.50425
43.1172
-0.57375
42.9811
-0.642466
42.8421
-0.710348
42.6999
-0.777342
42.5544
-0.843397
42.4051
-0.908457
42.2517
-0.972468
42.0937
-1.03537
41.9309
-1.09711
41.7626
-1.15762
41.5884
-1.21684
41.4076
-1.2747
41.2196
-1.33114
41.0236
-1.38608
40.8188
-1.43944
40.6041
-1.49113
40.3783
-1.54108
40.1399
-1.58916
39.8878
-1.63527
39.6213
-1.67929
39.3366
-1.72112
39.0205
-1.76056
38.6614
-1.79695
38.3057
-1.82966
38.0762
-1.86058
37.8836
-1.89534
36.8093
-1.93034
33.3914
-1.92201
27.7858
-1.79485
22.4223
-1.54179
19.1093
-1.27448
-1.09014
17.9751
47.1685
2.83922
-47.2855
47.0517
2.77952
46.9353
2.71869
46.819
2.65676
46.7031
2.59375
46.5875
2.52971
46.4722
2.46467
46.3573
2.39865
46.2427
2.33169
46.1285
2.26383
46.0147
2.1951
45.9012
2.12554
45.7881
2.05518
45.6754
1.98406
45.5631
1.91222
45.4511
1.83969
45.3395
1.76652
45.2283
1.69274
45.1174
1.61839
45.0069
1.54351
44.8966
1.46815
44.7867
1.39234
44.677
1.31612
44.5676
1.23954
44.4583
1.16264
44.3493
1.08546
44.2403
1.00803
44.1315
0.930419
44.0227
0.852653
43.9139
0.774779
43.8051
0.696842
43.6961
0.618887
43.587
0.540957
43.4776
0.463099
43.3679
0.385357
43.2578
0.307777
43.1472
0.230405
43.036