/*--------------------------------*- C++ -*----------------------------------*\
| =========                 |                                                 |
| \\      /  F ield         | OpenFOAM: The Open Source CFD Toolbox           |
|  \\    /   O peration     | Version:  2312                                  |
|   \\  /    A nd           | Website:  www.openfoam.com                      |
|    \\/     M anipulation  |                                                 |
\*---------------------------------------------------------------------------*/
FoamFile
{
    version     2.0;
    format      ascii;
    arch        "LSB;label=32;scalar=64";
    class       volScalarField;
    location    "0.5";
    object      wave;
}
// * * * * * * * * * * * * * * * * * * * * * * * * * * * * * * * * * * * * * //

dimensions      [0 0 0 0 0 0 0];

internalField   nonuniform List<scalar> 
100
(
0.547466
0.672809
0.78125
0.870064
0.93702
0.980436
0.999221
0.992904
0.961643
0.906223
0.828037
0.729048
0.611744
0.479072
0.334365
0.181258
0.0235966
-0.134657
-0.289528
-0.437125
-0.573741
-0.695943
-0.800662
-0.885266
-0.94763
-0.986188
-0.99997
-0.988631
-0.952455
-0.892352
-0.809831
-0.706965
-0.586338
-0.450981
-0.304295
-0.149964
0.0081343
0.166028
0.319751
0.465441
0.599439
0.718377
0.819267
0.899576
0.957286
0.990946
0.999712
0.983363
0.942309
0.877583
0.790809
0.684169
0.560341
0.422436
0.273918
0.118519
-0.039857
-0.197232
-0.349653
-0.493289
-0.624532
-0.740087
-0.837048
-0.912981
-0.965978
-0.994707
-0.998447
-0.977104
-0.931214
-0.86193
-0.770992
-0.660685
-0.53378
-0.393465
-0.243266
-0.0869555
0.0715396
0.228238
0.379202
0.520639
0.648997
0.761051
0.853986
0.925466
0.973697
0.997466
0.996177
0.969862
0.919181
0.845409
0.750398
0.636535
0.506681
0.364099
0.212369
0.0553041
-0.10315
-0.259013
-0.408369
-0.547466
)
;

boundaryField
{
    movingWall
    {
        type            calculated;
        value           uniform 0;
    }
    fixedWalls
    {
        type            calculated;
        value           uniform 0;
    }
    frontAndBack
    {
        type            empty;
    }
}


// ************************************************************************* //
