/*--------------------------------*- C++ -*----------------------------------*\
| =========                 |                                                 |
| \\      /  F ield         | OpenFOAM: The Open Source CFD Toolbox           |
|  \\    /   O peration     | Version:  2312                                  |
|   \\  /    A nd           | Website:  www.openfoam.com                      |
|    \\/     M anipulation  |                                                 |
\*---------------------------------------------------------------------------*/
FoamFile
{
    version     2.0;
    format      ascii;
    arch        "LSB;label=32;scalar=64";
    class       surfaceScalarField;
    location    "0.415";
    object      phi;
}
// * * * * * * * * * * * * * * * * * * * * * * * * * * * * * * * * * * * * * //

dimensions      [0 3 -1 0 0 0 0];

oriented        oriented;

internalField   nonuniform List<scalar> 
62015
(
61.7622
0.325001
-62.679
60.84
0.315265
59.9119
0.305441
58.977
0.295537
58.0343
0.28556
57.0827
0.275517
56.1211
0.265417
55.1481
0.255268
54.1619
0.245077
53.1609
0.234851
52.1427
0.2246
51.1049
0.21433
50.0446
0.20405
48.9583
0.193767
47.8419
0.183487
46.6905
0.173219
45.4982
0.162968
44.2575
0.15274
42.9596
0.142541
41.5934
0.132373
40.1449
0.122239
38.5978
0.112144
36.9373
0.102093
35.1613
0.092124
33.2994
0.082336
31.4251
0.0729163
29.646
0.0641112
28.0696
0.0561379
26.7673
0.0490948
25.7588
0.0429362
25.0221
0.0375165
24.5138
0.0326549
24.1864
0.0281837
23.998
0.0239665
23.915
0.019903
23.9122
0.0159206
23.9709
0.0119694
24.0775
0.00801388
24.222
0.00402978
24.3972
0
24.5975
-0.00408756
24.819
-0.00824082
25.0583
-0.0124662
25.3133
-0.0167668
25.5819
-0.0211455
25.8627
-0.0256032
26.1545
-0.0301409
26.4565
-0.0347578
26.7679
-0.0394538
27.0881
-0.0442273
27.4166
-0.0490769
27.7531
-0.0540009
28.0972
-0.0589974
28.4487
-0.0640639
28.8074
-0.069198
29.1732
-0.0743971
29.5458
-0.0796587
29.9252
-0.0849797
30.3114
-0.0903572
30.7043
-0.0957879
31.1038
-0.101269
31.5099
-0.106797
31.9225
-0.112369
32.3417
-0.117981
32.7675
-0.123629
33.1999
-0.129311
33.6387
-0.135023
34.0842
-0.140761
34.5361
-0.146521
34.9947
-0.152299
35.4598
-0.158093
35.9315
-0.163898
36.4096
-0.16971
36.8949
-0.175524
37.3851
-0.181345
37.8868
-0.187139
38.3797
-0.192998
38.9268
-0.198614
-0.204936
39.3344
59.3849
0.634502
-60.2712
58.4931
0.615437
57.5955
0.596203
56.6914
0.576814
55.7798
0.557283
54.8595
0.537626
53.9294
0.517857
52.9882
0.497993
52.0341
0.478048
51.0655
0.458037
50.08
0.437975
49.0753
0.417878
48.0485
0.397759
46.9961
0.377634
45.914
0.357516
44.7974
0.337418
43.6402
0.317352
42.4354
0.297328
41.1738
0.277355
39.8446
0.257441
38.434
0.23759
36.927
0.217809
35.3119
0.198127
33.5933
0.178642
31.8086
0.159588
30.0354
0.141364
28.3766
0.124443
26.9267
0.109196
25.7417
0.0957452
24.8307
0.0839548
24.1681
0.0735244
23.712
0.0641098
23.419
0.0554004
23.2514
0.0471498
23.1792
0.0391747
23.1801
0.0313444
23.2373
0.0235671
23.3386
0.0157784
23.4752
0.00793336
23.6404
0
23.8291
-0.00804387
24.0377
-0.0162138
24.2633
-0.0245207
24.5036
-0.0329718
24.757
-0.0415712
25.0221
-0.0503219
25.2977
-0.0592246
25.5831
-0.0682787
25.8775
-0.0774834
26.1804
-0.086836
26.4913
-0.0963337
26.8099
-0.105973
27.1358
-0.115751
27.4689
-0.125662
27.809
-0.135701
28.1558
-0.145865
28.5093
-0.156147
28.8694
-0.166541
29.236
-0.177043
29.609
-0.187647
29.9884
-0.198345
30.3742
-0.209132
30.7663
-0.220002
31.1648
-0.230947
31.5695
-0.241962
31.9806
-0.253038
32.3979
-0.26417
32.8216
-0.275351
33.2515
-0.286572
33.6878
-0.297828
34.1303
-0.30911
34.5792
-0.320412
35.0343
-0.331727
35.4962
-0.343042
35.9628
-0.354368
36.4404
-0.36564
36.91
-0.377033
37.4299
-0.387966
-0.400225
37.8221
57.068
0.928743
-57.9253
56.2055
0.900746
55.3373
0.872503
54.4627
0.844034
53.5808
0.815359
52.6904
0.786501
51.7904
0.757482
50.8795
0.728323
49.9559
0.699046
49.018
0.669673
48.0635
0.640226
47.09
0.610726
46.0947
0.581195
45.074
0.551652
44.0239
0.522117
42.9396
0.492608
41.815
0.463142
40.643
0.433732
39.4146
0.404392
38.1189
0.37513
36.7428
0.345955
35.2728
0.316885
33.7015
0.287985
32.0413
0.25945
30.3373
0.231692
28.6702
0.205331
27.1357
0.181027
25.8139
0.159229
24.7457
0.140013
23.9307
0.123111
23.3405
0.10807
22.9355
0.094402
22.6763
0.0816826
22.5293
0.0695771
22.4682
0.0578388
22.4732
0.0462911
22.5296
0.0348092
22.6265
0.0233049
22.7559
0.0117166
22.9118
0
23.0899
-0.0118758
23.2865
-0.0239325
23.4992
-0.0361853
23.7259
-0.0486443
23.965
-0.0613162
24.2153
-0.0742039
24.4757
-0.0873093
24.7454
-0.100631
25.0238
-0.114168
25.3103
-0.127917
25.6046
-0.141873
25.9063
-0.156032
26.2151
-0.170388
26.5308
-0.184934
26.8532
-0.199664
27.1821
-0.214571
27.5176
-0.229647
27.8593
-0.244883
28.2073
-0.260272
28.5616
-0.275805
28.922
-0.291473
29.2885
-0.307267
29.6612
-0.323177
30.04
-0.339194
30.4248
-0.355308
30.8157
-0.37151
31.2126
-0.387788
31.6157
-0.404134
32.0247
-0.420536
32.4399
-0.436985
32.861
-0.453469
33.2883
-0.469978
33.7215
-0.486504
34.1612
-0.503026
34.6055
-0.519561
35.0602
-0.536016
35.5077
-0.552637
36.002
-0.568604
-0.586442
36.3781
54.8252
1.2082
-55.6545
53.9907
1.17165
53.1507
1.13479
52.3044
1.09763
51.4509
1.0602
50.5891
1.02254
49.7179
0.984672
48.8358
0.946621
47.9412
0.908417
47.0325
0.870088
46.1073
0.831661
45.1634
0.793165
44.1977
0.754625
43.2068
0.716068
42.1867
0.677517
41.1325
0.638995
40.0381
0.600523
38.8963
0.562116
37.6983
0.523791
36.4332
0.485558
35.0886
0.447432
33.6534
0.409452
32.1256
0.371748
30.5256
0.334656
28.9062
0.298793
27.3482
0.264995
25.9387
0.234053
24.7426
0.206412
23.7869
0.182036
23.0632
0.160507
22.5416
0.141225
22.185
0.123583
21.9579
0.107067
21.8308
0.0912769
21.7807
0.0759177
21.7902
0.0607784
21.8462
0.0457088
21.9393
0.0306026
22.0623
0.0153843
22.21
0
22.3781
-0.0155885
22.5638
-0.031408
22.7646
-0.0474777
22.9786
-0.0638098
23.2044
-0.0804126
23.4407
-0.0972903
23.6868
-0.114444
23.9418
-0.131874
24.2051
-0.149577
24.4763
-0.167549
24.7549
-0.185785
25.0407
-0.204278
25.3333
-0.223021
25.6326
-0.242006
25.9383
-0.261223
26.2504
-0.280665
26.5687
-0.300321
26.8931
-0.32018
27.2236
-0.340232
27.5601
-0.360465
27.9025
-0.380869
28.2508
-0.401431
28.6051
-0.422139
28.9652
-0.442981
29.3311
-0.463944
29.7029
-0.485016
30.0805
-0.506183
30.464
-0.527433
30.8532
-0.548752
31.2483
-0.570126
31.6492
-0.591542
32.056
-0.612985
32.4684
-0.634446
32.8871
-0.655899
33.3102
-0.677363
33.7432
-0.69872
34.1696
-0.720283
34.6398
-0.741015
-0.764104
34.9999
52.6614
1.47342
-53.4637
51.854
1.42869
51.0411
1.38357
50.2221
1.3381
49.396
1.29231
48.5616
1.24622
47.7179
1.19989
46.8635
1.15333
45.9968
1.10659
45.1159
1.05969
44.2187
1.01267
43.3029
0.965568
42.3654
0.918407
41.4028
0.87122
40.4111
0.824036
39.3852
0.77688
38.3192
0.729774
37.2058
0.682739
36.0361
0.635791
34.7996
0.588946
33.485
0.542227
32.0842
0.495714
30.6015
0.449638
29.0653
0.404513
27.5342
0.361184
26.087
0.320669
24.8002
0.283817
23.7239
0.250992
22.8732
0.222006
22.2334
0.19628
21.7745
0.173083
21.462
0.151716
21.2643
0.131597
21.1555
0.112279
21.1155
0.0934325
21.1291
0.0748215
21.185
0.056277
21.2746
0.0376787
21.3918
0.0189401
21.5317
0
21.6908
-0.0191859
21.8662
-0.038649
22.0558
-0.0584109
22.258
-0.0784864
22.4713
-0.0988849
22.6946
-0.119611
22.9273
-0.140667
23.1685
-0.162052
23.4176
-0.183762
23.6743
-0.205792
23.9382
-0.228137
24.2089
-0.250788
24.4863
-0.273736
24.77
-0.296972
25.06
-0.320485
25.3561
-0.344264
25.6582
-0.368296
25.9663
-0.39257
26.2801
-0.417072
26.5998
-0.441789
26.9251
-0.466707
27.2562
-0.491811
27.593
-0.517087
27.9354
-0.54252
28.2834
-0.568095
28.6371
-0.593796
28.9963
-0.619608
29.3612
-0.645514
29.7317
-0.671498
30.1077
-0.697544
30.4894
-0.723636
30.8766
-0.749756
31.2693
-0.77589
31.668
-0.80201
32.071
-0.828139
32.4833
-0.854134
32.8896
-0.880367
33.3371
-0.905606
-0.933642
33.6815
50.5773
1.72494
-51.3536
49.796
1.67238
49.0095
1.61938
48.2167
1.56595
47.417
1.51216
46.6091
1.45802
45.7919
1.40359
44.9641
1.3489
44.1241
1.29399
43.27
1.23889
42.3997
1.18366
41.5107
1.12832
40.6002
1.07291
39.6647
1.01746
38.6999
0.962004
37.701
0.906573
36.6619
0.851191
35.5753
0.795878
34.4325
0.740653
33.2233
0.685537
31.938
0.630576
30.5725
0.575916
29.1379
0.521927
27.6698
0.469336
26.2304
0.419212
24.8941
0.372702
23.7256
0.330632
22.7614
0.293224
22.0066
0.260112
21.4427
0.230562
21.0398
0.203735
20.7666
0.178862
20.5951
0.155314
20.5027
0.132612
20.4717
0.110404
20.4889
0.0884353
20.5444
0.0665243
20.6308
0.0445399
20.7425
0.0223877
20.8752
0
21.0257
-0.0226719
21.1916
-0.0456628
21.3708
-0.0689968
21.5618
-0.0926905
21.7634
-0.116754
21.9745
-0.141193
22.1945
-0.16601
22.4227
-0.191203
22.6585
-0.216768
22.9016
-0.242699
23.1515
-0.26899
23.4081
-0.29563
23.671
-0.32261
23.9401
-0.349919
24.2152
-0.377543
24.4962
-0.405471
24.783
-0.433687
25.0755
-0.462178
25.3736
-0.490928
25.6773
-0.519922
25.9865
-0.549143
26.3012
-0.578575
26.6214
-0.608201
26.947
-0.638003
27.278
-0.667964
27.6145
-0.698065
27.9563
-0.728289
28.3036
-0.758616
28.6562
-0.789028
29.0142
-0.819506
29.3775
-0.850031
29.7463
-0.880582
30.1202
-0.911144
30.4999
-0.941683
30.8838
-0.972224
31.2765
-1.00261
31.6636
-1.03325
32.0895
-1.06276
-1.09545
32.4188
48.5714
1.96329
-49.3223
47.8154
1.90325
47.0542
1.8427
46.2869
1.78168
45.5126
1.72023
44.7303
1.6584
43.9388
1.59622
43.1366
1.53375
42.3223
1.47103
41.4939
1.4081
40.6494
1.34501
39.7863
1.28178
38.9017
1.21847
37.9919
1.15511
37.053
1.09174
36.0798
1.02838
35.0663
0.965055
34.0053
0.901798
32.8882
0.838625
31.7055
0.77557
30.4498
0.71272
29.1216
0.650316
27.7387
0.588909
26.3431
0.529461
24.9979
0.473234
23.771
0.421437
22.7148
0.374794
21.8542
0.333341
21.1862
0.296524
20.6898
0.263473
20.3366
0.233264
20.0982
0.205077
19.9498
0.178257
19.8716
0.152304
19.8485
0.126851
19.8687
0.101634
19.9237
0.0764609
20.0069
0.0511928
20.1134
0.0257301
20.2393
0
20.3818
-0.0260498
20.5386
-0.0524564
20.708
-0.0792465
20.8885
-0.106438
21.0791
-0.134041
21.2788
-0.162063
21.4869
-0.190504
21.7028
-0.219364
21.926
-0.248638
22.1562
-0.27832
22.393
-0.308401
22.6362
-0.33887
22.8855
-0.369716
23.1407
-0.400927
23.4017
-0.432488
23.6684
-0.464385
23.9407
-0.496601
24.2185
-0.529121
24.5017
-0.561927
24.7903
-0.595002
25.0842
-0.628326
25.3834
-0.661882
25.6878
-0.69565
25.9975
-0.729611
26.3124
-0.763743
26.6325
-0.798028
26.9579
-0.832444
27.2883
-0.866969
27.624
-0.901584
27.9648
-0.936266
28.3108
-0.970993
28.6619
-1.00574
29.0181
-1.0405
29.3797
-1.07522
29.7454
-1.10994
30.1194
-1.14447
30.4884
-1.17928
30.8938
-1.21282
-1.24989
31.2086
46.6412
2.18897
-47.3677
45.9098
2.12178
45.1731
2.05402
44.4304
1.98573
43.6808
1.91697
42.9231
1.84778
42.1562
1.77821
41.3788
1.7083
40.5892
1.63811
39.7857
1.56769
38.966
1.49707
38.1278
1.42631
37.2679
1.35544
36.3829
1.2845
35.4687
1.21353
34.5201
1.14257
33.5312
1.07163
32.4946
1.00075
31.4023
0.929943
30.2458
0.859276
29.0205
0.788896
27.7322
0.71918
26.4052
0.650893
25.086
0.585232
23.8364
0.523606
22.7158
0.4672
21.7654
0.416575
20.9994
0.37155
20.4092
0.331393
19.9728
0.295118
19.6634
0.261741
19.4554
0.230413
19.3272
0.200462
19.2616
0.17138
19.2451
0.142794
19.2679
0.114432
19.3221
0.0860966
19.4022
0.0576442
19.5036
0.0289706
19.6231
0
19.7581
-0.0293228
19.9064
-0.0590372
20.0666
-0.0891712
20.2372
-0.119743
20.4174
-0.150766
20.6063
-0.182244
20.8032
-0.214181
21.0075
-0.246573
21.2189
-0.279417
21.4369
-0.312704
21.6613
-0.346426
21.8918
-0.380571
22.1282
-0.415125
22.3703
-0.450076
22.618
-0.485407
22.8712
-0.521102
23.1298
-0.557143
23.3936
-0.593513
23.6627
-0.630192
23.9369
-0.66716
24.2163
-0.704398
24.5008
-0.741884
24.7904
-0.779598
25.085
-0.817517
25.3846
-0.855618
25.6892
-0.89388
25.9988
-0.932279
26.3134
-0.970792
26.633
-1.0094
26.9575
-1.04807
27.2869
-1.08678
27.6213
-1.12551
27.9606
-1.16423
28.305
-1.20291
28.6534
-1.24158
29.0097
-1.28004
29.3614
-1.31879
29.7474
-1.35615
-1.39734
30.0483
44.7842
2.40245
-45.487
44.0765
2.32843
43.3635
2.25378
42.6446
2.17856
41.9187
2.1028
41.1849
2.02658
40.4419
1.94994
39.6883
1.87293
38.9226
1.7956
38.1429
1.71801
37.3471
1.6402
36.5327
1.56221
35.6967
1.48411
34.8354
1.40591
33.9449
1.32767
33.0198
1.24941
32.0543
1.17116
31.0413
1.09295
29.9731
1.01483
28.843
0.936877
27.6497
0.859344
26.4045
0.782784
25.1376
0.7082
23.898
0.637
22.7438
0.570671
21.7257
0.510295
20.8735
0.456217
20.1934
0.408034
19.6728
0.364849
19.2893
0.32559
19.0183
0.289232
18.8371
0.254915
18.7265
0.221962
18.6717
0.189866
18.661
0.158251
18.6857
0.126843
18.7391
0.0954412
18.816
0.0639002
18.9127
0.0321126
19.0261
0
19.1539
-0.0324945
19.2942
-0.065412
19.4457
-0.0987816
19.6071
-0.132623
19.7775
-0.166947
19.9561
-0.201762
20.1424
-0.237068
20.3359
-0.272864
20.5361
-0.309144
20.7426
-0.345899
20.9553
-0.38312
21.1738
-0.420793
21.398
-0.458905
21.6278
-0.497441
21.8629
-0.536382
22.1032
-0.575713
22.3488
-0.615413
22.5994
-0.655462
22.8551
-0.69584
23.1158
-0.736525
23.3814
-0.777496
23.652
-0.818729
23.9274
-0.860201
24.2077
-0.901888
24.4928
-0.943765
24.7827
-0.985809
25.0774
-1.02799
25.3769
-1.07029
25.6811
-1.11268
25.9902
-1.15514
26.3039
-1.19763
26.6225
-1.24013
26.9456
-1.28262
27.2738
-1.32505
27.6057
-1.36745
27.9452
-1.40962
28.2804
-1.45209
28.6479
-1.49306
-1.53813
28.9356
42.9976
2.60419
-43.6774
42.3128
2.52364
41.6228
2.44242
40.9269
2.36056
40.224
2.27814
39.5131
2.1952
38.7931
2.1118
38.0625
2.028
37.3198
1.94384
36.5631
1.85939
35.7903
1.7747
34.9987
1.68981
34.1855
1.60477
33.3471
1.51962
32.4792
1.4344
31.5767
1.34914
30.6337
1.26388
29.6434
1.17864
28.599
1.0935
27.4958
1.0086
26.3367
0.924318
25.1383
0.841425
23.9353
0.761166
22.7774
0.685118
21.7175
0.614759
20.7967
0.551001
20.0352
0.493938
19.4326
0.44295
18.9738
0.397006
18.637
0.354967
18.3997
0.315792
18.2418
0.278622
18.1467
0.242787
18.1012
0.207783
18.0954
0.173238
18.1216
0.138878
18.1739
0.104504
18.2478
0.069967
18.3399
0.0351589
18.4475
0
18.5685
-0.0355681
18.7013
-0.0715877
18.8446
-0.108088
18.9972
-0.14509
19.1584
-0.182605
19.3275
-0.22064
19.5038
-0.259197
19.687
-0.298271
19.8766
-0.337859
20.0723
-0.37795
20.2739
-0.418533
20.4811
-0.459595
20.6938
-0.501121
20.9118
-0.543094
21.135
-0.585496
21.3633
-0.628307
21.5965
-0.671506
21.8347
-0.715073
22.0777
-0.758985
22.3255
-0.803219
22.5781
-0.847751
22.8354
-0.892556
23.0974
-0.937609
23.3641
-0.982884
23.6354
-1.02836
23.9114
-1.074
24.1919
-1.11978
24.4771
-1.16568
24.7668
-1.21166
25.0611
-1.2577
25.36
-1.30378
25.6635
-1.34985
25.9713
-1.3959
26.284
-1.44188
26.6003
-1.48782
26.9238
-1.5335
27.2434
-1.57949
27.5933
-1.62387
-1.67258
27.8685
41.2789
2.79463
-41.9365
40.6163
2.70785
39.9485
2.62035
39.2747
2.53216
38.594
2.44336
37.9053
2.35401
37.2074
2.26415
36.499
2.17386
35.7784
2.08318
35.0438
1.99217
34.293
1.90089
33.5235
1.80939
32.7322
1.71771
31.9156
1.62589
31.0693
1.53398
30.1885
1.44201
29.2671
1.35
28.299
1.25802
27.2784
1.16616
26.2033
1.07467
25.0809
0.984085
23.9329
0.895419
22.7973
0.810143
21.7224
0.729935
20.7543
0.656186
19.925
0.589573
19.2465
0.52993
18.7135
0.476439
18.3094
0.42796
18.0137
0.383319
17.8059
0.341473
17.6684
0.301573
17.5867
0.262964
17.5494
0.225152
17.5477
0.187771
17.575
0.150552
17.6261
0.113294
17.697
0.0758507
17.7847
0.0381128
17.8868
0
18.0014
-0.0385468
18.1271
-0.0775706
18.2626
-0.117101
18.4071
-0.157159
18.5596
-0.197757
18.7196
-0.238901
18.8865
-0.280592
19.06
-0.322828
19.2396
-0.3656
19.4251
-0.408901
19.6162
-0.452717
19.8128
-0.497034
20.0146
-0.541837
20.2215
-0.587106
20.4334
-0.632823
20.6502
-0.678967
20.8718
-0.725516
21.0981
-0.772447
21.3291
-0.819735
21.5647
-0.867358
21.8049
-0.915287
22.0497
-0.963499
22.299
-1.01196
22.5528
-1.06066
22.811
-1.10955
23.0737
-1.15861
23.3409
-1.20782
23.6124
-1.25713
23.8884
-1.30653
24.1687
-1.35598
24.4535
-1.40545
24.7426
-1.45491
25.0359
-1.50434
25.3339
-1.55368
25.6353
-1.60296
25.9436
-1.65196
26.2483
-1.70127
26.5816
-1.74888
-1.80101
26.8447
39.6255
2.97418
-40.2617
38.9843
2.88147
38.338
2.78796
37.6856
2.69374
37.0263
2.59885
36.3589
2.50337
35.6824
2.40735
34.9953
2.31085
34.296
2.21393
33.5827
2.11665
32.8531
2.01907
32.1046
1.92123
31.3344
1.82319
30.5386
1.72498
29.7132
1.62664
28.853
1.52822
27.9527
1.42975
27.0063
1.3313
26.0099
1.23304
24.9646
1.13534
23.882
1.03894
22.7881
0.945102
21.7225
0.855488
20.7304
0.771794
19.8506
0.695244
19.1065
0.62624
18.5035
0.564362
18.0326
0.508621
17.6769
0.4578
17.4173
0.410709
17.2354
0.366319
17.1158
0.323801
17.0457
0.282519
17.0154
0.241993
17.0172
0.201866
17.0453
0.161874
17.095
0.12182
17.163
0.0815568
17.2465
0.0409771
17.3434
0
17.452
-0.0414338
17.571
-0.0833672
17.6992
-0.125831
17.8359
-0.168845
17.9802
-0.212421
18.1317
-0.256567
18.2897
-0.301283
18.454
-0.346564
18.6242
-0.392405
18.8001
-0.438794
18.9813
-0.485719
19.1678
-0.533164
19.3593
-0.581112
19.5557
-0.629543
19.7569
-0.678438
19.9629
-0.727775
20.1734
-0.777529
20.3885
-0.827677
20.6082
-0.878194
20.8323
-0.929052
21.0607
-0.980226
21.2936
-1.03169
21.5308
-1.08341
21.7724
-1.13535
22.0183
-1.1875
22.2684
-1.23982
22.5228
-1.29228
22.7814
-1.34484
23.0443
-1.39748
23.3114
-1.45016
23.5827
-1.50285
23.8581
-1.55553
24.1377
-1.60815
24.4217
-1.66067
24.709
-1.71312
25.0028
-1.76526
25.2934
-1.81771
25.6108
-1.86837
-1.92372
25.8626
38.0351
3.14327
-38.6506
37.4146
3.04488
36.789
2.94566
36.1572
2.84567
35.5185
2.74497
34.8718
2.64363
34.2158
2.54172
33.5493
2.43929
32.8704
2.3364
32.1775
2.23313
31.4682
2.12951
30.74
2.0256
29.9899
1.92146
29.2141
1.81711
28.4086
1.71261
27.5685
1.608
26.6885
1.50332
25.7638
1.3987
24.7925
1.29437
23.7791
1.19088
22.7394
1.0892
21.703
0.990831
20.7091
0.897564
19.7987
0.811025
19.0029
0.732202
18.3375
0.661208
17.8026
0.597383
17.387
0.539602
17.074
0.486601
16.846
0.437192
16.6868
0.39037
16.5828
0.345336
16.5229
0.301475
16.4986
0.258325
16.5033
0.215538
16.5319
0.172857
16.5802
0.130089
16.6454
0.087091
16.7249
0.0437545
16.8168
0
16.9197
-0.0442317
17.0324
-0.0889835
17.1537
-0.134286
17.283
-0.180159
17.4197
-0.226614
17.563
-0.273659
17.7128
-0.321293
17.8684
-0.369511
18.0297
-0.418308
18.1965
-0.46767
18.3684
-0.517584
18.5453
-0.568035
18.727
-0.619003
18.9135
-0.670469
19.1047
-0.722412
19.3003
-0.774807
19.5004
-0.82763
19.7049
-0.880856
19.9138
-0.934458
20.1269
-0.988409
20.3443
-1.04268
20.5659
-1.09724
20.7917
-1.15206
21.0216
-1.20711
21.2557
-1.26236
21.4939
-1.31777
21.7362
-1.37332
21.9826
-1.42897
22.233
-1.48469
22.4875
-1.54044
22.746
-1.59619
23.0086
-1.65191
23.275
-1.70756
23.5457
-1.76309
23.8196
-1.81854
24.0997
-1.87365
24.3768
-1.92906
24.6792
-1.98261
-2.04098
24.92
36.5054
3.30229
-37.1009
35.9049
3.19849
35.2991
3.09381
34.6873
2.98831
34.0685
2.88206
33.4416
2.77513
32.8054
2.66759
32.1586
2.55949
31.4995
2.4509
30.8261
2.34188
30.1364
2.23248
29.4276
2.12276
28.6967
2.01276
27.9401
1.90253
27.1538
1.79211
26.3329
1.68155
25.4729
1.57093
24.5702
1.46042
23.6253
1.35039
22.6463
1.24157
21.6529
1.1352
20.6767
1.03297
19.7554
0.936726
18.9243
0.847935
18.2075
0.767305
17.6142
0.694657
17.1404
0.629122
16.7739
0.569475
16.4985
0.514429
16.2983
0.462816
16.1589
0.413664
16.0684
0.366207
16.0174
0.319856
15.9984
0.274164
16.0055
0.2288
16.0342
0.183511
16.0812
0.138111
16.1435
0.0924585
16.2192
0.0464479
16.3065
0
16.404
-0.0469436
16.5106
-0.0944254
16.6255
-0.142475
16.7479
-0.191114
16.8773
-0.240352
17.0131
-0.290197
17.1549
-0.340647
17.3024
-0.391698
17.4553
-0.443342
17.6134
-0.495566
17.7765
-0.548357
17.9444
-0.601696
18.1169
-0.655566
18.2941
-0.709945
18.4756
-0.764809
18.6616
-0.820136
18.8518
-0.875898
19.0462
-0.93207
19.2448
-0.988622
19.4476
-1.04553
19.6544
-1.10275
19.8654
-1.16027
20.0803
-1.21805
20.2992
-1.27606
20.5221
-1.33426
20.749
-1.39262
20.9798
-1.45111
21.2146
-1.5097
21.4532
-1.56834
21.6957
-1.627
21.9421
-1.68565
22.1923
-1.74425
22.4464
-1.80278
22.7044
-1.86116
22.9656
-1.91944
23.2326
-1.97736
23.497
-2.03556
23.785
-2.09186
-2.15306
24.0155
35.0341
3.45161
-35.6103
34.4528
3.34265
33.8663
3.23276
33.2737
3.12201
32.674
3.01046
32.0662
2.89819
31.4491
2.78526
30.8212
2.67174
30.181
2.5577
29.5265
2.44317
28.8554
2.32824
28.1652
2.21294
27.4528
2.09733
26.7147
1.98145
25.9467
1.86534
25.1447
1.74908
24.3046
1.63279
23.4246
1.51671
22.5077
1.40138
21.5659
1.28775
20.622
1.17731
19.708
1.0719
18.8589
0.97332
18.1041
0.882811
17.4608
0.80077
16.933
0.726744
16.5139
0.659691
16.1907
0.59832
15.9484
0.541343
15.7725
0.487625
15.6504
0.436235
15.5719
0.386441
15.5286
0.337681
15.514
0.289529
15.523
0.241665
15.5518
0.193847
15.5973
0.145893
15.657
0.0976646
15.729
0.0490597
15.8119
0
15.9043
-0.0495721
16.0053
-0.0996985
16.114
-0.150409
16.2299
-0.201723
16.3524
-0.253651
16.481
-0.3062
16.6154
-0.359369
16.7552
-0.413151
16.9002
-0.467539
17.0502
-0.52252
17.2049
-0.578078
17.3643
-0.634196
17.5281
-0.690853
17.6964
-0.748027
17.8689
-0.805695
18.0456
-0.863832
18.2265
-0.922409
18.4114
-0.9814
18.6003
-1.04077
18.7932
-1.1005
18.9901
-1.16056
19.1909
-1.2209
19.3955
-1.2815
19.604
-1.34232
19.8163
-1.40334
20.0324
-1.4645
20.2523
-1.52579
20.476
-1.58716
20.7034
-1.64858
20.9346
-1.71001
21.1694
-1.77142
21.408
-1.83276
21.6502
-1.894
21.8963
-1.95508
22.1453
-2.01604
22.3999
-2.07662
22.6521
-2.13747
22.9266
-2.19635
-2.26021
23.1471
33.619
3.5916
-34.1766
33.0563
3.47771
32.4884
3.36286
31.9142
3.24709
31.333
3.13049
30.7436
3.01312
30.1447
2.89505
29.5351
2.77634
28.913
2.65707
28.2765
2.53728
27.6234
2.41704
26.951
2.29639
26.2564
2.17539
25.5359
2.05408
24.7859
1.93252
24.0023
1.8108
23.1823
1.68911
22.3259
1.56781
21.4393
1.44762
20.5376
1.32976
19.6458
1.21591
18.7953
1.10799
18.0172
1.00767
17.3347
0.91591
16.7592
0.832788
16.2906
0.757604
15.9202
0.689187
15.6353
0.626207
15.4219
0.567395
15.2673
0.51166
15.1605
0.458113
15.0923
0.406061
15.0557
0.35497
15.0449
0.304434
15.0555
0.254146
15.0842
0.203874
15.1282
0.153441
15.1853
0.102714
15.2538
0.0515926
15.3324
-1.04157e-07
15.42
-0.0521198
15.5157
-0.104808
15.6187
-0.158094
15.7285
-0.211996
15.8445
-0.266526
15.9663
-0.321688
16.0937
-0.37748
16.2262
-0.433898
16.3637
-0.490931
16.506
-0.548567
16.6529
-0.606788
16.8042
-0.665577
16.9598
-0.724913
17.1196
-0.784772
17.2836
-0.84513
17.4516
-0.90596
17.6236
-0.967235
17.7994
-1.02893
17.9792
-1.091
18.1628
-1.15343
18.3502
-1.21618
18.5413
-1.27922
18.7362
-1.34251
18.9348
-1.40602
19.137
-1.46971
19.343
-1.53355
19.5525
-1.5975
19.7657
-1.66153
19.9825
-1.72559
20.2028
-1.78964
20.4267
-1.85366
20.6542
-1.91759
20.8852
-1.98141
21.1198
-2.04505
21.3573
-2.10855
21.6001
-2.17164
21.8408
-2.23498
22.1024
-2.29631
-2.36267
22.3135
32.258
3.72261
-32.7977
31.7133
3.60403
31.1632
3.48443
30.6069
3.36388
30.0434
3.24245
29.4716
3.1202
28.8904
2.99721
28.2983
2.87355
27.6936
2.74927
27.0744
2.62443
26.4385
2.4991
25.7832
2.37332
25.1056
2.24714
24.4022
2.12062
23.6695
1.99383
22.9043
1.86691
22.105
1.74012
21.2738
1.61399
20.4198
1.48945
19.561
1.36796
18.7235
1.25138
17.9368
1.1416
17.2274
1.04007
16.6128
0.94746
16.0994
0.863523
15.6839
0.787355
15.3567
0.717693
15.1054
0.653195
14.9175
0.59263
14.7816
0.534954
14.688
0.479327
14.6289
0.425091
14.598
0.371742
14.5905
0.318895
14.6025
0.266256
14.6309
0.213602
14.6733
0.160764
14.7279
0.107612
14.7931
0.0540489
14.8677
0
14.9508
-0.0545897
15.0414
-0.10976
15.139
-0.165539
15.243
-0.221946
15.3529
-0.278991
15.4683
-0.336677
15.5891
-0.395003
15.7148
-0.453963
15.8452
-0.513547
15.9802
-0.57374
16.1196
-0.634525
16.2633
-0.695884
16.4111
-0.757794
16.563
-0.820232
16.7189
-0.883172
16.8786
-0.946586
17.0422
-1.01045
17.2095
-1.07472
17.3806
-1.13938
17.5553
-1.20439
17.7337
-1.26972
17.9158
-1.33533
18.1014
-1.40119
18.2905
-1.46726
18.4832
-1.53351
18.6795
-1.5999
18.8792
-1.66638
19.0824
-1.73293
19.2891
-1.79949
19.4992
-1.86604
19.7127
-1.93254
19.9296
-1.99893
20.1499
-2.06519
20.3737
-2.13125
20.6003
-2.19715
20.8318
-2.26262
21.0615
-2.32832
21.3108
-2.39197
-2.46067
21.5129
30.9492
3.84497
-31.4715
30.4217
3.72192
29.8888
3.5978
29.3496
3.47268
28.8032
3.34663
28.2484
3.21973
27.6841
3.09204
27.1088
2.96362
26.5209
2.83455
25.9183
2.70487
25.2989
2.57465
24.66
2.44394
23.9987
2.31279
23.3119
2.18128
22.5963
2.04949
21.8496
1.91763
21.0718
1.78608
20.2676
1.65554
19.4488
1.52721
18.6356
1.40274
17.8538
1.28409
17.1303
1.17305
16.4866
1.07081
15.935
0.977661
15.478
0.893115
15.11
0.816094
14.821
0.745278
14.5993
0.679338
14.4337
0.617089
14.3142
0.557541
14.2322
0.499902
14.181
0.443552
14.1551
0.388015
14.1504
0.332926
14.1633
0.278005
14.1914
0.22304
14.2323
0.167868
14.2844
0.112363
14.3465
0.056431
14.4173
0
14.4961
-0.0569835
14.5819
-0.114559
14.6744
-0.172752
14.7729
-0.231583
14.877
-0.291059
14.9865
-0.351185
15.101
-0.411959
15.2202
-0.473372
15.344
-0.535414
15.4721
-0.598072
15.6045
-0.661326
15.7409
-0.725157
15.8814
-0.789543
16.0258
-0.854458
16.1739
-0.919876
16.3259
-0.985769
16.4815
-1.05211
16.6407
-1.11886
16.8035
-1.18599
16.9699
-1.25347
17.1398
-1.32127
17.3131
-1.38934
17.49
-1.45765
17.6702
-1.52616
17.8538
-1.59485
18.0409
-1.66365
18.2313
-1.73255
18.425
-1.80149
18.6221
-1.87045
18.8224
-1.93937
19.026
-2.00821
19.233
-2.07694
19.4431
-2.14551
19.6565
-2.21387
19.8727
-2.28204
20.0937
-2.34976
20.3128
-2.41768
20.5505
-2.48352
-2.55443
20.744
29.6905
3.95902
-30.1962
29.1797
3.8317
28.6633
3.70326
28.1406
3.57378
27.6106
3.44333
27.0722
3.31197
26.5241
3.17977
25.9649
3.04681
25.393
2.91314
24.8064
2.77882
24.2028
2.64392
23.5797
2.50847
22.9342
2.37255
22.2636
2.23625
21.565
2.09971
20.8372
1.9632
20.0822
1.82725
19.307
1.6928
18.526
1.56127
17.7604
1.4345
17.035
1.31443
16.3732
1.20268
15.7916
1.1001
15.2982
1.00668
14.892
0.921683
14.5662
0.843905
14.3109
0.772003
14.1153
0.704681
13.9692
0.640809
13.864
0.57945
13.7921
0.519862
13.7478
0.461463
13.7264
0.403804
13.724
0.34654
13.7377
0.289406
13.7652
0.232198
13.8046
0.17476
13.8544
0.116971
13.9135
0.0587412
13.9807
0
14.0554
-0.0593043
14.1368
-0.119209
14.2244
-0.179741
14.3177
-0.240917
14.4165
-0.302745
14.5202
-0.365229
14.6288
-0.428366
14.7419
-0.492147
14.8594
-0.556561
14.981
-0.621593
15.1067
-0.687225
15.2364
-0.753435
15.3699
-0.820201
15.5071
-0.887497
15.648
-0.955294
15.7925
-1.02357
15.9406
-1.09228
16.0922
-1.1614
16.2472
-1.2309
16.4056
-1.30075
16.5674
-1.3709
16.7325
-1.44132
16.901
-1.51197
17.0728
-1.58282
17.2478
-1.65382
17.4261
-1.72494
17.6077
-1.79613
17.7924
-1.86736
17.9803
-1.93858
18.1714
-2.00975
18.3657
-2.08082
18.563
-2.15177
18.7635
-2.22253
18.9672
-2.29307
19.1735
-2.36339
19.3843
-2.43323
19.5935
-2.50326
19.8201
-2.57117
-2.64414
20.0054
28.4801
4.06505
-28.9697
27.9853
3.93366
27.4849
3.80111
26.978
3.66746
26.4638
3.53279
25.941
3.39717
25.4086
3.26067
24.8649
3.12335
24.3083
2.98527
23.737
2.8465
23.1486
2.70709
22.5407
2.5671
21.9106
2.42661
21.2558
2.28574
20.5744
2.14469
19.8664
2.00385
19.1356
1.86394
18.3917
1.72612
17.6508
1.59203
16.9344
1.46362
16.2653
1.34275
15.6629
1.23075
15.1395
1.12817
14.699
1.03467
14.3384
0.949326
14.0501
0.870858
13.8245
0.797921
13.6518
0.729266
13.5229
0.66382
13.4301
0.600708
13.3672
0.53923
13.3289
0.478844
13.3112
0.419126
13.3108
0.359752
13.325
0.300468
13.352
0.241083
13.3899
0.181446
13.4375
0.121441
13.4937
0.0609818
13.5575
0
13.6283
-0.061554
13.7055
-0.123717
13.7885
-0.186513
13.877
-0.249958
13.9706
-0.314062
14.069
-0.378825
14.172
-0.444244
14.2793
-0.51031
14.3908
-0.577012
14.5064
-0.644334
14.6258
-0.712255
14.749
-0.780756
14.8759
-0.849811
15.0064
-0.919395
15.1404
-0.989479
15.2779
-1.06003
15.4188
-1.13103
15.5631
-1.20242
15.7107
-1.27419
15.8616
-1.3463
16.0157
-1.4187
16.1731
-1.49137
16.3336
-1.56426
16.4974
-1.63733
16.6642
-1.71054
16.8342
-1.78386
17.0073
-1.85724
17.1835
-1.93064
17.3628
-2.00401
17.5451
-2.07732
17.7304
-2.15052
17.9187
-2.22356
18.11
-2.29641
18.3044
-2.369
18.5013
-2.44136
18.7024
-2.51321
18.9022
-2.58523
19.1183
-2.6551
-2.73001
19.2958
27.3162
4.16337
-27.7903
26.8367
4.0281
26.3517
3.89161
25.86
3.75399
25.361
3.61529
24.8533
3.47559
24.3358
3.33496
23.807
3.19346
23.2652
3.05116
22.7085
2.90811
22.1347
2.76438
21.5415
2.62003
20.9265
2.47517
20.2875
2.32995
19.6236
2.18468
18.9364
2.03988
18.2318
1.89649
17.5215
1.75589
16.8227
1.6199
16.1562
1.49049
15.5424
1.36936
14.9966
1.25752
14.527
1.15518
14.1346
1.06174
13.8148
0.976125
13.5596
0.89701
13.3601
0.823075
13.2074
0.753126
13.0935
0.686154
13.0118
0.621338
12.9566
0.558027
12.9236
0.495712
12.9091
0.433996
12.9103
0.372573
12.925
0.311203
12.9513
0.249704
12.9878
0.187932
13.0332
0.125778
13.0866
0.0631549
13.1472
-1.04037e-07
13.2144
-0.063735
13.2876
-0.128085
13.3663
-0.193074
13.4502
-0.258717
13.539
-0.325021
13.6323
-0.391987
13.73
-0.459611
13.8319
-0.527884
13.9378
-0.596793
14.0475
-0.666322
14.161
-0.73645
14.2781
-0.807155
14.3987
-0.878413
14.5229
-0.950197
14.6504
-1.02248
14.7812
-1.09522
14.9154
-1.1684
15.0527
-1.24198
15.1933
-1.31592
15.337
-1.39019
15.4839
-1.46475
15.6339
-1.53956
15.7869
-1.61459
15.943
-1.68978
16.1021
-1.76511
16.2643
-1.84052
16.4294
-1.91599
16.5974
-1.99145
16.7685
-2.06688
16.9424
-2.14222
17.1192
-2.21743
17.299
-2.29246
17.4815
-2.36728
17.667
-2.44182
17.855
-2.51611
18.047
-2.58987
18.2378
-2.66376
18.4439
-2.73549
-2.81221
18.6139
26.1969
4.25425
-26.6561
25.7323
4.11528
25.2619
3.97504
24.785
3.83361
24.3005
3.69106
23.8073
3.54746
23.3041
3.40287
22.7896
3.25737
22.2619
3.11101
21.7193
2.96385
21.1597
2.81597
20.5808
2.66745
19.9806
2.51842
19.3576
2.3691
18.7119
2.21992
18.0469
2.07158
17.3704
1.92524
16.6957
1.78249
16.0406
1.64528
15.4243
1.51548
14.864
1.39456
14.3714
1.2832
13.9512
1.18128
13.6021
1.08799
13.3185
1.00215
13.0927
0.922413
12.9161
0.847505
12.781
0.776295
12.6803
0.707837
12.6081
0.641365
12.5597
0.576273
12.5313
0.512084
12.5196
0.448428
12.5222
0.385015
12.5372
0.321621
12.5628
0.25807
12.5978
0.194226
12.6411
0.129984
12.6919
0.0652624
12.7495
0
12.8132
-0.0658495
12.8826
-0.132319
12.9573
-0.199432
13.0369
-0.267201
13.1211
-0.335634
13.2096
-0.40473
13.3024
-0.474485
13.3991
-0.544889
13.4997
-0.615928
13.6039
-0.687585
13.7118
-0.759839
13.8231