/*--------------------------------*- C++ -*----------------------------------*\
| =========                 |                                                 |
| \\      /  F ield         | OpenFOAM: The Open Source CFD Toolbox           |
|  \\    /   O peration     | Version:  2312                                  |
|   \\  /    A nd           | Website:  www.openfoam.com                      |
|    \\/     M anipulation  |                                                 |
\*---------------------------------------------------------------------------*/
FoamFile
{
    version     2.0;
    format      ascii;
    arch        "LSB;label=32;scalar=64";
    class       volScalarField;
    location    "0.1";
    object      wave;
}
// * * * * * * * * * * * * * * * * * * * * * * * * * * * * * * * * * * * * * //

dimensions      [0 0 0 0 0 0 0];

internalField   nonuniform List<scalar> 
100
(
0.178373
0.3316
0.476497
0.609423
0.727038
0.826389
0.904979
0.960834
0.992551
0.999333
0.981009
0.93804
0.871505
0.783077
0.674975
0.549917
0.411044
0.261844
0.106066
-0.0523761
-0.209503
-0.361366
-0.504151
-0.634271
-0.748456
-0.843839
-0.918022
-0.969143
-0.995917
-0.997671
-0.974361
-0.926573
-0.855508
-0.76295
-0.651226
-0.523141
-0.381913
-0.231091
-0.074464
0.084034
0.240421
0.390768
0.531298
0.658481
0.769121
0.860439
0.930141
0.976476
0.99828
0.995004
0.966732
0.914173
0.838649
0.742055
0.62682
0.495837
0.352398
0.200106
0.0427868
-0.115607
-0.271097
-0.419776
-0.55791
-0.682028
-0.789011
-0.876173
-0.941324
-0.982826
-0.999637
-0.991336
-0.95813
-0.900853
-0.820945
-0.720413
-0.601783
-0.468035
-0.322528
-0.168919
-0.0110664
0.147064
0.3015
0.448362
0.58396
0.704888
0.808107
0.891025
0.951558
0.988186
0.999988
0.986669
0.948562
0.886626
0.802415
0.698046
0.57614
0.439761
0.292333
0.137562
-0.0206651
-0.178373
)
;

boundaryField
{
    movingWall
    {
        type            calculated;
        value           uniform 0;
    }
    fixedWalls
    {
        type            calculated;
        value           uniform 0;
    }
    frontAndBack
    {
        type            empty;
    }
}


// ************************************************************************* //
