/*--------------------------------*- C++ -*----------------------------------*\
| =========                 |                                                 |
| \\      /  F ield         | OpenFOAM: The Open Source CFD Toolbox           |
|  \\    /   O peration     | Version:  2206                                  |
|   \\  /    A nd           | Website:  www.openfoam.com                      |
|    \\/     M anipulation  |                                                 |
\*---------------------------------------------------------------------------*/
FoamFile
{
    version     2.0;
    format      ascii;
    arch        "LSB;label=32;scalar=64";
    class       volScalarField;
    location    "0.95";
    object      wave;
}
// * * * * * * * * * * * * * * * * * * * * * * * * * * * * * * * * * * * * * //

dimensions      [0 0 0 0 0 0 0];

internalField   nonuniform List<scalar> 
100
(
0.856955
0.927624
0.974988
0.997858
0.99566
0.968449
0.916908
0.842332
0.746595
0.632102
0.501729
0.358752
0.206762
0.0495774
-0.108852
-0.264548
-0.413597
-0.552256
-0.67704
-0.784817
-0.872876
-0.939007
-0.981549
-0.999431
-0.992206
-0.960054
-0.903783
-0.824808
-0.725111
-0.607198
-0.474031
-0.328955
-0.175615
-0.0178635
0.140337
0.295012
0.442276
0.578428
0.70005
0.804084
0.887918
0.949446
0.987121
0.999998
0.987753
0.950693
0.889749
0.806453
0.702897
0.581683
0.445856
0.298828
0.144292
-0.0138683
-0.17168
-0.325179
-0.470509
-0.604019
-0.722354
-0.822542
-0.902066
-0.958928
-0.9917
-0.999558
-0.982305
-0.940374
-0.874819
-0.787287
-0.679976
-0.555582
-0.417232
-0.268399
-0.112824
0.0455861
0.202851
0.355019
0.498269
0.629001
0.743931
0.840172
0.915306
0.967445
0.99528
0.998111
0.975868
0.929109
0.859008
0.767327
0.656369
0.528922
0.388187
0.2377
0.0812415
-0.0772581
-0.233817
-0.384501
-0.525527
-0.653349
-0.764759
-0.856955
)
;

boundaryField
{
    movingWall
    {
        type            calculated;
        value           uniform 0;
    }
    fixedWalls
    {
        type            calculated;
        value           uniform 0;
    }
    frontAndBack
    {
        type            empty;
    }
}


// ************************************************************************* //
