/*--------------------------------*- C++ -*----------------------------------*\
| =========                 |                                                 |
| \\      /  F ield         | OpenFOAM: The Open Source CFD Toolbox           |
|  \\    /   O peration     | Version:  2312                                  |
|   \\  /    A nd           | Website:  www.openfoam.com                      |
|    \\/     M anipulation  |                                                 |
\*---------------------------------------------------------------------------*/
FoamFile
{
    version     2.0;
    format      ascii;
    arch        "LSB;label=32;scalar=64";
    class       volVectorField;
    location    "1.1";
    object      flux;
}
// * * * * * * * * * * * * * * * * * * * * * * * * * * * * * * * * * * * * * //

dimensions      [0 1 -1 1 0 0 0];

internalField   nonuniform List<vector> 
100
(
(-7.11668 0 0)
(-6.81493 0 0)
(-6.51694 0 0)
(-6.22317 0 0)
(-5.93406 0 0)
(-5.64998 0 0)
(-5.37128 0 0)
(-5.09827 0 0)
(-4.83123 0 0)
(-4.57039 0 0)
(-4.31597 0 0)
(-4.06814 0 0)
(-3.82706 0 0)
(-3.59286 0 0)
(-3.36563 0 0)
(-3.14544 0 0)
(-2.93236 0 0)
(-2.72642 0 0)
(-2.52763 0 0)
(-2.33598 0 0)
(-2.15146 0 0)
(-1.97402 0 0)
(-1.80362 0 0)
(-1.64019 0 0)
(-1.48366 0 0)
(-1.33393 0 0)
(-1.19091 0 0)
(-1.0545 0 0)
(-0.924559 0 0)
(-0.800982 0 0)
(-0.683634 0 0)
(-0.572379 0 0)
(-0.467075 0 0)
(-0.367576 0 0)
(-0.273731 0 0)
(-0.185389 0 0)
(-0.102393 0 0)
(-0.0245871 0 0)
(0.0481891 0 0)
(0.116095 0 0)
(0.17929 0 0)
(0.237936 0 0)
(0.292192 0 0)
(0.342217 0 0)
(0.388169 0 0)
(0.430205 0 0)
(0.46848 0 0)
(0.503146 0 0)
(0.534354 0 0)
(0.562252 0 0)
(0.586986 0 0)
(0.608697 0 0)
(0.627526 0 0)
(0.643608 0 0)
(0.657075 0 0)
(0.668058 0 0)
(0.676682 0 0)
(0.683069 0 0)
(0.687338 0 0)
(0.689602 0 0)
(0.689974 0 0)
(0.688559 0 0)
(0.685461 0 0)
(0.680779 0 0)
(0.674609 0 0)
(0.667042 0 0)
(0.658166 0 0)
(0.648065 0 0)
(0.63682 0 0)
(0.624507 0 0)
(0.611199 0 0)
(0.596965 0 0)
(0.581872 0 0)
(0.565982 0 0)
(0.549355 0 0)
(0.532047 0 0)
(0.51411 0 0)
(0.495594 0 0)
(0.476547 0 0)
(0.457013 0 0)
(0.437032 0 0)
(0.416645 0 0)
(0.395886 0 0)
(0.37479 0 0)
(0.353388 0 0)
(0.33171 0 0)
(0.309784 0 0)
(0.287635 0 0)
(0.265286 0 0)
(0.24276 0 0)
(0.220077 0 0)
(0.197256 0 0)
(0.174316 0 0)
(0.151273 0 0)
(0.128142 0 0)
(0.10494 0 0)
(0.0816789 0 0)
(0.0583735 0 0)
(0.0350366 0 0)
(0.011681 0 0)
)
;

boundaryField
{
    movingWall
    {
        type            calculated;
        value           uniform (-7.26844 0 0);
    }
    fixedWalls
    {
        type            calculated;
        value           nonuniform List<vector> 
201
(
(-7.11668 0 0)
(-6.81493 0 0)
(-6.51694 0 0)
(-6.22317 0 0)
(-5.93406 0 0)
(-5.64998 0 0)
(-5.37128 0 0)
(-5.09827 0 0)
(-4.83123 0 0)
(-4.57039 0 0)
(-4.31597 0 0)
(-4.06814 0 0)
(-3.82706 0 0)
(-3.59286 0 0)
(-3.36563 0 0)
(-3.14544 0 0)
(-2.93236 0 0)
(-2.72642 0 0)
(-2.52763 0 0)
(-2.33598 0 0)
(-2.15146 0 0)
(-1.97402 0 0)
(-1.80362 0 0)
(-1.64019 0 0)
(-1.48366 0 0)
(-1.33393 0 0)
(-1.19091 0 0)
(-1.0545 0 0)
(-0.924559 0 0)
(-0.800982 0 0)
(-0.683634 0 0)
(-0.572379 0 0)
(-0.467075 0 0)
(-0.367576 0 0)
(-0.273731 0 0)
(-0.185389 0 0)
(-0.102393 0 0)
(-0.0245871 0 0)
(0.0481891 0 0)
(0.116095 0 0)
(0.17929 0 0)
(0.237936 0 0)
(0.292192 0 0)
(0.342217 0 0)
(0.388169 0 0)
(0.430205 0 0)
(0.46848 0 0)
(0.503146 0 0)
(0.534354 0 0)
(0.562252 0 0)
(0.586986 0 0)
(0.608697 0 0)
(0.627526 0 0)
(0.643608 0 0)
(0.657075 0 0)
(0.668058 0 0)
(0.676682 0 0)
(0.683069 0 0)
(0.687338 0 0)
(0.689602 0 0)
(0.689974 0 0)
(0.688559 0 0)
(0.685461 0 0)
(0.680779 0 0)
(0.674609 0 0)
(0.667042 0 0)
(0.658166 0 0)
(0.648065 0 0)
(0.63682 0 0)
(0.624507 0 0)
(0.611199 0 0)
(0.596965 0 0)
(0.581872 0 0)
(0.565982 0 0)
(0.549355 0 0)
(0.532047 0 0)
(0.51411 0 0)
(0.495594 0 0)
(0.476547 0 0)
(0.457013 0 0)
(0.437032 0 0)
(0.416645 0 0)
(0.395886 0 0)
(0.37479 0 0)
(0.353388 0 0)
(0.33171 0 0)
(0.309784 0 0)
(0.287635 0 0)
(0.265286 0 0)
(0.24276 0 0)
(0.220077 0 0)
(0.197256 0 0)
(0.174316 0 0)
(0.151273 0 0)
(0.128142 0 0)
(0.10494 0 0)
(0.0816789 0 0)
(0.0583735 0 0)
(0.0350366 0 0)
(0.011681 0 0)
(0 0 0)
(-7.11668 0 0)
(-6.81493 0 0)
(-6.51694 0 0)
(-6.22317 0 0)
(-5.93406 0 0)
(-5.64998 0 0)
(-5.37128 0 0)
(-5.09827 0 0)
(-4.83123 0 0)
(-4.57039 0 0)
(-4.31597 0 0)
(-4.06814 0 0)
(-3.82706 0 0)
(-3.59286 0 0)
(-3.36563 0 0)
(-3.14544 0 0)
(-2.93236 0 0)
(-2.72642 0 0)
(-2.52763 0 0)
(-2.33598 0 0)
(-2.15146 0 0)
(-1.97402 0 0)
(-1.80362 0 0)
(-1.64019 0 0)
(-1.48366 0 0)
(-1.33393 0 0)
(-1.19091 0 0)
(-1.0545 0 0)
(-0.924559 0 0)
(-0.800982 0 0)
(-0.683634 0 0)
(-0.572379 0 0)
(-0.467075 0 0)
(-0.367576 0 0)
(-0.273731 0 0)
(-0.185389 0 0)
(-0.102393 0 0)
(-0.0245871 0 0)
(0.0481891 0 0)
(0.116095 0 0)
(0.17929 0 0)
(0.237936 0 0)
(0.292192 0 0)
(0.342217 0 0)
(0.388169 0 0)
(0.430205 0 0)
(0.46848 0 0)
(0.503146 0 0)
(0.534354 0 0)
(0.562252 0 0)
(0.586986 0 0)
(0.608697 0 0)
(0.627526 0 0)
(0.643608 0 0)
(0.657075 0 0)
(0.668058 0 0)
(0.676682 0 0)
(0.683069 0 0)
(0.687338 0 0)
(0.689602 0 0)
(0.689974 0 0)
(0.688559 0 0)
(0.685461 0 0)
(0.680779 0 0)
(0.674609 0 0)
(0.667042 0 0)
(0.658166 0 0)
(0.648065 0 0)
(0.63682 0 0)
(0.624507 0 0)
(0.611199 0 0)
(0.596965 0 0)
(0.581872 0 0)
(0.565982 0 0)
(0.549355 0 0)
(0.532047 0 0)
(0.51411 0 0)
(0.495594 0 0)
(0.476547 0 0)
(0.457013 0 0)
(0.437032 0 0)
(0.416645 0 0)
(0.395886 0 0)
(0.37479 0 0)
(0.353388 0 0)
(0.33171 0 0)
(0.309784 0 0)
(0.287635 0 0)
(0.265286 0 0)
(0.24276 0 0)
(0.220077 0 0)
(0.197256 0 0)
(0.174316 0 0)
(0.151273 0 0)
(0.128142 0 0)
(0.10494 0 0)
(0.0816789 0 0)
(0.0583735 0 0)
(0.0350366 0 0)
(0.011681 0 0)
)
;
    }
    frontAndBack
    {
        type            empty;
    }
}


// ************************************************************************* //
