/*--------------------------------*- C++ -*----------------------------------*\
| =========                 |                                                 |
| \\      /  F ield         | OpenFOAM: The Open Source CFD Toolbox           |
|  \\    /   O peration     | Version:  2312                                  |
|   \\  /    A nd           | Website:  www.openfoam.com                      |
|    \\/     M anipulation  |                                                 |
\*---------------------------------------------------------------------------*/
FoamFile
{
    version     2.0;
    format      ascii;
    arch        "LSB;label=32;scalar=64";
    class       volScalarField;
    location    "1.1";
    object      gradTx;
}
// * * * * * * * * * * * * * * * * * * * * * * * * * * * * * * * * * * * * * //

dimensions      [0 -1 0 1 0 0 0];

internalField   nonuniform List<scalar> 
100
(
-7.11668
-6.81493
-6.51694
-6.22317
-5.93406
-5.64998
-5.37128
-5.09827
-4.83123
-4.57039
-4.31597
-4.06814
-3.82706
-3.59286
-3.36563
-3.14544
-2.93236
-2.72642
-2.52763
-2.33598
-2.15146
-1.97402
-1.80362
-1.64019
-1.48366
-1.33393
-1.19091
-1.0545
-0.924559
-0.800982
-0.683634
-0.572379
-0.467075
-0.367576
-0.273731
-0.185389
-0.102393
-0.0245871
0.0481891
0.116095
0.17929
0.237936
0.292192
0.342217
0.388169
0.430205
0.46848
0.503146
0.534354
0.562252
0.586986
0.608697
0.627526
0.643608
0.657075
0.668058
0.676682
0.683069
0.687338
0.689602
0.689974
0.688559
0.685461
0.680779
0.674609
0.667042
0.658166
0.648065
0.63682
0.624507
0.611199
0.596965
0.581872
0.565982
0.549355
0.532047
0.51411
0.495594
0.476547
0.457013
0.437032
0.416645
0.395886
0.37479
0.353388
0.33171
0.309784
0.287635
0.265286
0.24276
0.220077
0.197256
0.174316
0.151273
0.128142
0.10494
0.0816789
0.0583735
0.0350366
0.011681
)
;

boundaryField
{
    movingWall
    {
        type            calculated;
        value           uniform -7.26844;
    }
    fixedWalls
    {
        type            calculated;
        value           nonuniform List<scalar> 
201
(
-7.11668
-6.81493
-6.51694
-6.22317
-5.93406
-5.64998
-5.37128
-5.09827
-4.83123
-4.57039
-4.31597
-4.06814
-3.82706
-3.59286
-3.36563
-3.14544
-2.93236
-2.72642
-2.52763
-2.33598
-2.15146
-1.97402
-1.80362
-1.64019
-1.48366
-1.33393
-1.19091
-1.0545
-0.924559
-0.800982
-0.683634
-0.572379
-0.467075
-0.367576
-0.273731
-0.185389
-0.102393
-0.0245871
0.0481891
0.116095
0.17929
0.237936
0.292192
0.342217
0.388169
0.430205
0.46848
0.503146
0.534354
0.562252
0.586986
0.608697
0.627526
0.643608
0.657075
0.668058
0.676682
0.683069
0.687338
0.689602
0.689974
0.688559
0.685461
0.680779
0.674609
0.667042
0.658166
0.648065
0.63682
0.624507
0.611199
0.596965
0.581872
0.565982
0.549355
0.532047
0.51411
0.495594
0.476547
0.457013
0.437032
0.416645
0.395886
0.37479
0.353388
0.33171
0.309784
0.287635
0.265286
0.24276
0.220077
0.197256
0.174316
0.151273
0.128142
0.10494
0.0816789
0.0583735
0.0350366
0.011681
0
-7.11668
-6.81493
-6.51694
-6.22317
-5.93406
-5.64998
-5.37128
-5.09827
-4.83123
-4.57039
-4.31597
-4.06814
-3.82706
-3.59286
-3.36563
-3.14544
-2.93236
-2.72642
-2.52763
-2.33598
-2.15146
-1.97402
-1.80362
-1.64019
-1.48366
-1.33393
-1.19091
-1.0545
-0.924559
-0.800982
-0.683634
-0.572379
-0.467075
-0.367576
-0.273731
-0.185389
-0.102393
-0.0245871
0.0481891
0.116095
0.17929
0.237936
0.292192
0.342217
0.388169
0.430205
0.46848
0.503146
0.534354
0.562252
0.586986
0.608697
0.627526
0.643608
0.657075
0.668058
0.676682
0.683069
0.687338
0.689602
0.689974
0.688559
0.685461
0.680779
0.674609
0.667042
0.658166
0.648065
0.63682
0.624507
0.611199
0.596965
0.581872
0.565982
0.549355
0.532047
0.51411
0.495594
0.476547
0.457013
0.437032
0.416645
0.395886
0.37479
0.353388
0.33171
0.309784
0.287635
0.265286
0.24276
0.220077
0.197256
0.174316
0.151273
0.128142
0.10494
0.0816789
0.0583735
0.0350366
0.011681
)
;
    }
    frontAndBack
    {
        type            empty;
    }
}


// ************************************************************************* //
