/*--------------------------------*- C++ -*----------------------------------*\
| =========                 |                                                 |
| \\      /  F ield         | OpenFOAM: The Open Source CFD Toolbox           |
|  \\    /   O peration     | Version:  2206                                  |
|   \\  /    A nd           | Website:  www.openfoam.com                      |
|    \\/     M anipulation  |                                                 |
\*---------------------------------------------------------------------------*/
FoamFile
{
    version     2.0;
    format      ascii;
    arch        "LSB;label=32;scalar=64";
    class       volScalarField;
    location    "1.8";
    object      wave;
}
// * * * * * * * * * * * * * * * * * * * * * * * * * * * * * * * * * * * * * //

dimensions      [0 0 0 0 0 0 0];

internalField   nonuniform List<scalar> 
100
(
0.952779
0.892831
0.810454
0.707716
0.587199
0.45193
0.305308
0.151015
-0.00707078
-0.164979
-0.318743
-0.4645
-0.598587
-0.717636
-0.818657
-0.899111
-0.956978
-0.990803
-0.999737
-0.983555
-0.942665
-0.878092
-0.79146
-0.684944
-0.561222
-0.4234
-0.274941
-0.119575
0.0387943
0.196189
0.348656
0.492363
0.623701
0.739371
0.836466
0.912547
0.965702
0.994597
0.998506
0.97733
0.931601
0.862468
0.771669
0.661483
0.534679
0.394443
0.244298
0.088015
-0.0704788
-0.227202
-0.378217
-0.519731
-0.648188
-0.760361
-0.853432
-0.925063
-0.973454
-0.99739
-0.99627
-0.97012
-0.9196
-0.845976
-0.7511
-0.637355
-0.507598
-0.365089
-0.213408
-0.056366
0.102092
0.257986
0.407398
0.546575
0.672022
0.780585
0.869539
0.936648
0.980226
0.999179
0.99303
0.961934
0.906672
0.828633
0.729776
0.612586
0.480006
0.335367
0.182304
0.0246601
-0.133603
-0.28851
-0.436168
-0.57287
-0.695179
-0.800024
-0.884771
-0.94729
-0.986011
-0.999961
-0.98879
-0.952779
)
;

boundaryField
{
    movingWall
    {
        type            calculated;
        value           uniform 0;
    }
    fixedWalls
    {
        type            calculated;
        value           uniform 0;
    }
    frontAndBack
    {
        type            empty;
    }
}


// ************************************************************************* //
