/*--------------------------------*- C++ -*----------------------------------*\
| =========                 |                                                 |
| \\      /  F ield         | OpenFOAM: The Open Source CFD Toolbox           |
|  \\    /   O peration     | Version:  2312                                  |
|   \\  /    A nd           | Website:  www.openfoam.com                      |
|    \\/     M anipulation  |                                                 |
\*---------------------------------------------------------------------------*/
FoamFile
{
    version     2.0;
    format      ascii;
    arch        "LSB;label=32;scalar=64";
    class       volVectorField;
    location    "0.551";
    object      U;
}
// * * * * * * * * * * * * * * * * * * * * * * * * * * * * * * * * * * * * * //

dimensions      [0 1 -1 0 0 0 0];

internalField   nonuniform List<vector> 
31205
(
(242.991 0 0)
(240.759 0 0)
(238.457 0 0)
(236.083 0 0)
(233.631 0 0)
(231.098 0 0)
(228.479 0 0)
(225.768 0 0)
(222.958 0 0)
(220.044 0 0)
(217.016 0 0)
(213.866 0 0)
(210.582 0 0)
(207.153 0 0)
(203.564 0 0)
(199.798 0 0)
(195.832 0 0)
(191.644 0 0)
(187.201 0 0)
(182.465 0 0)
(177.388 0 0)
(171.909 0 0)
(165.948 0 0)
(159.418 0 0)
(152.258 0 0)
(144.528 0 0)
(136.508 0 0)
(128.692 0 0)
(121.641 0 0)
(115.763 0 0)
(111.209 0 0)
(107.9 0 0)
(105.64 0 0)
(104.203 0 0)
(103.39 0 0)
(103.043 0 0)
(103.043 0 0)
(103.304 0 0)
(103.763 0 0)
(104.374 0 0)
(105.103 0 0)
(105.926 0 0)
(106.823 0 0)
(107.781 0 0)
(108.788 0 0)
(109.834 0 0)
(110.914 0 0)
(112.02 0 0)
(113.15 0 0)
(114.298 0 0)
(115.462 0 0)
(116.639 0 0)
(117.827 0 0)
(119.024 0 0)
(120.229 0 0)
(121.439 0 0)
(122.654 0 0)
(123.873 0 0)
(125.096 0 0)
(126.32 0 0)
(127.546 0 0)
(128.772 0 0)
(129.999 0 0)
(131.226 0 0)
(132.453 0 0)
(133.678 0 0)
(134.903 0 0)
(136.126 0 0)
(137.347 0 0)
(138.567 0 0)
(139.784 0 0)
(140.999 0 0)
(142.212 0 0)
(143.421 0 0)
(144.633 0 0)
(145.823 0 0)
(147.067 0 0)
(148.134 0 0)
(149.735 0 0)
(240.618 0 0)
(238.383 0 0)
(236.079 0 0)
(233.703 0 0)
(231.25 0 0)
(228.717 0 0)
(226.097 0 0)
(223.386 0 0)
(220.576 0 0)
(217.662 0 0)
(214.634 0 0)
(211.483 0 0)
(208.198 0 0)
(204.767 0 0)
(201.175 0 0)
(197.403 0 0)
(193.43 0 0)
(189.231 0 0)
(184.773 0 0)
(180.017 0 0)
(174.913 0 0)
(169.398 0 0)
(163.394 0 0)
(156.82 0 0)
(149.646 0 0)
(141.984 0 0)
(134.159 0 0)
(126.675 0 0)
(120.039 0 0)
(114.584 0 0)
(110.396 0 0)
(107.37 0 0)
(105.307 0 0)
(104 0 0)
(103.265 0 0)
(102.959 0 0)
(102.976 0 0)
(103.236 0 0)
(103.682 0 0)
(104.272 0 0)
(104.975 0 0)
(105.767 0 0)
(106.631 0 0)
(107.553 0 0)
(108.523 0 0)
(109.532 0 0)
(110.573 0 0)
(111.641 0 0)
(112.731 0 0)
(113.84 0 0)
(114.965 0 0)
(116.103 0 0)
(117.252 0 0)
(118.41 0 0)
(119.576 0 0)
(120.748 0 0)
(121.925 0 0)
(123.106 0 0)
(124.29 0 0)
(125.477 0 0)
(126.665 0 0)
(127.855 0 0)
(129.045 0 0)
(130.236 0 0)
(131.426 0 0)
(132.616 0 0)
(133.805 0 0)
(134.992 0 0)
(136.179 0 0)
(137.363 0 0)
(138.546 0 0)
(139.726 0 0)
(140.905 0 0)
(142.08 0 0)
(143.258 0 0)
(144.415 0 0)
(145.625 0 0)
(146.663 0 0)
(148.215 0 0)
(238.121 0 0)
(235.881 0 0)
(233.573 0 0)
(231.193 0 0)
(228.737 0 0)
(226.2 0 0)
(223.576 0 0)
(220.861 0 0)
(218.048 0 0)
(215.129 0 0)
(212.096 0 0)
(208.939 0 0)
(205.647 0 0)
(202.207 0 0)
(198.604 0 0)
(194.818 0 0)
(190.828 0 0)
(186.607 0 0)
(182.122 0 0)
(177.33 0 0)
(172.182 0 0)
(166.612 0 0)
(160.544 0 0)
(153.914 0 0)
(146.732 0 0)
(139.168 0 0)
(131.594 0 0)
(124.502 0 0)
(118.334 0 0)
(113.339 0 0)
(109.542 0 0)
(106.814 0 0)
(104.963 0 0)
(103.795 0 0)
(103.146 0 0)
(102.889 0 0)
(102.928 0 0)
(103.192 0 0)
(103.629 0 0)
(104.202 0 0)
(104.881 0 0)
(105.645 0 0)
(106.478 0 0)
(107.367 0 0)
(108.301 0 0)
(109.274 0 0)
(110.278 0 0)
(111.309 0 0)
(112.361 0 0)
(113.432 0 0)
(114.519 0 0)
(115.619 0 0)
(116.73 0 0)
(117.85 0 0)
(118.978 0 0)
(120.113 0 0)
(121.252 0 0)
(122.396 0 0)
(123.544 0 0)
(124.694 0 0)
(125.846 0 0)
(126.999 0 0)
(128.153 0 0)
(129.308 0 0)
(130.463 0 0)
(131.617 0 0)
(132.771 0 0)
(133.924 0 0)
(135.076 0 0)
(136.226 0 0)
(137.375 0 0)
(138.522 0 0)
(139.667 0 0)
(140.808 0 0)
(141.953 0 0)
(143.078 0 0)
(144.253 0 0)
(145.265 0 0)
(146.767 0 0)
(235.569 0 0)
(233.324 0 0)
(231.01 0 0)
(228.625 0 0)
(226.164 0 0)
(223.621 0 0)
(220.992 0 0)
(218.271 0 0)
(215.451 0 0)
(212.525 0 0)
(209.484 0 0)
(206.318 0 0)
(203.015 0 0)
(199.561 0 0)
(195.942 0 0)
(192.136 0 0)
(188.122 0 0)
(183.871 0 0)
(179.348 0 0)
(174.51 0 0)
(169.305 0 0)
(163.666 0 0)
(157.524 0 0)
(150.839 0 0)
(143.671 0 0)
(136.25 0 0)
(128.979 0 0)
(122.322 0 0)
(116.645 0 0)
(112.115 0 0)
(108.704 0 0)
(106.269 0 0)
(104.624 0 0)
(103.594 0 0)
(103.032 0 0)
(102.825 0 0)
(102.888 0 0)
(103.159 0 0)
(103.591 0 0)
(104.148 0 0)
(104.806 0 0)
(105.545 0 0)
(106.349 0 0)
(107.207 0 0)
(108.108 0 0)
(109.047 0 0)
(110.016 0 0)
(111.01 0 0)
(112.027 0 0)
(113.061 0 0)
(114.112 0 0)
(115.175 0 0)
(116.249 0 0)
(117.332 0 0)
(118.424 0 0)
(119.522 0 0)
(120.625 0 0)
(121.733 0 0)
(122.844 0 0)
(123.958 0 0)
(125.075 0 0)
(126.193 0 0)
(127.312 0 0)
(128.432 0 0)
(129.552 0 0)
(130.673 0 0)
(131.792 0 0)
(132.911 0 0)
(134.029 0 0)
(135.146 0 0)
(136.261 0 0)
(137.375 0 0)
(138.488 0 0)
(139.596 0 0)
(140.708 0 0)
(141.802 0 0)
(142.943 0 0)
(143.928 0 0)
(145.384 0 0)
(232.992 0 0)
(230.741 0 0)
(228.422 0 0)
(226.032 0 0)
(223.564 0 0)
(221.016 0 0)
(218.381 0 0)
(215.653 0 0)
(212.825 0 0)
(209.89 0 0)
(206.839 0 0)
(203.661 0 0)
(200.344 0 0)
(196.875 0 0)
(193.235 0 0)
(189.406 0 0)
(185.363 0 0)
(181.076 0 0)
(176.509 0 0)
(171.618 0 0)
(166.347 0 0)
(160.633 0 0)
(154.417 0 0)
(147.695 0 0)
(140.58 0 0)
(133.355 0 0)
(126.435 0 0)
(120.239 0 0)
(115.053 0 0)
(110.971 0 0)
(107.924 0 0)
(105.762 0 0)
(104.308 0 0)
(103.406 0 0)
(102.926 0 0)
(102.766 0 0)
(102.854 0 0)
(103.131 0 0)
(103.558 0 0)
(104.102 0 0)
(104.74 0 0)
(105.455 0 0)
(106.232 0 0)
(107.059 0 0)
(107.93 0 0)
(108.835 0 0)
(109.77 0 0)
(110.731 0 0)
(111.712 0 0)
(112.712 0 0)
(113.727 0 0)
(114.754 0 0)
(115.793 0 0)
(116.841 0 0)
(117.897 0 0)
(118.959 0 0)
(120.027 0 0)
(121.1 0 0)
(122.176 0 0)
(123.256 0 0)
(124.338 0 0)
(125.421 0 0)
(126.506 0 0)
(127.592 0 0)
(128.679 0 0)
(129.765 0 0)
(130.852 0 0)
(131.937 0 0)
(133.022 0 0)
(134.106 0 0)
(135.189 0 0)
(136.271 0 0)
(137.351 0 0)
(138.428 0 0)
(139.508 0 0)
(140.57 0 0)
(141.679 0 0)
(142.637 0 0)
(144.05 0 0)
(230.402 0 0)
(228.146 0 0)
(225.822 0 0)
(223.426 0 0)
(220.952 0 0)
(218.398 0 0)
(215.756 0 0)
(213.02 0 0)
(210.184 0 0)
(207.239 0 0)
(204.177 0 0)
(200.986 0 0)
(197.653 0 0)
(194.165 0 0)
(190.503 0 0)
(186.647 0 0)
(182.571 0 0)
(178.244 0 0)
(173.628 0 0)
(168.678 0 0)
(163.336 0 0)
(157.545 0 0)
(151.267 0 0)
(144.535 0 0)
(137.522 0 0)
(130.548 0 0)
(124.02 0 0)
(118.299 0 0)
(113.591 0 0)
(109.928 0 0)
(107.217 0 0)
(105.302 0 0)
(104.022 0 0)
(103.236 0 0)
(102.829 0 0)
(102.714 0 0)
(102.822 0 0)
(103.106 0 0)
(103.527 0 0)
(104.058 0 0)
(104.678 0 0)
(105.37 0 0)
(106.12 0 0)
(106.919 0 0)
(107.759 0 0)
(108.633 0 0)
(109.536 0 0)
(110.463 0 0)
(111.411 0 0)
(112.377 0 0)
(113.357 0 0)
(114.35 0 0)
(115.355 0 0)
(116.368 0 0)
(117.39 0 0)
(118.418 0 0)
(119.451 0 0)
(120.49 0 0)
(121.532 0 0)
(122.578 0 0)
(123.626 0 0)
(124.676 0 0)
(125.728 0 0)
(126.781 0 0)
(127.834 0 0)
(128.888 0 0)
(129.942 0 0)
(130.995 0 0)
(132.048 0 0)
(133.1 0 0)
(134.151 0 0)
(135.201 0 0)
(136.25 0 0)
(137.295 0 0)
(138.344 0 0)
(139.376 0 0)
(140.453 0 0)
(141.384 0 0)
(142.756 0 0)
(227.804 0 0)
(225.543 0 0)
(223.213 0 0)
(220.811 0 0)
(218.332 0 0)
(215.771 0 0)
(213.121 0 0)
(210.378 0 0)
(207.532 0 0)
(204.577 0 0)
(201.502 0 0)
(198.296 0 0)
(194.946 0 0)
(191.437 0 0)
(187.75 0 0)
(183.864 0 0)
(179.751 0 0)
(175.38 0 0)
(170.711 0 0)
(165.696 0 0)
(160.282 0 0)
(154.418 0 0)
(148.095 0 0)
(141.394 0 0)
(134.535 0 0)
(127.865 0 0)
(121.76 0 0)
(116.514 0 0)
(112.263 0 0)
(108.99 0 0)
(106.582 0 0)
(104.89 0 0)
(103.766 0 0)
(103.085 0 0)
(102.744 0 0)
(102.666 0 0)
(102.794 0 0)
(103.082 0 0)
(103.499 0 0)
(104.017 0 0)
(104.618 0 0)
(105.288 0 0)
(106.013 0 0)
(106.785 0 0)
(107.595 0 0)
(108.439 0 0)
(109.311 0 0)
(110.206 0 0)
(111.121 0 0)
(112.054 0 0)
(113.001 0 0)
(113.961 0 0)
(114.932 0 0)
(115.912 0 0)
(116.9 0 0)
(117.894 0 0)
(118.895 0 0)
(119.9 0 0)
(120.909 0 0)
(121.922 0 0)
(122.938 0 0)
(123.955 0 0)
(124.974 0 0)
(125.995 0 0)
(127.016 0 0)
(128.038 0 0)
(129.06 0 0)
(130.082 0 0)
(131.103 0 0)
(132.124 0 0)
(133.144 0 0)
(134.162 0 0)
(135.181 0 0)
(136.196 0 0)
(137.214 0 0)
(138.216 0 0)
(139.262 0 0)
(140.166 0 0)
(141.498 0 0)
(225.199 0 0)
(222.932 0 0)
(220.597 0 0)
(218.189 0 0)
(215.704 0 0)
(213.136 0 0)
(210.479 0 0)
(207.726 0 0)
(204.871 0 0)
(201.904 0 0)
(198.815 0 0)
(195.593 0 0)
(192.224 0 0)
(188.691 0 0)
(184.977 0 0)
(181.057 0 0)
(176.904 0 0)
(172.484 0 0)
(167.757 0 0)
(162.675 0 0)
(157.187 0 0)
(151.261 0 0)
(144.921 0 0)
(138.296 0 0)
(131.649 0 0)
(125.327 0 0)
(119.665 0 0)
(114.887 0 0)
(111.065 0 0)
(108.149 0 0)
(106.016 0 0)
(104.524 0 0)
(103.539 0 0)
(102.95 0 0)
(102.668 0 0)
(102.625 0 0)
(102.769 0 0)
(103.061 0 0)
(103.472 0 0)
(103.977 0 0)
(104.561 0 0)
(105.209 0 0)
(105.909 0 0)
(106.655 0 0)
(107.437 0 0)
(108.252 0 0)
(109.093 0 0)
(109.957 0 0)
(110.841 0 0)
(111.742 0 0)
(112.657 0 0)
(113.584 0 0)
(114.523 0 0)
(115.47 0 0)
(116.426 0 0)
(117.388 0 0)
(118.356 0 0)
(119.329 0 0)
(120.306 0 0)
(121.287 0 0)
(122.27 0 0)
(123.256 0 0)
(124.244 0 0)
(125.233 0 0)
(126.223 0 0)
(127.213 0 0)
(128.204 0 0)
(129.195 0 0)
(130.186 0 0)
(131.176 0 0)
(132.166 0 0)
(133.154 0 0)
(134.142 0 0)
(135.128 0 0)
(136.116 0 0)
(137.089 0 0)
(138.104 0 0)
(138.983 0 0)
(140.275 0 0)
(222.586 0 0)
(220.314 0 0)
(217.974 0 0)
(215.56 0 0)
(213.068 0 0)
(210.492 0 0)
(207.826 0 0)
(205.064 0 0)
(202.198 0 0)
(199.218 0 0)
(196.114 0 0)
(192.874 0 0)
(189.483 0 0)
(185.925 0 0)
(182.18 0 0)
(178.224 0 0)
(174.027 0 0)
(169.554 0 0)
(164.765 0 0)
(159.613 0 0)
(154.056 0 0)
(148.085 0 0)
(141.764 0 0)
(135.268 0 0)
(128.885 0 0)
(122.948 0 0)
(117.738 0 0)
(113.411 0 0)
(109.99 0 0)
(107.399 0 0)
(105.512 0 0)
(104.199 0 0)
(103.338 0 0)
(102.832 0 0)
(102.603 0 0)
(102.59 0 0)
(102.748 0 0)
(103.042 0 0)
(103.446 0 0)
(103.939 0 0)
(104.506 0 0)
(105.133 0 0)
(105.81 0 0)
(106.53 0 0)
(107.285 0 0)
(108.071 0 0)
(108.883 0 0)
(109.717 0 0)
(110.57 0 0)
(111.44 0 0)
(112.324 0 0)
(113.221 0 0)
(114.127 0 0)
(115.044 0 0)
(115.968 0 0)
(116.898 0 0)
(117.835 0 0)
(118.777 0 0)
(119.722 0 0)
(120.672 0 0)
(121.624 0 0)
(122.579 0 0)
(123.536 0 0)
(124.494 0 0)
(125.453 0 0)
(126.414 0 0)
(127.374 0 0)
(128.335 0 0)
(129.296 0 0)
(130.256 0 0)
(131.216 0 0)
(132.176 0 0)
(133.134 0 0)
(134.091 0 0)
(135.05 0 0)
(135.994 0 0)
(136.979 0 0)
(137.833 0 0)
(139.086 0 0)
(219.965 0 0)
(217.688 0 0)
(215.342 0 0)
(212.922 0 0)
(210.422 0 0)
(207.839 0 0)
(205.164 0 0)
(202.391 0 0)
(199.513 0 0)
(196.518 0 0)
(193.397 0 0)
(190.137 0 0)
(186.723 0 0)
(183.137 0 0)
(179.358 0 0)
(175.361 0 0)
(171.116 0 0)
(166.586 0 0)
(161.732 0 0)
(156.51 0 0)
(150.895 0 0)
(144.904 0 0)
(138.645 0 0)
(132.332 0 0)
(126.262 0 0)
(120.736 0 0)
(115.976 0 0)
(112.079 0 0)
(109.028 0 0)
(106.73 0 0)
(105.065 0 0)
(103.911 0 0)
(103.161 0 0)
(102.728 0 0)
(102.546 0 0)
(102.559 0 0)
(102.73 0 0)
(103.025 0 0)
(103.423 0 0)
(103.904 0 0)
(104.453 0 0)
(105.06 0 0)
(105.714 0 0)
(106.409 0 0)
(107.138 0 0)
(107.897 0 0)
(108.68 0 0)
(109.486 0 0)
(110.309 0 0)
(111.149 0 0)
(112.003 0 0)
(112.869 0 0)
(113.746 0 0)
(114.631 0 0)
(115.525 0 0)
(116.425 0 0)
(117.331 0 0)
(118.242 0 0)
(119.157 0 0)
(120.076 0 0)
(120.999 0 0)
(121.923 0 0)
(122.85 0 0)
(123.778 0 0)
(124.708 0 0)
(125.638 0 0)
(126.57 0 0)
(127.501 0 0)
(128.433 0 0)
(129.364 0 0)
(130.295 0 0)
(131.226 0 0)
(132.156 0 0)
(133.083 0 0)
(134.014 0 0)
(134.931 0 0)
(135.887 0 0)
(136.716 0 0)
(137.931 0 0)
(217.336 0 0)
(215.053 0 0)
(212.701 0 0)
(210.274 0 0)
(207.767 0 0)
(205.175 0 0)
(202.49 0 0)
(199.706 0 0)
(196.813 0 0)
(193.803 0 0)
(190.663 0 0)
(187.381 0 0)
(183.94 0 0)
(180.323 0 0)
(176.507 0 0)
(172.465 0 0)
(168.168 0 0)
(163.579 0 0)
(158.657 0 0)
(153.371 0 0)
(147.713 0 0)
(141.737 0 0)
(135.59 0 0)
(129.513 0 0)
(123.796 0 0)
(118.696 0 0)
(114.376 0 0)
(110.883 0 0)
(108.169 0 0)
(106.136 0 0)
(104.669 0 0)
(103.656 0 0)
(103.005 0 0)
(102.638 0 0)
(102.496 0 0)
(102.533 0 0)
(102.714 0 0)
(103.01 0 0)
(103.401 0 0)
(103.869 0 0)
(104.402 0 0)
(104.989 0 0)
(105.622 0 0)
(106.293 0 0)
(106.997 0 0)
(107.729 0 0)
(108.485 0 0)
(109.262 0 0)
(110.058 0 0)
(110.869 0 0)
(111.693 0 0)
(112.53 0 0)
(113.377 0 0)
(114.233 0 0)
(115.096 0 0)
(115.967 0 0)
(116.843 0 0)
(117.725 0 0)
(118.61 0 0)
(119.5 0 0)
(120.393 0 0)
(121.288 0 0)
(122.185 0 0)
(123.085 0 0)
(123.985 0 0)
(124.887 0 0)
(125.79 0 0)
(126.692 0 0)
(127.595 0 0)
(128.499 0 0)
(129.401 0 0)
(130.304 0 0)
(131.206 0 0)
(132.106 0 0)
(133.009 0 0)
(133.898 0 0)
(134.826 0 0)
(135.631 0 0)
(136.809 0 0)
(214.698 0 0)
(212.41 0 0)
(210.051 0 0)
(207.617 0 0)
(205.102 0 0)
(202.5 0 0)
(199.804 0 0)
(197.006 0 0)
(194.099 0 0)
(191.071 0 0)
(187.91 0 0)
(184.603 0 0)
(181.133 0 0)
(177.481 0 0)
(173.624 0 0)
(169.535 0 0)
(165.182 0 0)
(160.529 0 0)
(155.542 0 0)
(150.201 0 0)
(144.526 0 0)
(138.606 0 0)
(132.624 0 0)
(126.832 0 0)
(121.497 0 0)
(116.827 0 0)
(112.93 0 0)
(109.811 0 0)
(107.404 0 0)
(105.609 0 0)
(104.318 0 0)
(103.431 0 0)
(102.867 0 0)
(102.559 0 0)
(102.454 0 0)
(102.512 0 0)
(102.701 0 0)
(102.997 0 0)
(103.38 0 0)
(103.837 0 0)
(104.354 0 0)
(104.922 0 0)
(105.533 0 0)
(106.181 0 0)
(106.86 0 0)
(107.567 0 0)
(108.297 0 0)
(109.047 0 0)
(109.815 0 0)
(110.598 0 0)
(111.394 0 0)
(112.202 0 0)
(113.02 0 0)
(113.847 0 0)
(114.682 0 0)
(115.524 0 0)
(116.372 0 0)
(117.224 0 0)
(118.081 0 0)
(118.942 0 0)
(119.806 0 0)
(120.673 0 0)
(121.542 0 0)
(122.413 0 0)
(123.285 0 0)
(124.159 0 0)
(125.033 0 0)
(125.908 0 0)
(126.784 0 0)
(127.659 0 0)
(128.534 0 0)
(129.409 0 0)
(130.284 0 0)
(131.157 0 0)
(132.033 0 0)
(132.896 0 0)
(133.795 0 0)
(134.577 0 0)
(135.719 0 0)
(212.052 0 0)
(209.757 0 0)
(207.391 0 0)
(204.949 0 0)
(202.425 0 0)
(199.812 0 0)
(197.103 0 0)
(194.292 0 0)
(191.367 0 0)
(188.319 0 0)
(185.135 0 0)
(181.801 0 0)
(178.299 0 0)
(174.609 0 0)
(170.708 0 0)
(166.567 0 0)
(162.154 0 0)
(157.438 0 0)
(152.391 0 0)
(147.013 0 0)
(141.352 0 0)
(135.537 0 0)
(129.771 0 0)
(124.307 0 0)
(119.373 0 0)
(115.128 0 0)
(111.63 0 0)
(108.855 0 0)
(106.725 0 0)
(105.142 0 0)
(104.007 0 0)
(103.233 0 0)
(102.747 0 0)
(102.49 0 0)
(102.418 0 0)
(102.494 0 0)
(102.69 0 0)
(102.985 0 0)
(103.361 0 0)
(103.806 0 0)
(104.307 0 0)
(104.857 0 0)
(105.448 0 0)
(106.073 0 0)
(106.729 0 0)
(107.411 0 0)
(108.115 0 0)
(108.839 0 0)
(109.58 0 0)
(110.336 0 0)
(111.105 0 0)
(111.886 0 0)
(112.676 0 0)
(113.475 0 0)
(114.282 0 0)
(115.096 0 0)
(115.916 0 0)
(116.74 0 0)
(117.569 0 0)
(118.402 0 0)
(119.239 0 0)
(120.078 0 0)
(120.919 0 0)
(121.762 0 0)
(122.607 0 0)
(123.453 0 0)
(124.301 0 0)
(125.148 0 0)
(125.997 0 0)
(126.845 0 0)
(127.693 0 0)
(128.542 0 0)
(129.39 0 0)
(130.236 0 0)
(131.086 0 0)
(131.923 0 0)
(132.795 0 0)
(133.554 0 0)
(134.66 0 0)
(209.395 0 0)
(207.094 0 0)
(204.721 0 0)
(202.269 0 0)
(199.735 0 0)
(197.11 0 0)
(194.388 0 0)
(191.56 0 0)
(188.617 0 0)
(185.547 0 0)
(182.337 0 0)
(178.973 0 0)
(175.435 0 0)
(171.704 0 0)
(167.754 0 0)
(163.558 0 0)
(159.085 0 0)
(154.307 0 0)
(149.212 0 0)
(143.821 0 0)
(138.216 0 0)
(132.555 0 0)
(127.056 0 0)
(121.95 0 0)
(117.426 0 0)
(113.591 0 0)
(110.466 0 0)
(108.004 0 0)
(106.123 0 0)
(104.729 0 0)
(103.733 0 0)
(103.058 0 0)
(102.641 0 0)
(102.431 0 0)
(102.387 0 0)
(102.479 0 0)
(102.681 0 0)
(102.974 0 0)
(103.344 0 0)
(103.776 0 0)
(104.263 0 0)
(104.795 0 0)
(105.366 0 0)
(105.97 0 0)
(106.603 0 0)
(107.261 0 0)
(107.94 0 0)
(108.639 0 0)
(109.354 0 0)
(110.084 0 0)
(110.827 0 0)
(111.58 0 0)
(112.344 0 0)
(113.116 0 0)
(113.896 0 0)
(114.683 0 0)
(115.475 0 0)
(116.272 0 0)
(117.074 0 0)
(117.88 0 0)
(118.689 0 0)
(119.501 0 0)
(120.316 0 0)
(121.132 0 0)
(121.95 0 0)
(122.77 0 0)
(123.59 0 0)
(124.412 0 0)
(125.234 0 0)
(126.056 0 0)
(126.878 0 0)
(127.7 0 0)
(128.522 0 0)
(129.343 0 0)
(130.166 0 0)
(130.978 0 0)
(131.824 0 0)
(132.56 0 0)
(133.632 0 0)
(206.729 0 0)
(204.42 0 0)
(202.038 0 0)
(199.577 0 0)
(197.031 0 0)
(194.393 0 0)
(191.655 0 0)
(188.81 0 0)
(185.846 0 0)
(182.751 0 0)
(179.513 0 0)
(176.116 0 0)
(172.539 0 0)
(168.763 0 0)
(164.761 0 0)
(160.507 0 0)
(155.974 0 0)
(151.142 0 0)
(146.016 0 0)
(140.645 0 0)
(135.143 0 0)
(129.688 0 0)
(124.497 0 0)
(119.77 0 0)
(115.654 0 0)
(112.209 0 0)
(109.427 0 0)
(107.248 0 0)
(105.589 0 0)
(104.363 0 0)
(103.491 0 0)
(102.905 0 0)
(102.55 0 0)
(102.38 0 0)
(102.362 0 0)
(102.467 0 0)
(102.674 0 0)
(102.965 0 0)
(103.327 0 0)
(103.748 0 0)
(104.22 0 0)
(104.735 0 0)
(105.286 0 0)
(105.87 0 0)
(106.481 0 0)
(107.116 0 0)
(107.772 0 0)
(108.446 0 0)
(109.136 0 0)
(109.841 0 0)
(110.558 0 0)
(111.286 0 0)
(112.023 0 0)
(112.769 0 0)
(113.523 0 0)
(114.283 0 0)
(115.049 0 0)
(115.82 0 0)
(116.596 0 0)
(117.375 0 0)
(118.158 0 0)
(118.944 0 0)
(119.732 0 0)
(120.522 0 0)
(121.314 0 0)
(122.108 0 0)
(122.903 0 0)
(123.698 0 0)
(124.494 0 0)
(125.291 0 0)
(126.087 0 0)
(126.884 0 0)
(127.681 0 0)
(128.476 0 0)
(129.275 0 0)
(130.062 0 0)
(130.881 0 0)
(131.596 0 0)
(132.634 0 0)
(204.051 0 0)
(201.734 0 0)
(199.342 0 0)
(196.87 0 0)
(194.311 0 0)
(191.658 0 0)
(188.904 0 0)
(186.038 0 0)
(183.051 0 0)
(179.93 0 0)
(176.661 0 0)
(173.226 0 0)
(169.608 0 0)
(165.783 0 0)
(161.727 0 0)
(157.415 0 0)
(152.825 0 0)
(147.952 0 0)
(142.821 0 0)
(137.511 0 0)
(132.161 0 0)
(126.96 0 0)
(122.108 0 0)
(117.772 0 0)
(114.051 0 0)
(110.972 0 0)
(108.504 0 0)
(106.579 0 0)
(105.118 0 0)
(104.041 0 0)
(103.279 0 0)
(102.771 0 0)
(102.47 0 0)
(102.337 0 0)
(102.341 0 0)
(102.458 0 0)
(102.669 0 0)
(102.957 0 0)
(103.312 0 0)
(103.722 0 0)
(104.179 0 0)
(104.677 0 0)
(105.21 0 0)
(105.774 0 0)
(106.364 0 0)
(106.976 0 0)
(107.609 0 0)
(108.26 0 0)
(108.926 0 0)
(109.606 0 0)
(110.298 0 0)
(111.001 0 0)
(111.713 0 0)
(112.434 0 0)
(113.162 0 0)
(113.897 0 0)
(114.637 0 0)
(115.383 0 0)
(116.133 0 0)
(116.887 0 0)
(117.644 0 0)
(118.404 0 0)
(119.167 0 0)
(119.932 0 0)
(120.699 0 0)
(121.467 0 0)
(122.236 0 0)
(123.007 0 0)
(123.778 0 0)
(124.549 0 0)
(125.321 0 0)
(126.093 0 0)
(126.865 0 0)
(127.636 0 0)
(128.41 0 0)
(129.172 0 0)
(129.967 0 0)
(130.66 0 0)
(131.665 0 0)
(201.361 0 0)
(199.034 0 0)
(196.632 0 0)
(194.148 0 0)
(191.575 0 0)
(188.905 0 0)
(186.132 0 0)
(183.244 0 0)
(180.231 0 0)
(177.081 0 0)
(173.777 0 0)
(170.303 0 0)
(166.638 0 0)
(162.762 0 0)
(158.651 0 0)
(154.282 0 0)
(149.645 0 0)
(144.75 0 0)
(139.648 0 0)
(134.445 0 0)
(129.296 0 0)
(124.389 0 0)
(119.899 0 0)
(115.952 0 0)
(112.609 0 0)
(109.869 0 0)
(107.684 0 0)
(105.987 0 0)
(104.701 0 0)
(103.757 0 0)
(103.092 0 0)
(102.654 0 0)
(102.402 0 0)
(102.301 0 0)
(102.325 0 0)
(102.452 0 0)
(102.665 0 0)
(102.951 0 0)
(103.297 0 0)
(103.696 0 0)
(104.14 0 0)
(104.622 0 0)
(105.137 0 0)
(105.681 0 0)
(106.251 0 0)
(106.842 0 0)
(107.453 0 0)
(108.081 0 0)
(108.724 0 0)
(109.38 0 0)
(110.048 0 0)
(110.727 0 0)
(111.414 0 0)
(112.11 0 0)
(112.814 0 0)
(113.524 0 0)
(114.239 0 0)
(114.96 0 0)
(115.685 0 0)
(116.414 0 0)
(117.147 0 0)
(117.882 0 0)
(118.62 0 0)
(119.36 0 0)
(120.102 0 0)
(120.846 0 0)
(121.591 0 0)
(122.337 0 0)
(123.084 0 0)
(123.831 0 0)
(124.578 0 0)
(125.326 0 0)
(126.074 0 0)
(126.821 0 0)
(127.571 0 0)
(128.31 0 0)
(129.079 0 0)
(129.752 0 0)
(130.725 0 0)
(198.657 0 0)
(196.32 0 0)
(193.906 0 0)
(191.408 0 0)
(188.819 0 0)
(186.132 0 0)
(183.337 0 0)
(180.425 0 0)
(177.384 0 0)
(174.2 0 0)
(170.859 0 0)
(167.341 0 0)
(163.629 0 0)
(159.699 0 0)
(155.533 0 0)
(151.114 0 0)
(146.445 0 0)
(141.556 0 0)
(136.524 0 0)
(131.475 0 0)
(126.574 0 0)
(121.993 0 0)
(117.874 0 0)
(114.307 0 0)
(111.319 0 0)
(108.888 0 0)
(106.958 0 0)
(105.464 0 0)
(104.334 0 0)
(103.507 0 0)
(102.928 0 0)
(102.552 0 0)
(102.343 0 0)
(102.27 0 0)
(102.311 0 0)
(102.447 0 0)
(102.662 0 0)
(102.945 0 0)
(103.284 0 0)
(103.672 0 0)
(104.102 0 0)
(104.569 0 0)
(105.067 0 0)
(105.592 0 0)
(106.142 0 0)
(106.712 0 0)
(107.302 0 0)
(107.908 0 0)
(108.528 0 0)
(109.162 0 0)
(109.806 0 0)
(110.462 0 0)
(111.126 0 0)
(111.798 0 0)
(112.478 0 0)
(113.163 0 0)
(113.855 0 0)
(114.551 0 0)
(115.252 0 0)
(115.957 0 0)
(116.666 0 0)
(117.377 0 0)
(118.091 0 0)
(118.807 0 0)
(119.525 0 0)
(120.245 0 0)
(120.966 0 0)
(121.688 0 0)
(122.411 0 0)
(123.135 0 0)
(123.859 0 0)
(124.583 0 0)
(125.307 0 0)
(126.031 0 0)
(126.757 0 0)
(127.474 0 0)
(128.219 0 0)
(128.871 0 0)
(129.813 0 0)
(195.938 0 0)
(193.59 0 0)
(191.163 0 0)
(188.649 0 0)
(186.042 0 0)
(183.335 0 0)
(180.517 0 0)
(177.577 0 0)
(174.505 0 0)
(171.286 0 0)
(167.903 0 0)
(164.34 0 0)
(160.577 0 0)
(156.594 0 0)
(152.377 0 0)
(147.919 0 0)
(143.24 0 0)
(138.392 0 0)
(133.475 0 0)
(128.629 0 0)
(124.014 0 0)
(119.779 0 0)
(116.033 0 0)
(112.829 0 0)
(110.17 0 0)
(108.018 0 0)
(106.317 0 0)
(105.002 0 0)
(104.011 0 0)
(103.287 0 0)
(102.785 0 0)
(102.464 0 0)
(102.292 0 0)
(102.245 0 0)
(102.302 0 0)
(102.445 0 0)
(102.661 0 0)
(102.94 0 0)
(103.272 0 0)
(103.649 0 0)
(104.066 0 0)
(104.517 0 0)
(104.999 0 0)
(105.506 0 0)
(106.037 0 0)
(106.588 0 0)
(107.156 0 0)
(107.741 0 0)
(108.34 0 0)
(108.951 0 0)
(109.573 0 0)
(110.206 0 0)
(110.847 0 0)
(111.496 0 0)
(112.153 0 0)
(112.815 0 0)
(113.484 0 0)
(114.157 0 0)
(114.834 0 0)
(115.516 0 0)
(116.201 0 0)
(116.889 0 0)
(117.579 0 0)
(118.272 0 0)
(118.967 0 0)
(119.663 0 0)
(120.361 0 0)
(121.06 0 0)
(121.76 0 0)
(122.46 0 0)
(123.161 0 0)
(123.863 0 0)
(124.564 0 0)
(125.265 0 0)
(125.968 0 0)
(126.662 0 0)
(127.384 0 0)
(128.017 0 0)
(128.928 0 0)
(193.203 0 0)
(190.842 0 0)
(188.4 0 0)
(185.869 0 0)
(183.243 0 0)
(180.512 0 0)
(177.668 0 0)
(174.699 0 0)
(171.593 0 0)
(168.335 0 0)
(164.909 0 0)
(161.298 0 0)
(157.483 0 0)
(153.449 0 0)
(149.189 0 0)
(144.711 0 0)
(140.051 0 0)
(135.286 0 0)
(130.531 0 0)
(125.931 0 0)
(121.631 0 0)
(117.752 0 0)
(114.369 0 0)
(111.507 0 0)
(109.148 0 0)
(107.249 0 0)
(105.751 0 0)
(104.595 0 0)
(103.726 0 0)
(103.095 0 0)
(102.66 0 0)
(102.387 0 0)
(102.25 0 0)
(102.225 0 0)
(102.295 0 0)
(102.444 0 0)
(102.661 0 0)
(102.936 0 0)
(103.26 0 0)
(103.627 0 0)
(104.031 0 0)
(104.468 0 0)
(104.933 0 0)
(105.424 0 0)
(105.936 0 0)
(106.467 0 0)
(107.016 0 0)
(107.58 0 0)
(108.158 0 0)
(108.748 0 0)
(109.349 0 0)
(109.959 0 0)
(110.578 0 0)
(111.205 0 0)
(111.839 0 0)
(112.479 0 0)
(113.125 0 0)
(113.775 0 0)
(114.43 0 0)
(115.089 0 0)
(115.751 0 0)
(116.416 0 0)
(117.084 0 0)
(117.754 0 0)
(118.426 0 0)
(119.1 0 0)
(119.775 0 0)
(120.452 0 0)
(121.129 0 0)
(121.807 0 0)
(122.486 0 0)
(123.165 0 0)
(123.844 0 0)
(124.523 0 0)
(125.204 0 0)
(125.876 0 0)
(126.575 0 0)
(127.188 0 0)
(128.07 0 0)
(190.45 0 0)
(188.074 0 0)
(185.615 0 0)
(183.066 0 0)
(180.417 0 0)
(177.662 0 0)
(174.789 0 0)
(171.788 0 0)
(168.645 0 0)
(165.345 0 0)
(161.873 0 0)
(158.212 0 0)
(154.348 0 0)
(150.27 0 0)
(145.982 0 0)
(141.508 0 0)
(136.905 0 0)
(132.267 0 0)
(127.72 0 0)
(123.401 0 0)
(119.435 0 0)
(115.912 0 0)
(112.876 0 0)
(110.33 0 0)
(108.244 0 0)
(106.569 0 0)
(105.252 0 0)
(104.237 0 0)
(103.476 0 0)
(102.926 0 0)
(102.551 0 0)
(102.322 0 0)
(102.214 0 0)
(102.209 0 0)
(102.291 0 0)
(102.445 0 0)
(102.662 0 0)
(102.932 0 0)
(103.249 0 0)
(103.606 0 0)
(103.998 0 0)
(104.421 0 0)
(104.871 0 0)
(105.344 0 0)
(105.838 0 0)
(106.351 0 0)
(106.881 0 0)
(107.425 0 0)
(107.983 0 0)
(108.552 0 0)
(109.132 0 0)
(109.721 0 0)
(110.319 0 0)
(110.924 0 0)
(111.536 0 0)
(112.155 0 0)
(112.778 0 0)
(113.407 0 0)
(114.04 0 0)
(114.676 0 0)
(115.317 0 0)
(115.96 0 0)
(116.605 0 0)
(117.254 0 0)
(117.904 0 0)
(118.555 0 0)
(119.209 0 0)
(119.863 0 0)
(120.519 0 0)
(121.175 0 0)
(121.832 0 0)
(122.489 0 0)
(123.147 0 0)
(123.803 0 0)
(124.463 0 0)
(125.114 0 0)
(125.791 0 0)
(126.385 0 0)
(127.237 0 0)
(187.676 0 0)
(185.284 0 0)
(182.807 0 0)
(180.236 0 0)
(177.564 0 0)
(174.781 0 0)
(171.877 0 0)
(168.84 0 0)
(165.657 0 0)
(162.313 0 0)
(158.794 0 0)
(155.085 0 0)
(151.176 0 0)
(147.066 0 0)
(142.771 0 0)
(138.333 0 0)
(133.829 0 0)
(129.364 0 0)
(125.065 0 0)
(121.053 0 0)
(117.429 0 0)
(114.252 0 0)
(111.542 0 0)
(109.285 0 0)
(107.444 0 0)
(105.97 0 0)
(104.812 0 0)
(103.922 0 0)
(103.256 0 0)
(102.778 0 0)
(102.456 0 0)
(102.266 0 0)
(102.185 0 0)
(102.197 0 0)
(102.289 0 0)
(102.447 0 0)
(102.663 0 0)
(102.93 0 0)
(103.239 0 0)
(103.586 0 0)
(103.966 0 0)
(104.375 0 0)
(104.81 0 0)
(105.267 0 0)
(105.744 0 0)
(106.24 0 0)
(106.751 0 0)
(107.276 0 0)
(107.814 0 0)
(108.363 0 0)
(108.923 0 0)
(109.492 0 0)
(110.069 0 0)
(110.653 0 0)
(111.244 0 0)
(111.841 0 0)
(112.444 0 0)
(113.051 0 0)
(113.662 0 0)
(114.278 0 0)
(114.896 0 0)
(115.518 0 0)
(116.142 0 0)
(116.769 0 0)
(117.398 0 0)
(118.028 0 0)
(118.66 0 0)
(119.293 0 0)
(119.928 0 0)
(120.563 0 0)
(121.198 0 0)
(121.834 0 0)
(122.471 0 0)
(123.107 0 0)
(123.745 0 0)
(124.375 0 0)
(125.03 0 0)
(125.606 0 0)
(126.43 0 0)
(184.88 0 0)
(182.47 0 0)
(179.972 0 0)
(177.378 0 0)
(174.68 0 0)
(171.867 0 0)
(168.928 0 0)
(165.853 0 0)
(162.628 0 0)
(159.239 0 0)
(155.673 0 0)
(151.919 0 0)
(147.975 0 0)
(143.851 0 0)
(139.578 0 0)
(135.216 0 0)
(130.854 0 0)
(126.605 0 0)
(122.584 0 0)
(118.896 0 0)
(115.61 0 0)
(112.763 0 0)
(110.355 0 0)
(108.36 0 0)
(106.738 0 0)
(105.442 0 0)
(104.425 0 0)
(103.645 0 0)
(103.064 0 0)
(102.649 0 0)
(102.375 0 0)
(102.218 0 0)
(102.161 0 0)
(102.189 0 0)
(102.289 0 0)
(102.451 0 0)
(102.666 0 0)
(102.928 0 0)
(103.23 0 0)
(103.567 0 0)
(103.936 0 0)
(104.332 0 0)
(104.752 0 0)
(105.193 0 0)
(105.654 0 0)
(106.132 0 0)
(106.625 0 0)
(107.132 0 0)
(107.651 0 0)
(108.181 0 0)
(108.721 0 0)
(109.27 0 0)
(109.827 0 0)
(110.391 0 0)
(110.962 0 0)
(111.539 0 0)
(112.121 0 0)
(112.707 0 0)
(113.298 0 0)
(113.893 0 0)
(114.49 0 0)
(115.091 0 0)
(115.695 0 0)
(116.301 0 0)
(116.909 0 0)
(117.518 0 0)
(118.13 0 0)
(118.742 0 0)
(119.355 0 0)
(119.97 0 0)
(120.585 0 0)
(121.2 0 0)
(121.816 0 0)
(122.431 0 0)
(123.049 0 0)
(123.659 0 0)
(124.293 0 0)
(124.851 0 0)
(125.648 0 0)
(182.06 0 0)
(179.63 0 0)
(177.109 0 0)
(174.489 0 0)
(171.761 0 0)
(168.916 0 0)
(165.941 0 0)
(162.825 0 0)
(159.557 0 0)
(156.122 0 0)
(152.513 0 0)
(148.723 0 0)
(144.759 0 0)
(140.645 0 0)
(136.429 0 0)
(132.184 0 0)
(128.009 0 0)
(124.011 0 0)
(120.291 0 0)
(116.93 0 0)
(113.974 0 0)
(111.436 0 0)
(109.303 0 0)
(107.543 0 0)
(106.116 0 0)
(104.977 0 0)
(104.085 0 0)
(103.402 0 0)
(102.895 0 0)
(102.537 0 0)
(102.305 0 0)
(102.178 0 0)
(102.142 0 0)
(102.183 0 0)
(102.291 0 0)
(102.455 0 0)
(102.669 0 0)
(102.926 0 0)
(103.221 0 0)
(103.549 0 0)
(103.906 0 0)
(104.289 0 0)
(104.696 0 0)
(105.122 0 0)
(105.567 0 0)
(106.028 0 0)
(106.504 0 0)
(106.993 0 0)
(107.494 0 0)
(108.006 0 0)
(108.527 0 0)
(109.057 0 0)
(109.594 0 0)
(110.139 0 0)
(110.69 0 0)
(111.247 0 0)
(111.809 0 0)
(112.375 0 0)
(112.946 0 0)
(113.52 0 0)
(114.098 0 0)
(114.679 0 0)
(115.262 0 0)
(115.848 0 0)
(116.436 0 0)
(117.025 0 0)
(117.616 0 0)
(118.208 0 0)
(118.802 0 0)
(119.396 0 0)
(119.991 0 0)
(120.586 0 0)
(121.182 0 0)
(121.778 0 0)
(122.375 0 0)
(122.966 0 0)
(123.579 0 0)
(124.12 0 0)
(124.889 0 0)
(179.212 0 0)
(176.76 0 0)
(174.214 0 0)
(171.566 0 0)
(168.807 0 0)
(165.925 0 0)
(162.912 0 0)
(159.755 0 0)
(156.442 0 0)
(152.965 0 0)
(149.319 0 0)
(145.506 0 0)
(141.546 0 0)
(137.474 0 0)
(133.354 0 0)
(129.27 0 0)
(125.319 0 0)
(121.599 0 0)
(118.192 0 0)
(115.154 0 0)
(112.51 0 0)
(110.257 0 0)
(108.373 0 0)
(106.823 0 0)
(105.568 0 0)
(104.568 0 0)
(103.786 0 0)
(103.189 0 0)
(102.748 0 0)
(102.44 0 0)
(102.245 0 0)
(102.145 0 0)
(102.128 0 0)
(102.181 0 0)
(102.294 0 0)
(102.46 0 0)
(102.673 0 0)
(102.925 0 0)
(103.213 0 0)
(103.532 0 0)
(103.878 0 0)
(104.249 0 0)
(104.641 0 0)
(105.054 0 0)
(105.483 0 0)
(105.928 0 0)
(106.388 0 0)
(106.86 0 0)
(107.343 0 0)
(107.836 0 0)
(108.339 0 0)
(108.851 0 0)
(109.37 0 0)
(109.895 0 0)
(110.427 0 0)
(110.965 0 0)
(111.507 0 0)
(112.055 0 0)
(112.606 0 0)
(113.161 0 0)
(113.719 0 0)
(114.28 0 0)
(114.844 0 0)
(115.41 0 0)
(115.978 0 0)
(116.548 0 0)
(117.12 0 0)
(117.692 0 0)
(118.266 0 0)
(118.841 0 0)
(119.416 0 0)
(119.992 0 0)
(120.569 0 0)
(121.145 0 0)
(121.723 0 0)
(122.294 0 0)
(122.887 0 0)
(123.411 0 0)
(124.154 0 0)
(176.335 0 0)
(173.858 0 0)
(171.285 0 0)
(168.606 0 0)
(165.812 0 0)
(162.894 0 0)
(159.84 0 0)
(156.641 0 0)
(153.287 0 0)
(149.774 0 0)
(146.103 0 0)
(142.287 0 0)
(138.358 0 0)
(134.366 0 0)
(130.384 0 0)
(126.5 0 0)
(122.804 0 0)
(119.379 0 0)
(116.286 0 0)
(113.559 0 0)
(111.206 0 0)
(109.213 0 0)
(107.552 0 0)
(106.189 0 0)
(105.087 0 0)
(104.209 0 0)
(103.524 0 0)
(103.002 0 0)
(102.62 0 0)
(102.357 0 0)
(102.194 0 0)
(102.118 0 0)
(102.117 0 0)
(102.18 0 0)
(102.299 0 0)
(102.467 0 0)
(102.677 0 0)
(102.925 0 0)
(103.205 0 0)
(103.515 0 0)
(103.851 0 0)
(104.21 0 0)
(104.589 0 0)
(104.988 0 0)
(105.402 0 0)
(105.832 0 0)
(106.275 0 0)
(106.731 0 0)
(107.197 0 0)
(107.673 0 0)
(108.159 0 0)
(108.652 0 0)
(109.153 0 0)
(109.66 0 0)
(110.174 0 0)
(110.693 0 0)
(111.217 0 0)
(111.745 0 0)
(112.278 0 0)
(112.814 0 0)
(113.353 0 0)
(113.895 0 0)
(114.44 0 0)
(114.987 0 0)
(115.536 0 0)
(116.087 0 0)
(116.639 0 0)
(117.193 0 0)
(117.748 0 0)
(118.303 0 0)
(118.86 0 0)
(119.417 0 0)
(119.974 0 0)
(120.532 0 0)
(121.091 0 0)
(121.644 0 0)
(122.217 0 0)
(122.724 0 0)
(123.442 0 0)
(173.425 0 0)
(170.921 0 0)
(168.318 0 0)
(165.606 0 0)
(162.776 0 0)
(159.819 0 0)
(156.725 0 0)
(153.486 0 0)
(150.097 0 0)
(146.558 0 0)
(142.88 0 0)
(139.088 0 0)
(135.225 0 0)
(131.353 0 0)
(127.549 0 0)
(123.897 0 0)
(120.479 0 0)
(117.356 0 0)
(114.569 0 0)
(112.135 0 0)
(110.049 0 0)
(108.29 0 0)
(106.829 0 0)
(105.631 0 0)
(104.663 0 0)
(103.893 0 0)
(103.294 0 0)
(102.839 0 0)
(102.509 0 0)
(102.285 0 0)
(102.152 0 0)
(102.097 0 0)
(102.11 0 0)
(102.182 0 0)
(102.305 0 0)
(102.474 0 0)
(102.682 0 0)
(102.924 0 0)
(103.198 0 0)