/*--------------------------------*- C++ -*----------------------------------*\
| =========                 |                                                 |
| \\      /  F ield         | OpenFOAM: The Open Source CFD Toolbox           |
|  \\    /   O peration     | Version:  2312                                  |
|   \\  /    A nd           | Website:  www.openfoam.com                      |
|    \\/     M anipulation  |                                                 |
\*---------------------------------------------------------------------------*/
FoamFile
{
    version     2.0;
    format      ascii;
    arch        "LSB;label=32;scalar=64";
    class       volVectorField;
    location    "0.965";
    object      U;
}
// * * * * * * * * * * * * * * * * * * * * * * * * * * * * * * * * * * * * * //

dimensions      [0 1 -1 0 0 0 0];

internalField   nonuniform List<vector> 
31205
(
(275.201 0 0)
(273.764 0 0)
(272.276 0 0)
(270.737 0 0)
(269.143 0 0)
(267.493 0 0)
(265.785 0 0)
(264.017 0 0)
(262.186 0 0)
(260.289 0 0)
(258.323 0 0)
(256.284 0 0)
(254.169 0 0)
(251.974 0 0)
(249.693 0 0)
(247.321 0 0)
(244.852 0 0)
(242.28 0 0)
(239.595 0 0)
(236.789 0 0)
(233.852 0 0)
(230.769 0 0)
(227.527 0 0)
(224.107 0 0)
(220.488 0 0)
(216.641 0 0)
(212.531 0 0)
(208.114 0 0)
(203.328 0 0)
(198.092 0 0)
(192.288 0 0)
(185.696 0 0)
(177.919 0 0)
(168.432 0 0)
(157.03 0 0)
(144.439 0 0)
(132.291 0 0)
(122.172 0 0)
(114.754 0 0)
(109.815 0 0)
(106.756 0 0)
(104.986 0 0)
(104.071 0 0)
(103.72 0 0)
(103.747 0 0)
(104.037 0 0)
(104.513 0 0)
(105.126 0 0)
(105.843 0 0)
(106.638 0 0)
(107.496 0 0)
(108.404 0 0)
(109.351 0 0)
(110.332 0 0)
(111.339 0 0)
(112.368 0 0)
(113.417 0 0)
(114.48 0 0)
(115.557 0 0)
(116.645 0 0)
(117.742 0 0)
(118.846 0 0)
(119.957 0 0)
(121.073 0 0)
(122.193 0 0)
(123.317 0 0)
(124.444 0 0)
(125.573 0 0)
(126.703 0 0)
(127.834 0 0)
(128.966 0 0)
(130.099 0 0)
(131.231 0 0)
(132.362 0 0)
(133.497 0 0)
(134.614 0 0)
(135.785 0 0)
(136.787 0 0)
(138.3 0 0)
(273.901 0 0)
(272.459 0 0)
(270.968 0 0)
(269.425 0 0)
(267.83 0 0)
(266.18 0 0)
(264.473 0 0)
(262.707 0 0)
(260.878 0 0)
(258.986 0 0)
(257.025 0 0)
(254.993 0 0)
(252.886 0 0)
(250.7 0 0)
(248.43 0 0)
(246.071 0 0)
(243.616 0 0)
(241.058 0 0)
(238.391 0 0)
(235.603 0 0)
(232.686 0 0)
(229.626 0 0)
(226.408 0 0)
(223.015 0 0)
(219.425 0 0)
(215.609 0 0)
(211.534 0 0)
(207.155 0 0)
(202.411 0 0)
(197.222 0 0)
(191.468 0 0)
(184.932 0 0)
(177.223 0 0)
(167.835 0 0)
(156.581 0 0)
(144.175 0 0)
(132.201 0 0)
(122.198 0 0)
(114.83 0 0)
(109.892 0 0)
(106.806 0 0)
(105 0 0)
(104.043 0 0)
(103.65 0 0)
(103.636 0 0)
(103.886 0 0)
(104.323 0 0)
(104.897 0 0)
(105.576 0 0)
(106.334 0 0)
(107.155 0 0)
(108.027 0 0)
(108.939 0 0)
(109.884 0 0)
(110.857 0 0)
(111.852 0 0)
(112.867 0 0)
(113.897 0 0)
(114.94 0 0)
(115.995 0 0)
(117.059 0 0)
(118.131 0 0)
(119.21 0 0)
(120.294 0 0)
(121.383 0 0)
(122.475 0 0)
(123.571 0 0)
(124.668 0 0)
(125.768 0 0)
(126.869 0 0)
(127.97 0 0)
(129.072 0 0)
(130.174 0 0)
(131.275 0 0)
(132.38 0 0)
(133.468 0 0)
(134.607 0 0)
(135.585 0 0)
(137.051 0 0)
(272.529 0 0)
(271.082 0 0)
(269.587 0 0)
(268.041 0 0)
(266.444 0 0)
(264.793 0 0)
(263.086 0 0)
(261.321 0 0)
(259.495 0 0)
(257.605 0 0)
(255.649 0 0)
(253.623 0 0)
(251.523 0 0)
(249.345 0 0)
(247.084 0 0)
(244.735 0 0)
(242.291 0 0)
(239.747 0 0)
(237.093 0 0)
(234.322 0 0)
(231.421 0 0)
(228.38 0 0)
(225.182 0 0)
(221.811 0 0)
(218.244 0 0)
(214.454 0 0)
(210.406 0 0)
(206.056 0 0)
(201.343 0 0)
(196.187 0 0)
(190.466 0 0)
(183.962 0 0)
(176.286 0 0)
(166.954 0 0)
(155.814 0 0)
(143.594 0 0)
(131.837 0 0)
(122.02 0 0)
(114.77 0 0)
(109.887 0 0)
(106.813 0 0)
(104.993 0 0)
(104.011 0 0)
(103.586 0 0)
(103.538 0 0)
(103.752 0 0)
(104.153 0 0)
(104.692 0 0)
(105.335 0 0)
(106.058 0 0)
(106.844 0 0)
(107.681 0 0)
(108.559 0 0)
(109.47 0 0)
(110.409 0 0)
(111.371 0 0)
(112.353 0 0)
(113.35 0 0)
(114.362 0 0)
(115.384 0 0)
(116.417 0 0)
(117.457 0 0)
(118.505 0 0)
(119.558 0 0)
(120.616 0 0)
(121.677 0 0)
(122.742 0 0)
(123.81 0 0)
(124.879 0 0)
(125.95 0 0)
(127.022 0 0)
(128.094 0 0)
(129.167 0 0)
(130.238 0 0)
(131.315 0 0)
(132.374 0 0)
(133.482 0 0)
(134.437 0 0)
(135.858 0 0)
(271.123 0 0)
(269.671 0 0)
(268.171 0 0)
(266.623 0 0)
(265.023 0 0)
(263.371 0 0)
(261.664 0 0)
(259.9 0 0)
(258.076 0 0)
(256.189 0 0)
(254.237 0 0)
(252.216 0 0)
(250.121 0 0)
(247.95 0 0)
(245.697 0 0)
(243.357 0 0)
(240.923 0 0)
(238.39 0 0)
(235.749 0 0)
(232.99 0 0)
(230.105 0 0)
(227.079 0 0)
(223.898 0 0)
(220.545 0 0)
(216.997 0 0)
(213.227 0 0)
(209.2 0 0)
(204.872 0 0)
(200.181 0 0)
(195.047 0 0)
(189.346 0 0)
(182.852 0 0)
(175.179 0 0)
(165.866 0 0)
(154.811 0 0)
(142.771 0 0)
(131.259 0 0)
(121.676 0 0)
(114.595 0 0)
(109.809 0 0)
(106.778 0 0)
(104.967 0 0)
(103.974 0 0)
(103.527 0 0)
(103.452 0 0)
(103.635 0 0)
(104.004 0 0)
(104.51 0 0)
(105.12 0 0)
(105.81 0 0)
(106.563 0 0)
(107.367 0 0)
(108.212 0 0)
(109.091 0 0)
(109.997 0 0)
(110.927 0 0)
(111.877 0 0)
(112.843 0 0)
(113.823 0 0)
(114.814 0 0)
(115.816 0 0)
(116.826 0 0)
(117.843 0 0)
(118.866 0 0)
(119.894 0 0)
(120.926 0 0)
(121.961 0 0)
(122.999 0 0)
(124.039 0 0)
(125.081 0 0)
(126.124 0 0)
(127.167 0 0)
(128.211 0 0)
(129.254 0 0)
(130.302 0 0)
(131.333 0 0)
(132.411 0 0)
(133.343 0 0)
(134.721 0 0)
(269.702 0 0)
(268.245 0 0)
(266.743 0 0)
(265.192 0 0)
(263.591 0 0)
(261.938 0 0)
(260.231 0 0)
(258.468 0 0)
(256.646 0 0)
(254.762 0 0)
(252.814 0 0)
(250.797 0 0)
(248.708 0 0)
(246.544 0 0)
(244.298 0 0)
(241.966 0 0)
(239.542 0 0)
(237.019 0 0)
(234.389 0 0)
(231.643 0 0)
(228.77 0 0)
(225.759 0 0)
(222.593 0 0)
(219.256 0 0)
(215.724 0 0)
(211.972 0 0)
(207.963 0 0)
(203.652 0 0)
(198.979 0 0)
(193.861 0 0)
(188.169 0 0)
(181.674 0 0)
(173.988 0 0)
(164.678 0 0)
(153.694 0 0)
(141.834 0 0)
(130.578 0 0)
(121.249 0 0)
(114.361 0 0)
(109.693 0 0)
(106.72 0 0)
(104.929 0 0)
(103.932 0 0)
(103.47 0 0)
(103.372 0 0)
(103.528 0 0)
(103.868 0 0)
(104.343 0 0)
(104.922 0 0)
(105.58 0 0)
(106.302 0 0)
(107.074 0 0)
(107.888 0 0)
(108.735 0 0)
(109.611 0 0)
(110.51 0 0)
(111.428 0 0)
(112.364 0 0)
(113.313 0 0)
(114.275 0 0)
(115.246 0 0)
(116.226 0 0)
(117.214 0 0)
(118.207 0 0)
(119.206 0 0)
(120.209 0 0)
(121.215 0 0)
(122.224 0 0)
(123.236 0 0)
(124.249 0 0)
(125.263 0 0)
(126.279 0 0)
(127.295 0 0)
(128.31 0 0)
(129.329 0 0)
(130.334 0 0)
(131.383 0 0)
(132.291 0 0)
(133.629 0 0)
(268.276 0 0)
(266.816 0 0)
(265.311 0 0)
(263.758 0 0)
(262.157 0 0)
(260.504 0 0)
(258.798 0 0)
(257.036 0 0)
(255.216 0 0)
(253.336 0 0)
(251.391 0 0)
(249.38 0 0)
(247.297 0 0)
(245.139 0 0)
(242.9 0 0)
(240.577 0 0)
(238.162 0 0)
(235.649 0 0)
(233.03 0 0)
(230.296 0 0)
(227.436 0 0)
(224.438 0 0)
(221.286 0 0)
(217.964 0 0)
(214.448 0 0)
(210.711 0 0)
(206.718 0 0)
(202.423 0 0)
(197.765 0 0)
(192.659 0 0)
(186.972 0 0)
(180.469 0 0)
(172.761 0 0)
(163.447 0 0)
(152.533 0 0)
(140.854 0 0)
(129.86 0 0)
(120.792 0 0)
(114.103 0 0)
(109.56 0 0)
(106.651 0 0)
(104.885 0 0)
(103.89 0 0)
(103.415 0 0)
(103.296 0 0)
(103.427 0 0)
(103.74 0 0)
(104.187 0 0)
(104.735 0 0)
(105.364 0 0)
(106.055 0 0)
(106.797 0 0)
(107.58 0 0)
(108.397 0 0)
(109.242 0 0)
(110.111 0 0)
(111 0 0)
(111.906 0 0)
(112.826 0 0)
(113.758 0 0)
(114.7 0 0)
(115.651 0 0)
(116.61 0 0)
(117.574 0 0)
(118.544 0 0)
(119.519 0 0)
(120.497 0 0)
(121.478 0 0)
(122.462 0 0)
(123.447 0 0)
(124.434 0 0)
(125.422 0 0)
(126.41 0 0)
(127.398 0 0)
(128.39 0 0)
(129.368 0 0)
(130.389 0 0)
(131.274 0 0)
(132.574 0 0)
(266.851 0 0)
(265.388 0 0)
(263.881 0 0)
(262.328 0 0)
(260.726 0 0)
(259.074 0 0)
(257.369 0 0)
(255.61 0 0)
(253.793 0 0)
(251.916 0 0)
(249.976 0 0)
(247.97 0 0)
(245.893 0 0)
(243.742 0 0)
(241.511 0 0)
(239.196 0 0)
(236.791 0 0)
(234.288 0 0)
(231.679 0 0)
(228.957 0 0)
(226.109 0 0)
(223.124 0 0)
(219.987 0 0)
(216.678 0 0)
(213.178 0 0)
(209.456 0 0)
(205.478 0 0)
(201.197 0 0)
(196.552 0 0)
(191.456 0 0)
(185.771 0 0)
(179.255 0 0)
(171.523 0 0)
(162.203 0 0)
(151.361 0 0)
(139.867 0 0)
(129.135 0 0)
(120.328 0 0)
(113.838 0 0)
(109.421 0 0)
(106.578 0 0)
(104.839 0 0)
(103.847 0 0)
(103.362 0 0)
(103.224 0 0)
(103.333 0 0)
(103.619 0 0)
(104.038 0 0)
(104.559 0 0)
(105.158 0 0)
(105.82 0 0)
(106.532 0 0)
(107.286 0 0)
(108.074 0 0)
(108.89 0 0)
(109.729 0 0)
(110.589 0 0)
(111.466 0 0)
(112.357 0 0)
(113.26 0 0)
(114.174 0 0)
(115.097 0 0)
(116.027 0 0)
(116.964 0 0)
(117.906 0 0)
(118.853 0 0)
(119.804 0 0)
(120.757 0 0)
(121.714 0 0)
(122.672 0 0)
(123.632 0 0)
(124.593 0 0)
(125.554 0 0)
(126.515 0 0)
(127.481 0 0)
(128.432 0 0)
(129.426 0 0)
(130.288 0 0)
(131.551 0 0)
(265.427 0 0)
(263.964 0 0)
(262.456 0 0)
(260.902 0 0)
(259.301 0 0)
(257.65 0 0)
(255.947 0 0)
(254.191 0 0)
(252.378 0 0)
(250.505 0 0)
(248.57 0 0)
(246.569 0 0)
(244.499 0 0)
(242.355 0 0)
(240.133 0 0)
(237.826 0 0)
(235.43 0 0)
(232.937 0 0)
(230.34 0 0)
(227.629 0 0)
(224.794 0 0)
(221.822 0 0)
(218.698 0 0)
(215.404 0 0)
(211.917 0 0)
(208.21 0 0)
(204.247 0 0)
(199.98 0 0)
(195.346 0 0)
(190.258 0 0)
(184.573 0 0)
(178.041 0 0)
(170.283 0 0)
(160.96 0 0)
(150.195 0 0)
(138.89 0 0)
(128.42 0 0)
(119.869 0 0)
(113.576 0 0)
(109.282 0 0)
(106.506 0 0)
(104.794 0 0)
(103.806 0 0)
(103.311 0 0)
(103.157 0 0)
(103.243 0 0)
(103.505 0 0)
(103.897 0 0)
(104.39 0 0)
(104.961 0 0)
(105.595 0 0)
(106.279 0 0)
(107.004 0 0)
(107.763 0 0)
(108.55 0 0)
(109.362 0 0)
(110.193 0 0)
(111.042 0 0)
(111.905 0 0)
(112.781 0 0)
(113.667 0 0)
(114.562 0 0)
(115.465 0 0)
(116.374 0 0)
(117.29 0 0)
(118.209 0 0)
(119.133 0 0)
(120.06 0 0)
(120.99 0 0)
(121.921 0 0)
(122.855 0 0)
(123.789 0 0)
(124.725 0 0)
(125.66 0 0)
(126.599 0 0)
(127.525 0 0)
(128.492 0 0)
(129.332 0 0)
(130.559 0 0)
(264.008 0 0)
(262.543 0 0)
(261.035 0 0)
(259.482 0 0)
(257.882 0 0)
(256.234 0 0)
(254.534 0 0)
(252.781 0 0)
(250.972 0 0)
(249.104 0 0)
(247.174 0 0)
(245.18 0 0)
(243.116 0 0)
(240.98 0 0)
(238.766 0 0)
(236.468 0 0)
(234.082 0 0)
(231.599 0 0)
(229.013 0 0)
(226.314 0 0)
(223.491 0 0)
(220.532 0 0)
(217.422 0 0)
(214.141 0 0)
(210.669 0 0)
(206.976 0 0)
(203.026 0 0)
(198.772 0 0)
(194.149 0 0)
(189.068 0 0)
(183.38 0 0)
(176.83 0 0)
(169.045 0 0)
(159.723 0 0)
(149.041 0 0)
(137.928 0 0)
(127.719 0 0)
(119.42 0 0)
(113.318 0 0)
(109.145 0 0)
(106.434 0 0)
(104.75 0 0)
(103.767 0 0)
(103.264 0 0)
(103.093 0 0)
(103.158 0 0)
(103.396 0 0)
(103.763 0 0)
(104.23 0 0)
(104.774 0 0)
(105.38 0 0)
(106.036 0 0)
(106.733 0 0)
(107.465 0 0)
(108.224 0 0)
(109.008 0 0)
(109.812 0 0)
(110.633 0 0)
(111.469 0 0)
(112.318 0 0)
(113.177 0 0)
(114.045 0 0)
(114.921 0 0)
(115.804 0 0)
(116.693 0 0)
(117.587 0 0)
(118.484 0 0)
(119.385 0 0)
(120.289 0 0)
(121.195 0 0)
(122.102 0 0)
(123.011 0 0)
(123.921 0 0)
(124.831 0 0)
(125.745 0 0)
(126.646 0 0)
(127.586 0 0)
(128.404 0 0)
(129.596 0 0)
(262.592 0 0)
(261.127 0 0)
(259.62 0 0)
(258.069 0 0)
(256.471 0 0)
(254.825 0 0)
(253.129 0 0)
(251.379 0 0)
(249.575 0 0)
(247.713 0 0)
(245.789 0 0)
(243.801 0 0)
(241.745 0 0)
(239.616 0 0)
(237.41 0 0)
(235.122 0 0)
(232.746 0 0)
(230.274 0 0)
(227.699 0 0)
(225.011 0 0)
(222.201 0 0)
(219.255 0 0)
(216.157 0 0)
(212.891 0 0)
(209.432 0 0)
(205.753 0 0)
(201.816 0 0)
(197.574 0 0)
(192.961 0 0)
(187.885 0 0)
(182.193 0 0)
(175.623 0 0)
(167.811 0 0)
(158.493 0 0)
(147.901 0 0)
(136.985 0 0)
(127.034 0 0)
(118.982 0 0)
(113.067 0 0)
(109.012 0 0)
(106.364 0 0)
(104.708 0 0)
(103.731 0 0)
(103.22 0 0)
(103.033 0 0)
(103.078 0 0)
(103.293 0 0)
(103.636 0 0)
(104.077 0 0)
(104.595 0 0)
(105.174 0 0)
(105.803 0 0)
(106.474 0 0)
(107.178 0 0)
(107.911 0 0)
(108.668 0 0)
(109.445 0 0)
(110.24 0 0)
(111.049 0 0)
(111.871 0 0)
(112.704 0 0)
(113.546 0 0)
(114.397 0 0)
(115.254 0 0)
(116.116 0 0)
(116.984 0 0)
(117.856 0 0)
(118.732 0 0)
(119.61 0 0)
(120.491 0 0)
(121.373 0 0)
(122.257 0 0)
(123.142 0 0)
(124.027 0 0)
(124.916 0 0)
(125.793 0 0)
(126.707 0 0)
(127.504 0 0)
(128.662 0 0)
(261.181 0 0)
(259.718 0 0)
(258.212 0 0)
(256.663 0 0)
(255.068 0 0)
(253.425 0 0)
(251.733 0 0)
(249.988 0 0)
(248.189 0 0)
(246.332 0 0)
(244.415 0 0)
(242.434 0 0)
(240.385 0 0)
(238.264 0 0)
(236.067 0 0)
(233.789 0 0)
(231.422 0 0)
(228.961 0 0)
(226.397 0 0)
(223.721 0 0)
(220.923 0 0)
(217.99 0 0)
(214.906 0 0)
(211.653 0 0)
(208.207 0 0)
(204.541 0 0)
(200.617 0 0)
(196.386 0 0)
(191.782 0 0)
(186.71 0 0)
(181.011 0 0)
(174.419 0 0)
(166.581 0 0)
(157.271 0 0)
(146.775 0 0)
(136.059 0 0)
(126.366 0 0)
(118.556 0 0)
(112.822 0 0)
(108.882 0 0)
(106.297 0 0)
(104.668 0 0)
(103.697 0 0)
(103.179 0 0)
(102.978 0 0)
(103.004 0 0)
(103.196 0 0)
(103.515 0 0)
(103.931 0 0)
(104.424 0 0)
(104.977 0 0)
(105.581 0 0)
(106.225 0 0)
(106.903 0 0)
(107.61 0 0)
(108.341 0 0)
(109.092 0 0)
(109.861 0 0)
(110.644 0 0)
(111.441 0 0)
(112.248 0 0)
(113.065 0 0)
(113.89 0 0)
(114.721 0 0)
(115.559 0 0)
(116.402 0 0)
(117.249 0 0)
(118.1 0 0)
(118.953 0 0)
(119.809 0 0)
(120.667 0 0)
(121.527 0 0)
(122.388 0 0)
(123.248 0 0)
(124.113 0 0)
(124.966 0 0)
(125.855 0 0)
(126.631 0 0)
(127.756 0 0)
(259.776 0 0)
(258.314 0 0)
(256.811 0 0)
(255.265 0 0)
(253.673 0 0)
(252.034 0 0)
(250.346 0 0)
(248.606 0 0)
(246.812 0 0)
(244.962 0 0)
(243.051 0 0)
(241.077 0 0)
(239.037 0 0)
(236.925 0 0)
(234.737 0 0)
(232.467 0 0)
(230.111 0 0)
(227.66 0 0)
(225.108 0 0)
(222.444 0 0)
(219.658 0 0)
(216.737 0 0)
(213.666 0 0)
(210.426 0 0)
(206.994 0 0)
(203.341 0 0)
(199.429 0 0)
(195.208 0 0)
(190.612 0 0)
(185.541 0 0)
(179.833 0 0)
(173.218 0 0)
(165.354 0 0)
(156.058 0 0)
(145.665 0 0)
(135.152 0 0)
(125.714 0 0)
(118.14 0 0)
(112.583 0 0)
(108.755 0 0)
(106.231 0 0)
(104.63 0 0)
(103.665 0 0)
(103.141 0 0)
(102.926 0 0)
(102.933 0 0)
(103.105 0 0)
(103.401 0 0)
(103.793 0 0)
(104.261 0 0)
(104.79 0 0)
(105.368 0 0)
(105.987 0 0)
(106.64 0 0)
(107.321 0 0)
(108.026 0 0)
(108.752 0 0)
(109.496 0 0)
(110.254 0 0)
(111.025 0 0)
(111.808 0 0)
(112.6 0 0)
(113.4 0 0)
(114.207 0 0)
(115.02 0 0)
(115.839 0 0)
(116.662 0 0)
(117.488 0 0)
(118.318 0 0)
(119.15 0 0)
(119.984 0 0)
(120.82 0 0)
(121.657 0 0)
(122.494 0 0)
(123.335 0 0)
(124.165 0 0)
(125.029 0 0)
(125.785 0 0)
(126.877 0 0)
(258.378 0 0)
(256.918 0 0)
(255.418 0 0)
(253.875 0 0)
(252.287 0 0)
(250.652 0 0)
(248.969 0 0)
(247.235 0 0)
(245.447 0 0)
(243.603 0 0)
(241.699 0 0)
(239.733 0 0)
(237.7 0 0)
(235.597 0 0)
(233.418 0 0)
(231.159 0 0)
(228.813 0 0)
(226.373 0 0)
(223.831 0 0)
(221.179 0 0)
(218.405 0 0)
(215.497 0 0)
(212.438 0 0)
(209.211 0 0)
(205.792 0 0)
(202.151 0 0)
(198.25 0 0)
(194.039 0 0)
(189.449 0 0)
(184.38 0 0)
(178.66 0 0)
(172.019 0 0)
(164.132 0 0)
(154.854 0 0)
(144.57 0 0)
(134.263 0 0)
(125.077 0 0)
(117.736 0 0)
(112.35 0 0)
(108.631 0 0)
(106.168 0 0)
(104.593 0 0)
(103.635 0 0)
(103.105 0 0)
(102.877 0 0)
(102.867 0 0)
(103.019 0 0)
(103.293 0 0)
(103.662 0 0)
(104.106 0 0)
(104.611 0 0)
(105.164 0 0)
(105.758 0 0)
(106.387 0 0)
(107.043 0 0)
(107.724 0 0)
(108.425 0 0)
(109.144 0 0)
(109.878 0 0)
(110.625 0 0)
(111.383 0 0)
(112.151 0 0)
(112.927 0 0)
(113.711 0 0)
(114.5 0 0)
(115.295 0 0)
(116.094 0 0)
(116.897 0 0)
(117.703 0 0)
(118.512 0 0)
(119.323 0 0)
(120.135 0 0)
(120.949 0 0)
(121.763 0 0)
(122.581 0 0)
(123.388 0 0)
(124.229 0 0)
(124.965 0 0)
(126.025 0 0)
(256.987 0 0)
(255.53 0 0)
(254.033 0 0)
(252.494 0 0)
(250.91 0 0)
(249.28 0 0)
(247.602 0 0)
(245.874 0 0)
(244.092 0 0)
(242.255 0 0)
(240.359 0 0)
(238.401 0 0)
(236.376 0 0)
(234.282 0 0)
(232.112 0 0)
(229.862 0 0)
(227.527 0 0)
(225.098 0 0)
(222.567 0 0)
(219.927 0 0)
(217.165 0 0)
(214.269 0 0)
(211.223 0 0)
(208.008 0 0)
(204.601 0 0)
(200.972 0 0)
(197.082 0 0)
(192.879 0 0)
(188.295 0 0)
(183.224 0 0)
(177.491 0 0)
(170.824 0 0)
(162.913 0 0)
(153.659 0 0)
(143.49 0 0)
(133.393 0 0)
(124.457 0 0)
(117.341 0 0)
(112.124 0 0)
(108.511 0 0)
(106.106 0 0)
(104.558 0 0)
(103.607 0 0)
(103.073 0 0)
(102.832 0 0)
(102.806 0 0)
(102.938 0 0)
(103.191 0 0)
(103.538 0 0)
(103.959 0 0)
(104.44 0 0)
(104.97 0 0)
(105.54 0 0)
(106.144 0 0)
(106.777 0 0)
(107.434 0 0)
(108.111 0 0)
(108.806 0 0)
(109.516 0 0)
(110.24 0 0)
(110.974 0 0)
(111.719 0 0)
(112.471 0 0)
(113.231 0 0)
(113.998 0 0)
(114.769 0 0)
(115.545 0 0)
(116.325 0 0)
(117.109 0 0)
(117.894 0 0)
(118.683 0 0)
(119.472 0 0)
(120.264 0 0)
(121.055 0 0)
(121.85 0 0)
(122.636 0 0)
(123.453 0 0)
(124.17 0 0)
(125.199 0 0)
(255.604 0 0)
(254.15 0 0)
(252.657 0 0)
(251.122 0 0)
(249.543 0 0)
(247.919 0 0)
(246.247 0 0)
(244.524 0 0)
(242.749 0 0)
(240.919 0 0)
(239.031 0 0)
(237.08 0 0)
(235.064 0 0)
(232.979 0 0)
(230.819 0 0)
(228.579 0 0)
(226.253 0 0)
(223.835 0 0)
(221.316 0 0)
(218.687 0 0)
(215.937 0 0)
(213.053 0 0)
(210.019 0 0)
(206.817 0 0)
(203.422 0 0)
(199.803 0 0)
(195.923 0 0)
(191.729 0 0)
(187.149 0 0)
(182.074 0 0)
(176.326 0 0)
(169.631 0 0)
(161.699 0 0)
(152.474 0 0)
(142.427 0 0)
(132.541 0 0)
(123.852 0 0)
(116.958 0 0)
(111.903 0 0)
(108.393 0 0)
(106.045 0 0)
(104.525 0 0)
(103.582 0 0)
(103.042 0 0)
(102.791 0 0)
(102.748 0 0)
(102.862 0 0)
(103.094 0 0)
(103.419 0 0)
(103.818 0 0)
(104.277 0 0)
(104.784 0 0)
(105.331 0 0)
(105.912 0 0)
(106.521 0 0)
(107.155 0 0)
(107.809 0 0)
(108.481 0 0)
(109.168 0 0)
(109.868 0 0)
(110.58 0 0)
(111.301 0 0)
(112.031 0 0)
(112.769 0 0)
(113.512 0 0)
(114.261 0 0)
(115.015 0 0)
(115.773 0 0)
(116.534 0 0)
(117.297 0 0)
(118.063 0 0)
(118.831 0 0)
(119.601 0 0)
(120.37 0 0)
(121.143 0 0)
(121.907 0 0)
(122.702 0 0)
(123.4 0 0)
(124.398 0 0)
(254.229 0 0)
(252.78 0 0)
(251.291 0 0)
(249.76 0 0)
(248.187 0 0)
(246.568 0 0)
(244.902 0 0)
(243.186 0 0)
(241.418 0 0)
(239.595 0 0)
(237.714 0 0)
(235.772 0 0)
(233.765 0 0)
(231.688 0 0)
(229.538 0 0)
(227.308 0 0)
(224.993 0 0)
(222.585 0 0)
(220.078 0 0)
(217.46 0 0)
(214.722 0 0)
(211.849 0 0)
(208.828 0 0)
(205.637 0 0)
(202.253 0 0)
(198.645 0 0)
(194.774 0 0)
(190.587 0 0)
(186.01 0 0)
(180.93 0 0)
(175.164 0 0)
(168.44 0 0)
(160.49 0 0)
(151.3 0 0)
(141.381 0 0)
(131.708 0 0)
(123.263 0 0)
(116.584 0 0)
(111.687 0 0)
(108.278 0 0)
(105.987 0 0)
(104.493 0 0)
(103.557 0 0)
(103.014 0 0)
(102.752 0 0)
(102.695 0 0)
(102.79 0 0)
(103.003 0 0)
(103.308 0 0)
(103.685 0 0)
(104.121 0 0)
(104.606 0 0)
(105.131 0 0)
(105.689 0 0)
(106.276 0 0)
(106.887 0 0)
(107.519 0 0)
(108.168 0 0)
(108.833 0 0)
(109.511 0 0)
(110.2 0 0)
(110.899 0 0)
(111.607 0 0)
(112.322 0 0)
(113.044 0 0)
(113.771 0 0)
(114.503 0 0)
(115.239 0 0)
(115.978 0 0)
(116.72 0 0)
(117.464 0 0)
(118.211 0 0)
(118.959 0 0)
(119.707 0 0)
(120.459 0 0)
(121.201 0 0)
(121.974 0 0)
(122.654 0 0)
(123.622 0 0)
(252.863 0 0)
(251.418 0 0)
(249.934 0 0)
(248.409 0 0)
(246.841 0 0)
(245.228 0 0)
(243.568 0 0)
(241.859 0 0)
(240.098 0 0)
(238.283 0 0)
(236.41 0 0)
(234.477 0 0)
(232.478 0 0)
(230.411 0 0)
(228.27 0 0)
(226.05 0 0)
(223.745 0 0)
(221.349 0 0)
(218.852 0 0)
(216.245 0 0)
(213.519 0 0)
(210.658 0 0)
(207.648 0 0)
(204.469 0 0)
(201.096 0 0)
(197.498 0 0)
(193.635 0 0)
(189.454 0 0)
(184.878 0 0)
(179.792 0 0)
(174.006 0 0)
(167.252 0 0)
(159.286 0 0)
(150.138 0 0)
(140.352 0 0)
(130.893 0 0)
(122.689 0 0)
(116.221 0 0)
(111.478 0 0)
(108.166 0 0)
(105.93 0 0)
(104.462 0 0)
(103.535 0 0)
(102.989 0 0)
(102.716 0 0)
(102.645 0 0)
(102.723 0 0)
(102.917 0 0)
(103.202 0 0)
(103.558 0 0)
(103.973 0 0)
(104.437 0 0)
(104.94 0 0)
(105.476 0 0)
(106.041 0 0)
(106.63 0 0)
(107.24 0 0)
(107.867 0 0)
(108.51 0 0)
(109.166 0 0)
(109.834 0 0)
(110.511 0 0)
(111.198 0 0)
(111.891 0 0)
(112.591 0 0)
(113.297 0 0)
(114.008 0 0)
(114.722 0 0)
(115.441 0 0)
(116.162 0 0)
(116.885 0 0)
(117.61 0 0)
(118.337 0 0)
(119.065 0 0)
(119.796 0 0)
(120.518 0 0)
(121.269 0 0)
(121.931 0 0)
(122.871 0 0)
(251.507 0 0)
(250.067 0 0)
(248.588 0 0)
(247.069 0 0)
(245.506 0 0)
(243.9 0 0)
(242.247 0 0)
(240.545 0 0)
(238.791 0 0)
(236.984 0 0)
(235.119 0 0)
(233.194 0 0)
(231.204 0 0)
(229.146 0 0)
(227.015 0 0)
(224.805 0 0)
(222.511 0 0)
(220.125 0 0)
(217.639 0 0)
(215.044 0 0)
(212.328 0 0)
(209.479 0 0)
(206.48 0 0)
(203.312 0 0)
(199.949 0 0)
(196.361 0 0)
(192.506 0 0)
(188.329 0 0)
(183.753 0 0)
(178.658 0 0)
(172.85 0 0)
(166.067 0 0)
(158.088 0 0)
(148.988 0 0)
(139.341 0 0)
(130.098 0 0)
(122.131 0 0)
(115.868 0 0)
(111.274 0 0)
(108.057 0 0)
(105.875 0 0)
(104.433 0 0)
(103.514 0 0)
(102.965 0 0)
(102.684 0 0)
(102.598 0 0)
(102.66 0 0)
(102.836 0 0)
(103.101 0 0)
(103.438 0 0)
(103.833 0 0)
(104.275 0 0)
(104.757 0 0)
(105.272 0 0)
(105.816 0 0)
(106.384 0 0)
(106.972 0 0)
(107.578 0 0)
(108.2 0 0)
(108.835 0 0)
(109.481 0 0)
(110.138 0 0)
(110.803 0 0)
(111.476 0 0)
(112.155 0 0)
(112.84 0 0)
(113.53 0 0)
(114.224 0 0)
(114.921 0 0)
(115.622 0 0)
(116.325 0 0)
(117.03 0 0)
(117.736 0 0)
(118.443 0 0)
(119.154 0 0)
(119.856 0 0)
(120.586 0 0)
(121.231 0 0)
(122.143 0 0)
(250.162 0 0)
(248.726 0 0)
(247.253 0 0)
(245.739 0 0)
(244.183 0 0)
(242.583 0 0)
(240.937 0 0)
(239.242 0 0)
(237.496 0 0)
(235.697 0 0)
(233.84 0 0)
(231.924 0 0)
(229.943 0 0)
(227.895 0 0)
(225.773 0 0)
(223.573 0 0)
(221.289 0 0)
(218.914 0 0)
(216.439 0 0)
(213.854 0 0)
(211.15 0 0)
(208.312 0 0)
(205.324 0 0)
(202.166 0 0)
(198.813 0 0)
(195.234 0 0)
(191.385 0 0)
(187.213 0 0)
(182.636 0 0)
(177.53 0 0)
(171.699 0 0)
(164.886 0 0)
(156.897 0 0)
(147.851 0 0)
(138.349 0 0)
(129.322 0 0)
(121.588 0 0)
(115.525 0 0)
(111.075 0 0)
(107.951 0 0)
(105.821 0 0)
(104.405 0 0)
(103.495 0 0)
(102.944 0 0)
(102.653 0 0)
(102.555 0 0)
(102.601 0 0)
(102.76 0 0)
(103.007 0 0)
(103.324 0 0)
(103.699 0 0)
(104.121 0 0)
(104.582 0 0)
(105.077 0 0)
(105.6 0 0)
(106.147 0 0)
(106.715 0 0)
(107.3 0 0)
(107.901 0 0)
(108.516 0 0)
(109.142 0 0)
(109.778 0 0)
(110.422 0 0)
(111.075 0 0)
(111.734 0 0)
(112.399 0 0)
(113.068 0 0)
(113.742 0 0)
(114.42 0 0)
(115.1 0 0)
(115.783 0 0)
(116.468 0 0)
(117.155 0 0)
(117.842 0 0)
(118.533 0 0)
(119.216 0 0)
(119.926 0 0)
(120.553 0 0)
(121.437 0 0)
(248.826 0 0)
(247.397 0 0)
(245.929 0 0)
(244.422 0 0)
(242.872 0 0)
(241.279 0 0)
(239.64 0 0)
(237.952 0 0)
(236.214 0 0)
(234.423 0 0)
(232.575 0 0)
(230.667 0 0)
(228.696 0 0)
(226.656 0 0)
(224.545 0 0)
(222.355 0 0)
(220.081 0 0)
(217.716 0 0)
(215.251 0 0)
(212.678 0 0)
(209.984 0 0)
(207.157 0 0)
(204.179 0 0)
(201.032 0 0)
(197.688 0 0)
(194.117 0 0)
(190.274 0 0)
(186.105 0 0)
(181.525 0 0)
(176.406 0 0)
(170.55 0 0)
(163.707 0 0)
(155.714 0 0)
(146.728 0 0)
(137.376 0 0)
(128.566 0 0)
(121.061 0 0)
(115.192 0 0)
(110.882 0 0)
(107.847 0 0)
(105.769 0 0)
(104.378 0 0)
(103.477 0 0)
(102.924 0 0)
(102.626 0 0)
(102.515 0 0)
(102.547 0 0)
(102.688 0 0)
(102.917 0 0)
(103.216 0 0)
(103.571 0 0)
(103.974 0 0)
(104.416 0 0)
(104.89 0 0)
(105.393 0 0)
(105.921 0 0)
(106.468 0 0)
(107.034 0 0)
(107.615 0 0)
(108.209 0 0)
(108.815 0 0)
(109.431 0 0)
(110.056 0 0)
(110.689 0 0)
(111.328 0 0)
(111.973 0 0)
(112.623 0 0)
(113.277 0 0)
(113.935 0 0)
(114.596 0 0)
(115.26 0 0)
(115.925 0 0)
(116.593 0 0)
(117.261 0 0)
(117.932 0 0)
(118.596 0 0)
(119.286 0 0)
(119.896 0 0)
(120.754 0 0)
(247.502 0 0)
(246.078 0 0)
(244.617 0 0)
(243.116 0 0)
(241.573 0 0)
(239.987 0 0)
(238.355 0 0)
(236.675 0 0)
(234.945 0 0)
(233.162 0 0)
(231.322 0 0)
(229.423 0 0)
(227.461 0 0)
(225.431 0 0)
(223.329 0 0)
(221.149 0 0)
(218.885 0 0)
(216.531 0 0)
(214.077 0 0)
(211.514 0 0)
(208.831 0 0)
(206.014 0 0)
(203.047 0 0)
(199.909 0 0)
(196.574 0 0)
(193.01 0 0)
(189.173 0 0)
(185.004 0 0)
(180.42 0 0)
(175.287 0 0)
(169.404 0 0)
(162.533 0 0)
(154.538 0 0)
(145.619 0 0)
(136.422 0 0)
(127.828 0 0)
(120.549 0 0)
(114.869 0 0)
(110.695 0 0)
(107.747 0 0)
(105.718 0 0)
(104.353 0 0)
(103.46 0 0)
(102.907 0 0)
(102.6 0 0)
(102.478 0 0)
(102.495 0 0)
(102.621 0 0)
(102.833 0 0)
(103.113 0 0)
(103.45 0 0)
(103.834 0 0)
(104.257 0 0)
(104.712 0 0)
(105.196 0 0)
(105.703 0 0)
(106.231 0 0)
(106.777 0 0)
(107.339 0 0)
(107.914 0 0)
(108.5 0 0)
(109.097 0 0)
(109.703 0 0)
(110.316 0 0)
(110.936 0 0)
(111.562 0 0)
(112.193 0 0)
(112.828 0 0)
(113.467 0 0)
(114.109 0 0)
(114.754 0 0)
(115.401 0 0)
(116.049 0 0)
(116.699 0 0)
(117.351 0 0)
(117.997 0 0)
(118.667 0 0)
(119.261 0 0)
(120.093 0 0)
(246.189 0 0)
(244.771 0 0)
(243.316 0 0)
(241.822 0 0)
(240.286 0 0)
(238.707 0 0)
(237.082 0 0)
(235.411 0 0)
(233.689 0 0)
(231.914 0 0)
(230.083 0 0)
(228.193 0 0)
(226.24 0 0)
(224.219 0 0)
(222.127 0 0)
(219.957 0 0)
(217.703 0 0)
(215.358 0 0)
(212.915 0 0)
(210.362 0 0)
(207.69 0 0)
(204.883 0 0)
(201.926 0 0)
(198.797 0 0)
(195.47 0 0)
(191.913 0 0)
(188.08 0 0)
(183.912 0 0)
(179.322 0 0)
(174.172 0 0)
(168.261 0 0)
(161.363 0 0)
(153.371 0 0)
(144.526 0 0)
(135.488 0 0)
(127.11 0 0)
(120.051 0 0)
(114.555 0 0)
(110.513 0 0)
(107.649 0 0)
(105.669 0 0)
(104.328 0 0)
(103.445 0 0)
(102.891 0 0)
(102.577 0 0)
(102.444 0 0)
(102.448 0 0)
(102.558 0 0)
(102.753 0 0)
(103.016 0 0)
(103.335 0 0)
(103.701 0 0)
(104.105 0 0)
(104.542 0 0)
(105.006 0 0)
(105.495 0 0)
(106.004 0 0)
(106.531 0 0)
(107.074 0 0)
(107.63 0 0)
(108.198 0 0)
(108.776 0 0)
(109.362 0 0)
(109.957 0 0)
(110.559 0 0)
(111.166 0 0)
(111.778 0 0)
(112.395 0 0)
(113.015 0 0)
(113.639 0 0)
(114.265 0 0)
(114.894 0 0)
(115.524 0 0)
(116.155 0 0)
(116.789 0 0)
(117.417 0 0)
(118.068 0 0)
(118.646 0 0)
(119.453 0 0)
(244.888 0 0)
(243.476 0 0)
(242.028 0 0)
(240.54 0 0)
(239.012 0 0)
(237.44 0 0)
(235.823 0 0)
(234.159 0 0)
(232.445 0 0)
(230.679 0 0)
(228.857 0 0)
(226.976 0 0)
(225.032 0 0)
(223.021 0 0)
(220.938 0 0)
(218.777 0 0)
(216.534 0 0)
(214.199 0 0)
(211.766 0 0)
(209.224 0 0)
(206.561 0 0)
(203.764 0 0)
(200.816 0 0)
(197.696 0 0)
(194.377 0 0)
(190.825 0 0)
(186.996 0 0)
(182.828 0 0)
(178.229 0 0)
(173.061 0 0)
(167.122 0 0)
(160.197 0 0)
(152.214 0 0)
(143.449 0 0)
(134.574 0 0)
(126.412 0 0)
(119.569 0 0)
(114.251 0 0)
(110.336 0 0)
(107.554 0 0)
(105.622 0 0)
(104.305 0 0)
(103.431 0 0)
(102.876 0 0)
(102.557 0 0)
(102.413 0 0)
(102.403 0 0)
(102.499 0 0)
(102.678 0 0)
(102.924 0 0)
(103.226 0 0)
(103.574 0 0)
(103.96 0 0)
(104.379 0 0)
(104.825 0 0)
(105.296 0 0)
(105.787 0 0)
(106.295 0 0)
(106.82 0 0)
(107.357 0 0)
(107.907 0 0)
(108.466 0 0)
(109.035 0 0)
(109.611 0 0)
(110.194 0 0)
(110.784 0 0)
(111.378 0 0)
(111.977 0 0)
(112.579 0 0)
(113.185 0 0)
(113.793 0 0)
(114.404 0 0)
(115.016 0 0)
(115.629 0 0)
(116.246 0 0)
(116.856 0 0)
(117.488 0 0)
(118.051 0 0)
(118.834 0 0)
(243.598 0 0)
(242.194 0 0)
(240.752 0 0)
(239.271 0 0)
(237.75 0 0)
(236.186 0 0)
(234.577 0 0)
(232.921 0 0)
(231.215 0 0)
(229.457 0 0)
(227.644 0 0)
(225.772 0 0)
(223.837 0 0)
(221.835 0 0)
(219.762 0 0)
(217.611 0 0)
(215.378 0 0)
(213.053 0 0)
(210.63 0 0)
(208.097 0 0)
(205.445 0 0)
(202.657 0 0)
(199.718 0 0)
(196.606 0 0)
(193.294 0 0)
(189.748 0 0)
(185.921 0 0)
(181.75 0 0)
(177.143 0 0)
(171.954 0 0)
(165.985 0 0)
(159.036 0 0)
(151.067 0 0)
(142.389 0 0)
(133.681 0 0)
(125.733 0 0)
(119.101 0 0)
(113.956 0 0)
(110.164 0 0)
(107.461 0 0)
(105.576 0 0)
(104.283 0 0)
(103.418 0 0)
(102.864 0 0)
(102.538 0 0)
(102.384 0 0)
(102.362 0 0)
(102.443 0 0)
(102.607 0 0)
(102.838 0 0)
(103.123 0 0)
(103.453 0 0)
(103.822 0 0)
(104.223 0 0)
(104.652 0 0)
(105.105 0 0)
(105.578 0 0)
(106.069 0 0)
(106.575 0 0)
(107.095 0 0)
(107.627 0 0)
(108.168 0 0)
(108.719 0 0)
(109.278 0 0)
(109.844 0 0)
(110.415 0 0)
(110.992 0 0)
(111.573 0 0)
(112.158 0 0)
(112.746 0 0)
(113.337 0 0)
(113.93 0 0)
(114.525 0 0)
(115.121 0 0)
(115.72 0 0)
(116.313 0 0)
(116.928 0 0)
(117.476 0 0)
(118.234 0 0)
(242.321 0 0)
(240.923 0 0)
(239.489 0 0)
(238.015 0 0)
(236.502 0 0)
(234.945 0 0)
(233.344 0 0)
(231.696 0 0)
(229.999 0 0)
(228.25 0 0)
(226.445 0 0)
(224.582 0 0)
(222.656 0 0)
(220.664 0 0)
(218.6 0 0)
(216.459 0 0)
(214.235 0 0)
(211.92 0 0)
(209.506 0 0)
(206.984 0 0)
(204.34 0 0)
(201.562 0 0)
(198.631 0 0)
(195.527 0 0)
(192.221 0 0)
(188.679 0 0)
(184.854 0 0)
(180.68 0 0)
(176.062 0 0)
(170.852 0 0)
(164.853 0 0)
(157.881 0 0)
(149.932 0 0)
(141.347 0 0)
(132.808 0 0)
(125.073 0 0)
(118.648 0 0)
(113.67 0 0)
(109.998 0 0)
(107.372 0 0)
(105.531 0 0)
(104.262 0 0)
(103.406 0 0)
(102.852 0 0)
(102.521 0 0)
(102.358 0 0)
(102.324 0 0)
(102.392 0 0)
(102.541 0 0)
(102.756 0 0)
(103.025 0 0)
(103.339 0 0)
(103.691 0 0)
(104.075 0 0)
(104.487 0 0)
(104.922 0 0)
(105.378 0 0)
(105.852 0 0)
(106.341 0 0)
(106.843 0 0)
(107.357 0 0)
(107.882 0 0)
(108.416 0 0)
(108.957 0 0)
(109.506 0 0)
(110.06 0 0)
(110.62 0 0)
(111.184 0 0)
(111.752 0 0)
(112.323 0 0)
(112.897 0 0)
(113.473 0 0)
(114.051 0 0)
(114.63 0 0)
(115.212 0 0)
(115.789 0 0)
(116.386 0 0)
(116.919 0 0)
(117.654 0 0)
(241.057 0 0)
(239.666 0 0)
(238.238 0 0)
(236.773 0 0)
(235.266 0 0)
(233.718 0 0)
(232.125 0 0)
(230.485 0 0)
(228.796 0 0)
(227.055 0 0)
(225.259 0 0)
(223.405 0 0)
(221.488 0 0)
(219.505 0 0)
(217.451 0 0)
(215.319 0 0)
(213.105 0 0)
(210.8 0 0)
(208.395 0 0)
(205.882 0 0)
(203.248 0 0)
(200.479 0 0)
(197.556 0 0)
(194.459 0 0)
(191.159 0 0)
(187.621 0 0)
(183.796 0 0)
(179.618 0 0)
(174.986 0 0)
(169.753 0 0)
(163.723 0 0)
(156.733 0 0)
(148.808 0 0)
(140.323 0 0)
(131.957 0 0)
(124.432 0 0)
(118.209 0 0)
(113.394 0 0)
(109.836 0 0)
(107.285 0 0)
(105.487 0 0)
(104.242 0 0)
(103.396 0 0)
(102.842 0 0)
(102.506 0 0)
(102.334 0 0)
(102.289 0 0)
(102.344 0 0)
(102.478 0 0)
(102.678 0 0)
(102.932 0 0)
(103.23 0 0)
(103.566 0 0)
(103.933 0 0)
(104.329 0 0)
(104.747 0 0)
(105.186 0 0)
(105.643 0 0)
(106.116 0 0)
(106.601 0 0)
(107.099 0 0)
(107.607 0 0)
(108.123 0 0)
(108.648 0 0)
(109.18 0 0)
(109.718 0 0)
(110.261 0 0)
(110.808 0 0)
(111.359 0 0)
(111.914 0 0)
(112.472 0 0)
(113.031 0 0)
(113.593 0 0)
(114.156 0 0)
(114.721 0 0)
(115.281 0 0)
(115.861 0 0)
(116.38 0 0)
(117.093 0 0)
(239.805 0 0)
(238.421 0 0)
(237.001 0 0)
(235.543 0 0)
(234.044 0 0)
(232.503 0 0)
(230.919 0 0)
(229.287 0 0)
(227.607 0 0)
(225.874 0 0)
(224.087 0 0)
(222.242 0 0)
(220.334 0 0)
(218.36 0 0)
(216.315 0 0)
(214.193 0 0)
(211.988 0 0)
(209.692 0 0)
(207.297 0 0)
(204.793 0 0)
(202.168 0 0)
(199.407 0 0)
(196.492 0 0)
(193.401 0 0)
(190.107 0 0)
(186.571 0 0)
(182.746 0 0)
(178.562 0 0)
(173.916 0 0)
(168.658 0 0)
(162.598 0 0)
(155.591 0 0)
(147.698 0 0)
(139.317 0 0)
(131.127 0 0)
(123.81 0 0)
(117.784 0 0)
(113.126 0 0)
(109.68 0 0)
(107.2 0 0)