/*--------------------------------*- C++ -*----------------------------------*\
| =========                 |                                                 |
| \\      /  F ield         | OpenFOAM: The Open Source CFD Toolbox           |
|  \\    /   O peration     | Version:  2312                                  |
|   \\  /    A nd           | Website:  www.openfoam.com                      |
|    \\/     M anipulation  |                                                 |
\*---------------------------------------------------------------------------*/
FoamFile
{
    version     2.0;
    format      ascii;
    arch        "LSB;label=32;scalar=64";
    class       surfaceScalarField;
    location    "0.012";
    object      phi;
}
// * * * * * * * * * * * * * * * * * * * * * * * * * * * * * * * * * * * * * //

dimensions      [0 3 -1 0 0 0 0];

oriented        oriented;

internalField   nonuniform List<scalar> 
62015
(
64.4271
0.339018
-65.2952
63.5137
0.329189
62.6285
0.319074
61.97
0.310232
60.8012
0.300575
58.8346
0.283724
60.8906
0.279661
62.7898
0.301871
41.2299
0.219524
10.906
0.0532085
0.450071
0.00191465
0.00087366
3.13162e-06
1.87554e-06
6.36306e-09
3.34821e-09
9.326e-12
6.7468e-12
1.72951e-14
1.19504e-14
2.44103e-17
2.22326e-17
3.91133e-20
3.85367e-20
5.07176e-23
6.71653e-23
6.65448e-26
1.12203e-25
6.70038e-29
1.84732e-28
4.72988e-32
2.9446e-31
-3.15325e-35
4.58262e-34
-2.04499e-37
6.91499e-37
-5.44435e-40
1.01301e-39
-1.12921e-42
1.43562e-42
-2.06146e-45
1.96556e-45
-3.43181e-48
2.59241e-48
-5.30395e-51
3.28526e-51
-7.66596e-54
3.98705e-54
-1.0393e-56
4.61687e-57
-1.32145e-59
5.07859e-60
-1.57171e-62
5.27907e-63
-1.73998e-65
5.15269e-66
-1.77872e-68
4.68605e-69
-1.65872e-71
3.93328e-72
-1.38404e-74
3.01209e-75
-9.99544e-78
2.07631e-78
-5.84053e-81
1.27053e-81
-2.27806e-84
6.8383e-85
0
3.25033e-88
7.94061e-91
1.3511e-91
4.77787e-94
3.26722e-95
-2.04935e-97
-3.4427e-98
-5.5382e-100
-6.76286e-101
-3.07678e-103
-4.46675e-104
2.40683e-106
2.67079e-107
5.22881e-109
8.28666e-110
2.05321e-112
4.89585e-113
-4.47987e-115
-6.9606e-116
-7.12966e-118
-1.46497e-118
-6.9298e-122
-3.69478e-122
1.06376e-123
2.17646e-124
1.29719e-126
3.04644e-127
-4.9688e-130
-8.84966e-131
-3.20323e-132
-7.35773e-133
-2.87737e-135
-6.81791e-136
3.70401e-138
8.60617e-139
1.18477e-140
2.75294e-141
6.35355e-144
1.43378e-144
-2.32989e-146
-5.40406e-147
-5.08043e-149
-1.16176e-149
-4.46753e-153
-1.08746e-153
1.49727e-154
3.37881e-155
2.41353e-157
5.558e-158
-1.21137e-160
-2.3396e-161
-1.02199e-162
-2.2883e-163
-1.24061e-165
-2.99646e-166
1.67318e-168
3.29628e-169
7.57474e-171
1.72095e-171
6.76026e-174
1.78752e-174
-1.8393e-176
-3.72149e-177
-6.17372e-179
-1.44098e-179
-3.67717e-182
-1.12828e-182
2.00488e-184
4.19035e-185
5.51283e-187
1.32566e-187
1.565e-190
6.75244e-191
-2.27314e-192
-4.90133e-193
-5.28292e-195
4.15937e-199
-1.30594e-195
62.0054
0.662629
-62.8628
61.1158
0.642931
60.4142
0.624741
59.613
0.607736
57.7314
0.578658
57.7301
0.556053
61.9978
0.595466
50.0316
0.522048
19.2945
0.195381
1.72708
0.0155156
0.0044645
3.47134e-05
-0.000101686
-8.4794e-07
-2.59003e-07
-1.89155e-09
-8.70881e-10
-6.14957e-12
-1.98261e-12
-1.24722e-14
-4.8531e-15
-2.8688e-17
-1.02887e-17
-5.43951e-20
-2.18746e-20
-1.05807e-22
-4.34382e-23
-1.8654e-25
-8.44903e-26
-3.23179e-28
-1.57472e-28
-5.24719e-31
-2.85304e-31
-8.1982e-34
-4.99228e-34
-1.2079e-36
-8.46713e-37
-1.68363e-39
-1.38884e-39
-2.18554e-42
-2.20347e-42
-2.60251e-45
-3.37664e-45
-2.73958e-48
-4.99219e-48
-2.33421e-51
-7.10897e-51
-1.0849e-54
-9.73183e-54
1.26623e-57
-1.27771e-56
4.81178e-60
-1.60428e-59
9.34256e-63
-1.91964e-62
1.42474e-65
-2.17954e-65
1.85324e-68
-2.33517e-68
2.10181e-71
-2.34396e-71
2.07262e-74
-2.18276e-74
1.73494e-77
-1.85934e-77
1.15913e-80
-1.4173e-80
5.12092e-84
-9.30007e-84
0
-4.82958e-87
-2.27187e-90
-1.48781e-90
-1.61745e-93
3.60147e-94
4.718e-97
8.23523e-97
1.82988e-99
4.14956e-100
1.16425e-102
-1.88681e-103
-8.42777e-106
-4.54096e-106
-2.00343e-108
-2.24784e-109
-7.07422e-112
2.42059e-112
2.01137e-114
4.77739e-115
2.80578e-117
1.72762e-118
-4.98144e-121
-4.82788e-121
-5.07969e-123
-7.86684e-124
-4.11412e-126
-7.4504e-128
5.2976e-129
1.34371e-129
1.37547e-131
1.7514e-132
3.99103e-135
-6.65758e-136
-2.59341e-137
-4.74706e-138
-4.01142e-140
-4.57584e-141
1.42672e-143
5.73252e-144
1.21824e-145
1.9787e-146
1.23273e-148
1.20483e-149
-1.75159e-151
-3.92325e-152
-6.14109e-154
-9.40131e-155
-3.64384e-157
-2.1301e-158
1.41726e-159
2.70018e-160
3.43744e-162
5.0523e-163
6.40337e-166
-1.04706e-166
-1.12761e-167
-1.99597e-168
-2.1601e-170
-3.07035e-171
5.55804e-174
2.24138e-174
9.56156e-176
1.62692e-176
1.52149e-178
2.08685e-179
-1.18572e-181
-2.93857e-182
-8.83371e-184
-1.46539e-184
-1.17944e-186
-1.53301e-187
1.70241e-189
3.65191e-190
8.84917e-192
1.4346e-192
9.6917e-195
-2.30057e-197
1.14428e-195
59.6283
0.970419
-60.491
58.8836
0.942918
58.2403
0.918877
56.6769
0.881445
55.5968
0.838514
59.5461
0.878799
54.4067
0.849053
26.5833
0.415554
3.90654
0.0551787
0.0399825
0.00052358
-0.000479224
-6.34361e-06
-2.66061e-07
-1.92828e-09
2.30302e-08
2.81922e-10
8.08483e-11
8.94416e-13
3.17139e-13
3.351e-15
8.82632e-16
8.56511e-18
2.43463e-18
2.21781e-20
5.9347e-21
4.97404e-23
1.39585e-23
1.08225e-25
3.07843e-26
2.18307e-28
6.52706e-29
4.22315e-31
1.32255e-31
7.73927e-34
2.57902e-34
1.35577e-36
4.83612e-37
2.26236e-39
8.7351e-40
3.59945e-42
1.51941e-42
5.44749e-45
2.5448e-45
7.82333e-48
4.10103e-48
1.06215e-50
6.35205e-51
1.35599e-53
9.44183e-54
1.61595e-56
1.34412e-56
1.77835e-59
1.82784e-59
1.77794e-62
2.36661e-62
1.57086e-65
2.90522e-65
1.16172e-68
3.36309e-68
6.21702e-72
3.64486e-71
8.31415e-76
3.66203e-74
-2.99976e-78
3.36258e-77
-4.18863e-81
2.75997e-80
-2.75138e-84
1.94798e-83
0
1.0883e-86
2.05408e-90
3.65821e-90
1.95163e-93
-7.79215e-94
-6.24561e-98
-2.05598e-96
-2.01888e-99
-1.04278e-99
-1.78649e-102
5.73283e-103
7.2456e-106
1.23336e-105
2.84815e-108
4.59772e-109
1.48766e-111
-8.61866e-112
-2.86057e-114
-1.24547e-114
-4.86318e-117
-3.04764e-119
4.32504e-121
1.66629e-120
9.12333e-123
1.64472e-123
7.83023e-126
-1.02776e-126
-1.07315e-128
-3.91892e-129
-2.74925e-131
-2.35808e-132
-4.7788e-135
5.10312e-135
5.92814e-137
1.09999e-137
7.84673e-140
2.02585e-141
-6.02405e-143
-2.35345e-143
-2.82971e-145
-3.6058e-146
-1.89383e-148
1.28769e-149
5.71376e-151
1.17826e-151
1.34831e-153
1.3405e-154
1.19925e-157
-1.55271e-157
-4.19819e-159
-6.62698e-160
-6.78211e-162
-5.44608e-163
3.97604e-165
1.37031e-165
3.09576e-167
4.23149e-168
3.70097e-170
2.26264e-171
-5.58755e-173
-1.20852e-173
-2.46877e-175
-3.06969e-176
-2.1795e-178
-7.56632e-180
6.43946e-181
1.13935e-181
2.17141e-183
2.49809e-184
1.29736e-186
-1.79681e-188
-7.43142e-189
-1.161e-189
-2.08243e-191
-2.22034e-192
-6.23222e-195
8.87512e-197
9.94283e-196
57.3907
1.26388
-58.1635
56.8105
1.23299
55.5508
1.18963
53.9917
1.12826
56.9417
1.15743
56.0736
1.17933
32.2948
0.691469
6.60621
0.130064
0.145764
0.00268702
-0.00126593
-2.34524e-05
-6.69838e-06
-1.12756e-07
1.2806e-07
2.21921e-09
-9.8889e-11
-2.1467e-12
-5.44987e-12
-8.69239e-14
-2.54985e-14
-3.75196e-16
-1.08536e-16
-1.51007e-18
-3.53254e-19
-4.57862e-21
-1.06829e-21
-1.29808e-23
-2.90088e-24
-3.27797e-26
-7.40923e-27
-7.77795e-29
-1.77438e-29
-1.72072e-31
-4.0365e-32
-3.60101e-34
-8.7398e-35
-7.13196e-37
-1.80848e-37
-1.34177e-39
-3.58225e-40
-2.39983e-42
-6.80085e-43
-4.08139e-45
-1.23813e-45
-6.59686e-48
-2.16128e-48
-1.01176e-50
-3.61542e-51
-1.46917e-53
-5.78905e-54
-2.01301e-56
-8.85796e-57
-2.59098e-59
-1.29221e-59
-3.11367e-62
-1.7918e-62
-3.46498e-65
-2.35218e-65
-3.52995e-68
-2.90808e-68
-3.2382e-71
-3.36253e-71
-2.60789e-74
-3.60141e-74
-1.76662e-77
-3.52364e-77
-9.25034e-81
-3.08227e-80
-2.97648e-84
-2.32233e-83
0
-1.39394e-86
1.66283e-91
-5.21165e-90
-6.68825e-94
7.66356e-94
-7.03926e-97
2.85109e-96
3.87893e-100
1.63357e-99
1.22382e-102
-7.59399e-103
3.38625e-106
-1.90656e-105
-1.61235e-108
-7.74477e-109
-1.79902e-111
1.39818e-111
1.36265e-114
2.07219e-114
4.43888e-117
-4.68104e-119
1.11855e-120
-2.98847e-120
-8.15968e-123
-2.67253e-123
-9.86235e-126
2.4183e-126
9.24475e-129
7.15377e-129
3.25312e-131
2.76634e-132
1.00774e-134
-1.14868e-134
-7.36219e-137
-1.86996e-137
-1.07791e-139
4.30882e-141
8.32407e-143
4.96863e-143
4.1097e-145
5.13699e-146
2.54809e-148
-6.36217e-149
-9.51642e-151
-2.26977e-151
-2.07938e-153
-1.34837e-154
2.96923e-157
4.85305e-157
7.54757e-159
1.15016e-159
1.01148e-161
2.03651e-163
-1.20498e-164
-3.57137e-165
-5.71588e-167
-6.61115e-168
-4.66747e-170
1.82521e-171
1.50042e-172
2.82108e-173
4.52191e-175
4.32156e-176
1.67506e-178
-3.52666e-179
-1.66499e-180
-2.45879e-181
-3.84053e-183
-3.14533e-184
3.55183e-187
4.77481e-187
1.86523e-188
2.3501e-189
3.46994e-191
2.44122e-192
-2.20588e-194
-2.15323e-196
-6.15477e-195
55.3763
1.54959
-55.9249
54.37
1.50184
52.642
1.42447
54.5566
1.43523
56.1923
1.50487
36.6362
1.00533
9.51617
0.244074
0.357527
0.00861081
-0.00223426
-5.43108e-05
-3.20009e-05
-7.24093e-07
4.16471e-07
9.47593e-09
8.16144e-10
1.55265e-11
-3.26555e-11
-6.93594e-13
5.94315e-14
1.37259e-15
1.40022e-15
2.727e-17
8.13985e-18
1.4803e-19
3.69673e-20
6.32285e-22
1.35209e-22
2.16804e-24
4.41672e-25
6.63551e-27
1.30387e-27
1.82888e-29
3.56732e-30
4.65636e-32
9.12536e-33
1.10402e-34
2.20074e-35
2.45646e-37
5.0296e-38
5.15365e-40
1.09295e-40
1.02207e-42
2.26391e-43
1.91971e-45
4.47555e-46
3.41576e-48
8.45046e-49
5.75589e-51
1.52376e-51
9.17213e-54
2.62229e-54
1.37902e-56
4.30132e-57
1.94937e-59
6.71166e-60
2.57838e-62
9.93503e-63
3.16963e-65
1.38999e-65
3.58764e-68
1.82896e-68
3.68853e-71
2.24824e-71
3.37371e-74
2.55801e-74
2.65053e-77
2.65806e-77
1.66786e-80
2.4709e-80
6.90778e-84
1.98326e-83
0
1.27804e-86
-2.49926e-90
5.31823e-90
-1.29213e-93
-3.95534e-94
1.0199e-96
-2.79284e-96
1.76496e-99
-1.85864e-99
3.33776e-103
6.31677e-103
-1.35599e-105
2.09513e-105
-1.02171e-108
1.03152e-108
9.79544e-112
-1.51393e-111
1.53287e-114
-2.54727e-114
-9.85637e-118
-9.63635e-119
-2.77569e-120
3.73599e-120
1.37043e-123
3.55273e-123
7.21287e-126
-3.18599e-126
2.20996e-130
-9.7322e-129
-2.04335e-131
-3.46702e-132
-1.73049e-134
1.68887e-134
4.70118e-137
2.60086e-137
1.01456e-139
-1.03497e-140
-4.4337e-143
-7.61075e-143
-3.8702e-145
-6.55394e-146
-3.07803e-148
1.22849e-148
9.6822e-151
3.451e-151
2.35343e-153
1.0707e-154
-3.77576e-157
-9.04838e-157
-9.36597e-159
-1.65884e-159
-1.21303e-161
4.90038e-163
1.87462e-164
6.45867e-165
7.81335e-167
8.64665e-168
4.73003e-170
-9.50293e-171
-2.53839e-172
-4.92277e-173
-6.35164e-175
-4.85594e-176
2.69847e-179
1.13684e-178
2.93585e-180
4.11695e-181
5.19809e-183
2.76401e-184
-4.29078e-186
-1.29913e-186
-3.31201e-188
-3.75125e-189
-4.22227e-191
-1.29717e-192
8.29225e-194
3.75011e-196
1.51141e-194
53.1745
1.81764
-53.965
51.4173
1.72508
52.443
1.71433
55.4232
1.82357
39.8067
1.34145
12.3798
0.395561
0.690501
0.0207795
-0.00281223
-8.65274e-05
-9.37965e-05
-2.67706e-06
9.01127e-07
2.5794e-08
6.22548e-09
1.64116e-10
-1.28705e-10
-3.45284e-12
2.76328e-14
1.55361e-15
8.05849e-15
2.00871e-16
-2.28307e-17
-5.96241e-19
-3.95308e-19
-9.03075e-21
-2.64429e-21
-5.67179e-23
-1.27597e-23
-2.56844e-25
-5.08416e-26
-9.61307e-28
-1.77403e-28
-3.14137e-30
-5.59422e-31
-9.25551e-33
-1.62176e-33
-2.49722e-35
-4.37876e-36
-6.25164e-38
-1.10903e-38
-1.46112e-40
-2.65085e-41
-3.20642e-43
-6.00004e-44
-6.62361e-46
-1.28945e-46
-1.29052e-48
-2.63463e-49
-2.3722e-51
-5.12146e-52
-4.11192e-54
-9.4701e-55
-6.70964e-57
-1.66434e-57
-1.02778e-59
-2.77566e-60
-1.47163e-62
-4.3821e-63
-1.95782e-65
-6.52709e-66
-2.3991e-68
-9.12985e-69
-2.67365e-71
-1.19167e-71
-2.65691e-74
-1.43861e-74
-2.27657e-77
-1.58584e-77
-1.57201e-80
-1.56507e-80
-7.21784e-84
-1.33723e-83
0
-9.24663e-87
3.48045e-90
-4.27013e-90
2.59638e-93
3.80867e-96
-7.0832e-97
2.13194e-96
-2.96544e-99
1.66275e-99
-1.84042e-102
-3.4571e-103
1.54448e-105
-1.79756e-105
3.24551e-108
-1.0953e-108
6.23622e-112
1.228e-111
-3.67871e-114
2.48466e-114
-3.49666e-117
3.65381e-118
2.78134e-120
-3.61232e-120
6.99896e-123
-3.92603e-123
5.67977e-128
2.9575e-126
-1.08843e-128
1.05958e-128
-4.64599e-132
4.43845e-132
1.75468e-134
-1.88676e-134
9.88112e-138
-3.06211e-137
-4.70358e-140
1.2325e-140
-3.56892e-143
9.30995e-143
1.77172e-145
7.79252e-146
2.82306e-148
-1.65551e-148
-5.03413e-151
-4.40929e-151
-1.80761e-153
-8.11334e-155
-3.35051e-158
1.28634e-156
7.93359e-159
2.10127e-159
1.12747e-161
-1.29059e-162
-1.90581e-164
-9.39385e-165
-8.00579e-167
-1.00445e-167
-3.82285e-170
1.92612e-170
3.1056e-172
7.1281e-173
6.96311e-175
4.41877e-176
-2.99897e-178
-2.18268e-178
-3.90076e-180
-5.78475e-181
-5.46378e-183
-9.98204e-185
9.52914e-186
2.40607e-186
4.51431e-188
4.99362e-189
3.60549e-191
-1.68455e-192
-1.64023e-193
-5.03357e-196
-2.69676e-194
50.2338
2.0255
-52.0216
50.5471
1.99482
54.182
2.13842
41.9741
1.68656
14.9747
0.576771
1.12501
0.041023
-0.00213649
-8.31828e-05
-0.000208257
-7.24108e-06
1.49003e-06
5.21351e-08
2.26735e-08
7.41888e-10
-3.30842e-10
-1.0864e-11
-9.10586e-13
-2.6091e-14
3.78077e-14
1.16114e-15
-7.2006e-17
-2.42403e-18
-1.95455e-18
-5.54018e-20
7.77262e-21
2.27168e-22
1.20915e-22
3.151e-24
8.76961e-25
2.14791e-26
4.47993e-27
1.0289e-28
1.90355e-29
4.10508e-31
7.02802e-32
1.41823e-33
2.33816e-34
4.40446e-36
7.11869e-37
1.24671e-38
2.01064e-39
3.26059e-41
5.30694e-42
7.9295e-44
1.31692e-44
1.80315e-46
3.0834e-47
3.84436e-49
6.82941e-50
7.69773e-52
1.43287e-52
1.44783e-54
2.84925e-55
2.55558e-57
5.36798e-58
4.22377e-60
9.57099e-61
6.51255e-63
1.61173e-63
9.31599e-66
2.55567e-66
1.22628e-68
3.79954e-69
1.46737e-71
5.26468e-72
1.56601e-74
6.74172e-75
1.44252e-77
7.88164e-78
1.07316e-80
8.25579e-81
5.33071e-84
7.50712e-84
0
5.56767e-87
-3.11533e-90
2.84299e-90
-2.77791e-93
2.04948e-94
1.71956e-97
-1.33569e-96
2.89392e-99
-1.22696e-99
2.51428e-102
9.45918e-104
-1.02631e-105
1.26659e-105
-3.98998e-108
9.5327e-109
-2.04142e-111
-7.81706e-112
4.01883e-114
-2.00672e-114
6.54001e-117
-5.68068e-118
-1.06795e-120
2.84687e-120
-1.22021e-122
3.66093e-123
-8.38536e-126
-2.05542e-126
1.58599e-128
-9.60866e-129
2.96548e-131
-5.14627e-132
-6.64058e-135
1.70794e-134
-6.49093e-137
3.09991e-137
-3.78286e-140
-9.76823e-141
9.9697e-143
-9.51993e-143
1.31963e-145
-8.53628e-146
-1.22476e-148
1.76277e-148
-2.17274e-151
4.86504e-151
4.73097e-154
7.67839e-155
5.26237e-157
-1.50794e-156
-3.31189e-159
-2.38322e-159
-6.49815e-162
1.89995e-162
1.22395e-164
1.15988e-164
5.57768e-167
1.0683e-167
1.72833e-170
-2.84112e-170
-2.79562e-172
-8.93255e-173
-5.58906e-175
-3.15653e-176
5.56397e-178
3.2601e-178
3.9781e-180
7.07433e-181
4.07367e-183
-1.94439e-184
-1.40724e-185
-3.58057e-186
-4.78866e-188
-5.70578e-189
-1.31446e-191
6.26728e-192
2.35505e-193
5.22834e-196
3.93447e-194
48.7564
2.27655
-48.9688
52.7828
2.45946
43.3314
2.03083
17.113
0.773636
1.59748
0.068972
0.000376217
5.36467e-06
-0.000380123
-1.5719e-05
1.96738e-06
8.24713e-08
5.8458e-08
2.29383e-09
-6.54114e-10
-2.56996e-11
-4.84962e-12
-1.7636e-13
1.13484e-13
4.18754e-15
-7.60123e-18
-1.29866e-18
-1.06844e-17
-3.67063e-19
3.64814e-20
1.30946e-21
4.71582e-22
1.48342e-23
-2.57664e-24
-8.2964e-26
-3.92446e-26
-1.14157e-27
-2.97746e-28
-8.13037e-30
-1.6009e-30
-4.09664e-32
-7.15329e-33
-1.71617e-34
-2.77108e-35
-6.21208e-37
-9.63856e-38
-2.01315e-39
-3.05869e-40
-5.92738e-42
-8.97246e-43
-1.60605e-44
-2.4516e-45
-4.03191e-47
-6.27607e-48
-9.42654e-50
-1.51083e-50
-2.05803e-52
-3.42842e-53
-4.20133e-55
-7.343e-56
-8.01817e-58
-1.48487e-58
-1.42838e-60
-2.83318e-61
-2.36771e-63
-5.09269e-64
-3.63365e-66
-8.60148e-67
-5.12328e-69
-1.35974e-69
-6.55937e-72
-2.00067e-72
-7.48562e-75
-2.71816e-75
-7.37383e-78
-3.37066e-78
-5.87211e-81
-3.74771e-81
-3.12977e-84
-3.62679e-84
0
-2.88385e-87
2.1552e-90
-1.62224e-90
2.19837e-93
-2.34369e-94
2.03638e-97
7.08056e-97
-2.10503e-99
7.70619e-100
-2.32456e-102
3.97691e-104
3.55375e-106
-7.55683e-106
3.43335e-108
-6.98744e-109
2.62037e-111
3.93529e-112
-3.01661e-114
1.38006e-114
-7.14685e-117
6.04349e-118
-1.05163e-120
-1.88508e-120
1.26824e-122
-2.92654e-123
1.38071e-125
1.05063e-126
-1.38882e-128
7.45053e-129
-4.35395e-131
5.12692e-132
-1.01167e-134
-1.29802e-134
9.26697e-137
-2.7303e-137
1.16313e-139
5.00029e-141
-1.10632e-142
8.36761e-143
-4.01183e-145
8.43283e-146
-1.39195e-148
-1.56709e-148
8.31395e-151
-4.70778e-151
1.1789e-153
-8.93275e-155
-5.93484e-157
1.51619e-156
-2.66846e-159
2.43021e-159
-1.51804e-162
-2.15088e-162
-1.94623e-165
-1.24932e-164
-1.05206e-167
-1.047e-167
1.60431e-170
3.445e-170
1.62736e-172
9.88313e-173
2.21365e-175
1.43758e-176
-7.24439e-178
-4.09587e-178
-2.90382e-180
-7.65774e-181
-1.03557e-183
5.39652e-184
1.58965e-185
4.53746e-186
3.70107e-188
5.64649e-189
-2.27044e-191
-1.1537e-191
-2.62405e-193
-3.82551e-196
-4.91636e-194
51.585
2.80809
-46.9721
44.1177
2.36472
18.6061
0.9644
1.99307
0.10004
0.00379227
0.000174784
-0.000590037
-2.84898e-05
2.10738e-06
1.04255e-07
1.19715e-07
5.51553e-09
-1.07077e-09
-4.94497e-11
-1.51277e-11
-6.56062e-13
2.59875e-13
1.13053e-14
7.58909e-16
2.90045e-17
-3.69584e-17
-1.50641e-18
8.7063e-20
3.80952e-21
2.93005e-21
1.10455e-22
-1.43413e-23
-5.56832e-25
-1.13815e-25
-3.89574e-27
8.73088e-28
3.05232e-29
1.33154e-29
4.24661e-31
1.03743e-31
3.09976e-33
5.82593e-34
1.62964e-35
2.71152e-36
7.09564e-38
1.09379e-38
2.66895e-40
3.94901e-41
8.95415e-43
1.2976e-43
2.72193e-45
3.9289e-46
7.58643e-48
1.10477e-48
1.95219e-50
2.9012e-51
4.65991e-53
7.14096e-54
1.03437e-55
1.65117e-56
2.13689e-58
3.59041e-59
4.10534e-61
7.34199e-62
7.31647e-64
1.41042e-64
1.20417e-66
2.53989e-67
1.81714e-69
4.2727e-70
2.48619e-72
6.68006e-73
3.02892e-75
9.63402e-76
3.1839e-78
1.26771e-78
2.70662e-81
1.49662e-81
1.54249e-84
1.54157e-84
0
1.31371e-87
-1.23644e-90
8.11249e-91
-1.41571e-93
1.75629e-94
-3.21081e-97
-3.23406e-97
1.23585e-99
-4.20993e-100
1.69044e-102
-7.5491e-104
8.66223e-107
3.89216e-106
-2.33524e-108
4.40934e-109
-2.38041e-111
-1.49905e-112
1.67472e-114
-8.24101e-115
5.91098e-117
-5.02503e-118
2.37103e-120
1.06815e-120
-9.92771e-123
2.03556e-123
-1.47783e-125
-3.25347e-127
8.30199e-129
-5.03396e-129
4.38183e-131
-4.36923e-132
2.36982e-134
8.4715e-135
-8.95133e-137
2.11534e-137
-1.58794e-139
-7.23042e-142
7.55212e-143
-6.44935e-143
5.35616e-145
-7.42296e-146
3.94946e-148
1.20296e-148
-1.11215e-150
4.04113e-151
-2.53008e-153
1.00719e-154
1.32357e-157
-1.34084e-156
7.70767e-159
-2.22807e-159
1.02429e-161
2.06028e-162
-7.16507e-165
1.1937e-164
-4.05123e-167
9.37393e-168
-5.51668e-170
-3.61425e-170
-4.91384e-175
-9.7555e-173
2.25656e-175
3.46215e-177
7.65571e-178
4.48622e-178
9.09247e-181
7.38069e-181
-2.90356e-183
-8.5212e-184
-1.3939e-185
-5.03229e-186
-1.36618e-188
-4.79148e-189
6.10534e-191
1.62281e-191
2.23032e-193
9.50289e-197
5.37554e-194
44.4943
2.66656
-51.2399
19.1508
1.11915
2.14965
0.123727
0.00499563
0.000275032
-0.00078118
-4.34e-05
2.02326e-06
1.15734e-07
2.02676e-07
1.07931e-08
-1.51874e-09
-8.11592e-11
-3.51913e-11
-1.77827e-12
4.92787e-13
2.48937e-14
3.39157e-15
1.58712e-16
-9.65325e-17
-4.59065e-18
2.59873e-20
2.33976e-21
1.15428e-20
5.12022e-22
-5.19396e-23
-2.36878e-24
-7.82534e-25
-3.18206e-26
5.06486e-27
2.11565e-28
2.73883e-29
1.00297e-30
-3.0941e-31
-1.1601e-32
-4.68377e-33
-1.61306e-34
-3.71314e-35
-1.19553e-36
-2.15995e-37
-6.49999e-39
-1.0396e-39
-2.91911e-41
-4.33716e-42
-1.13247e-43
-1.61544e-44
-3.90666e-46
-5.46415e-47
-1.2179e-48
-1.69832e-49
-3.46921e-51
-4.88838e-52
-9.09135e-54
-1.31004e-54
-2.20111e-56
-3.28005e-57
-4.9335e-59
-7.6882e-60
-1.02386e-61
-1.68828e-62
-1.96402e-64
-3.47177e-65
-3.46898e-67
-6.67485e-68
-5.60438e-70
-1.19624e-70
-8.1937e-73
-1.98909e-73
-1.06525e-75
-3.04744e-76
-1.19399e-78
-4.25776e-79
-1.0823e-81
-5.33953e-82
-6.58431e-85
-5.85516e-85
0
-5.34554e-88
6.10489e-91
-3.61183e-91
7.76217e-94
-1.04176e-94
2.72921e-97
1.28498e-97
-6.07073e-100
2.03159e-100
-1.02613e-102
6.25271e-104
-2.41229e-106
-1.75149e-106
1.3193e-108
-2.43614e-109
1.7282e-111
3.42189e-113
-6.61162e-115
4.33398e-115
-4.00652e-117
3.46703e-118
-2.58598e-120
-5.23372e-121
6.2874e-123
-1.24798e-123
1.23553e-125
-3.9724e-128
-2.96772e-129
3.00745e-129
-3.50554e-131
3.22052e-132
-2.88205e-134
-4.82616e-135
6.78821e-137
-1.45681e-137
1.58956e-139
-1.68892e-141
-2.62442e-143
4.4291e-143
-5.26619e-145
5.80953e-146
-5.43905e-148
-8.18457e-149
1.06406e-150
-3.10735e-151
3.18288e-153
-9.76029e-155
5.36749e-157
1.06256e-156
-1.03878e-158
1.8372e-159
-1.6698e-161
-1.7578e-162
1.25664e-164
-1.02384e-164
8.08424e-167
-7.55013e-168
8.72775e-170
3.37647e-170
-1.54744e-172
8.64188e-173
-6.40361e-175
-1.88083e-176
-6.66607e-178
-4.37117e-178
1.3973e-180
-6.32685e-181
6.5142e-183
1.06272e-183
8.53036e-186
4.95689e-186
-1.55645e-188
3.34701e-189
-8.88302e-191
-1.92112e-191
-1.21277e-193
2.60064e-196
-5.19318e-194
18.2897
1.20726
-43.7535
1.97924
0.129467
0.00244884
0.00015783
-0.000863784
-5.4606e-05
2.37444e-06
1.51189e-07
2.83409e-07
1.72304e-08
-1.9769e-09
-1.20246e-10
-6.50961e-11
-3.77604e-12
8.08898e-13
4.68162e-14
9.38945e-15
5.12136e-16
-2.06882e-16
-1.13263e-17
-4.98135e-19
-2.35168e-20
3.40942e-20
1.75192e-21
-1.01011e-22
-5.47569e-24
-3.46749e-24
-1.65144e-25
2.34322e-26
1.1334e-27
2.03261e-28
8.7699e-30
-1.69468e-30
-7.5507e-32
-6.44995e-33
-2.48488e-34
1.15025e-34
4.57754e-36
1.70003e-36
6.24031e-38
1.3642e-38
4.67149e-40
8.15688e-41
2.60472e-42
4.03573e-43
1.19879e-44
1.73088e-45
4.76478e-47
6.61509e-48
1.67983e-49
2.29117e-50
5.33773e-52
7.27349e-53
1.54458e-54
2.1325e-55
4.09664e-57
5.80369e-58
9.99532e-60
1.47088e-60
2.2465e-62
3.47722e-63
4.64742e-65
7.6702e-66
8.82193e-68
1.57711e-68
1.52743e-70
3.01535e-71
2.38788e-73
5.33874e-74
3.31396e-76
8.69738e-77
3.96089e-79
1.2912e-79
3.82722e-82
1.72099e-82
2.48379e-85
2.00955e-85
0
1.96467e-88
-2.65375e-91
1.44794e-91
-3.71959e-94
5.21995e-95
-1.7544e-97
-4.44935e-98
2.53634e-100
-8.75745e-101
5.3656e-103
-3.84318e-104
2.20671e-106
6.93174e-107
-6.34577e-109
1.19365e-109
-1.05555e-111
5.10549e-114
1.28036e-115
-2.02888e-115
2.31169e-117
-2.05254e-118
2.07676e-120
2.22719e-121
-3.32135e-123
6.81925e-124
-8.61203e-126
1.46488e-127
-2.26567e-130
-1.60844e-129
2.36109e-131
-2.08079e-132
2.60781e-134
2.43402e-135
-4.27661e-137
9.00644e-138
-1.30079e-139
2.31351e-141
-1.03025e-143
-2.74828e-143
4.26513e-145
-4.05572e-146
5.54372e-148
5.05783e-149
-8.32726e-151
2.15926e-151
-3.11347e-153
7.92928e-155
-1.01409e-156
-7.65941e-157
1.06103e-158
-1.36413e-159
1.91517e-161
1.38313e-162
-1.43612e-164
7.95408e-165
-1.00815e-166
5.36627e-168
-1.00949e-169
-2.86091e-170
2.64314e-172
-6.89241e-173
9.01851e-175
2.95445e-176
4.42068e-178
3.83647e-178
-3.34139e-180
4.78543e-181
-8.66801e-183
-1.13705e-183
-1.16758e-186
-4.37142e-186
4.17648e-188
-1.67453e-189
9.63547e-191
1.98967e-191
-1.46773e-194
-5.71138e-196
4.44134e-194
1.73348
0.128284
-16.5358
0.000441734
3.33974e-05
-0.000810442
-5.78329e-05
3.27223e-06
2.30276e-07
3.20909e-07
2.20652e-08
-2.49831e-09
-1.70341e-10
-9.58988e-11
-6.31556e-12
1.18539e-12
7.7594e-14
1.92444e-14
1.2013e-15
-3.78925e-16
-2.36049e-17
-2.03749e-18
-1.17018e-19
8.16365e-20
4.79967e-21
-8.01003e-23
-5.77447e-24
-1.15361e-23
-6.33618e-25
6.43226e-26
3.6021e-27
9.96247e-28
5.02663e-29
-9.42133e-30
-4.81919e-31
-5.10888e-32
-2.29712e-33
5.52211e-34
2.60163e-35
1.40295e-36
5.55199e-38
-4.45282e-38
-1.86353e-39
-6.34739e-40
-2.45501e-41
-5.13572e-42
-1.84872e-43
-3.13554e-44
-1.04951e-45
-1.58636e-46
-4.92162e-48
-6.95738e-49
-1.99214e-50
-2.71496e-51
-7.13692e-53
-9.58264e-54
-2.29813e-55
-3.09261e-56
-6.71609e-58
-9.19267e-59
-1.79172e-60
-2.52872e-61
-4.37627e-63
-6.45557e-64
-9.78991e-66
-1.53133e-66
-2.00143e-68
-3.37434e-69
-3.71976e-71
-6.89458e-72
-6.2257e-74
-1.30161e-74
-9.23125e-77
-2.25731e-77
-1.17714e-79
-3.564e-80
-1.21269e-82
-5.05182e-83
-8.3941e-86
-6.28288e-86
0
-6.57489e-89
1.03091e-91
-5.26963e-92
1.58407e-94
-2.28094e-95
9.33374e-98
1.33221e-98
-9.03676e-101
3.39976e-101
-2.46362e-103
1.95264e-104
-1.44533e-106
-2.41696e-107
2.63031e-109
-5.2378e-110
5.57857e-112
-1.1253e-113
5.99188e-116
8.52713e-116
-1.16104e-117
1.06488e-118
-1.35983e-120
-8.22046e-122
1.48161e-123
-3.35291e-124
5.17666e-126
-1.30085e-127
1.35103e-129
7.78844e-130
-1.3822e-131
1.19269e-132
-1.93053e-134
-1.10405e-135
2.31176e-137
-5.04436e-138
9.12239e-140
-1.91634e-141
2.55529e-143
1.5608e-143
-2.99204e-145
2.53838e-146
-4.62123e-148
-2.91212e-149
5.69089e-151
-1.36661e-151
2.56706e-153
-5.38399e-155
1.11567e-156
5.08437e-157
-9.15861e-159
9.13189e-160
-1.77631e-161
-1.02732e-162
1.39023e-164
-5.63495e-165
1.00126e-166
-3.26943e-168
9.31854e-170
2.22499e-170
-3.13803e-172
4.95242e-173
-9.62538e-175
-3.46687e-176
-1.41802e-178
-3.0565e-178
4.4724e-180
-3.13271e-181
8.86704e-183
1.07951e-183
-6.14641e-186
3.46236e-186
-5.78657e-188
1.56852e-190
-8.18723e-191
-1.83746e-191
1.45582e-193
7.47086e-196
-3.34157e-194
0.00635534
0.000547917
-1.5584
-0.000745298
-5.99004e-05
3.6187e-06
2.8562e-07
3.10071e-07
2.39324e-08
-2.94905e-09
-2.24287e-10
-1.11309e-10
-8.25188e-12
1.56522e-12
1.1466e-13
2.99085e-14
2.1128e-15
-6.02858e-16
-4.22759e-17
-4.88903e-18
-3.23382e-19
1.64337e-19
1.0939e-20
1.7717e-22
8.76146e-24
-3.07045e-23
-1.92163e-24
1.22797e-25
7.96158e-27
3.73407e-27
2.16917e-28
-3.15633e-29
-1.85182e-30
-2.68947e-31
-1.41577e-32
3.56487e-33
1.91595e-34
1.23221e-35
5.64038e-37
-1.77936e-37
-8.79285e-39
-2.26598e-40
-8.50935e-42
1.77929e-41
7.76288e-43
2.43224e-43
9.81009e-45
1.97698e-45
7.40138e-47
1.22564e-47
4.25159e-49
6.3106e-50
2.02058e-51
2.81665e-52
8.28302e-54
1.11717e-54
2.99896e-56
4.00016e-57
9.73083e-59
1.30652e-59
2.85493e-61
3.91938e-62
7.61184e-64
1.08459e-64
1.84777e-66
2.77516e-67
4.07956e-69
6.56979e-70
8.15645e-72
1.43746e-72
1.46396e-74
2.89839e-75
2.32214e-77
5.3579e-78
3.16205e-80
9.00562e-81
3.47499e-83
1.35843e-83
2.56581e-86
1.79986e-86
0
2.01499e-89
-3.61567e-92
1.75117e-92
-6.06273e-95
8.851e-96
-4.27667e-98
-3.36531e-99
2.70912e-101
-1.19577e-101
1.00583e-103
-8.56081e-105
7.70266e-107
7.40048e-108
-9.42736e-110
2.07417e-110
-2.59672e-112
7.85695e-114
-8.22214e-116
-3.24195e-116
5.15405e-118
-4.91136e-119
7.58998e-121
2.61178e-122
-5.58171e-124
1.4961e-124
-2.74146e-126
8.20745e-128
-1.29461e-129
-3.45377e-130
7.19252e-132
-6.12547e-133
1.22074e-134
4.60605e-136
-1.10224e-137
2.58108e-138
-5.63479e-140
1.2278e-141
-2.48535e-143
-8.21105e-144
1.87534e-145
-1.43116e-146
3.28957e-148
1.60231e-149
-3.56887e-151
7.92932e-152
-1.85242e-153
3.01812e-155
-9.10282e-157
-3.1375e-157
7.00654e-159
-5.51025e-160
1.3998e-161
7.28537e-163
-1.23978e-164
3.65597e-165
-8.50172e-167
1.60364e-168
-7.01045e-170
-1.59947e-170
3.09137e-172
-3.19618e-173
8.52561e-175
3.43882e-176
-1.57681e-178
2.21886e-178
-4.68351e-180
1.69306e-181
-7.38545e-183
-9.24009e-184
1.16476e-185
-2.45832e-186
6.12465e-188
9.30863e-190
5.18558e-191
1.52749e-191
-2.3777e-193
-7.54478e-196
2.16826e-194
-0.000337914
-3.01369e-05
-0.00948098
-3.83095e-07
-4.7088e-08
3.04505e-07
2.64094e-08
-3.09979e-09
-2.63529e-10
-1.11618e-10
-9.24649e-12
1.83596e-12
1.49839e-13
3.56001e-14
2.82158e-15
-8.28304e-16
-6.48443e-17
-8.10071e-18
-6.0675e-19
2.80043e-19
2.09103e-20
7.87792e-22
5.2583e-23
-6.74346e-23
-4.76165e-24
1.68219e-25
1.27248e-26
1.10466e-26
7.29609e-28
-7.81827e-29
-5.22897e-30
-1.14188e-30
-6.93567e-32
1.38424e-32
8.49152e-34
6.54113e-35
3.50921e-36
-1.30343e-36
-7.3072e-38
-2.81345e-39
-1.26217e-40
5.70474e-41
2.93553e-42
-1.58875e-44
-1.3628e-45
-7.29203e-45
-3.28877e-46
-9.54601e-47
-3.97658e-48
-7.76584e-49
-2.99316e-50
-4.86534e-51
-1.73036e-52
-2.53806e-53
-8.29108e-55
-1.14776e-55
-3.4238e-57
-4.60693e-58
-1.24597e-59
-1.66612e-60
-4.05029e-62
-5.48285e-63
-1.18551e-64
-1.65227e-65
-3.13661e-67
-4.57706e-68
-7.50462e-70
-1.16756e-70
-1.6185e-72
-2.7421e-73
-3.12192e-75
-5.91646e-76
-5.30617e-78
-1.16755e-78
-7.72493e-81
-2.09146e-81
-9.06317e-84
-3.3596e-84
-7.14072e-87
-4.74311e-87
0
-5.67706e-90
1.15287e-92
-5.33432e-93
2.101e-95
-3.08379e-96
1.72412e-98
6.69828e-100
-6.53097e-102
3.82737e-102
-3.68322e-104
3.31019e-105
-3.50578e-107
-1.97022e-108
2.90737e-110
-7.45829e-111
1.07773e-112
-3.99521e-114
5.52506e-116
1.12363e-116
-2.04708e-118
2.03449e-119
-3.70152e-121
-7.03809e-123
1.75463e-124
-6.10625e-125
1.29923e-126
-4.22081e-128
8.58094e-130
1.41977e-130
-3.39079e-132
2.84104e-133
-6.7577e-135
-1.82862e-136
4.80122e-138
-1.21553e-138
3.12332e-140
-6.48401e-142
1.73934e-143
4.04433e-144
-1.07424e-145
7.29159e-147
-2.04651e-148
-8.5963e-150
2.14259e-151
-4.23737e-152
1.1953e-153
-1.3284e-155
5.81605e-157
1.81089e-157
-4.87458e-159
2.98617e-160
-9.58082e-162
-4.93452e-163
1.04527e-164
-2.17548e-165
6.36329e-167
-5.07952e-169
4.21012e-170
1.06572e-170
-2.67054e-172
1.83562e-173
-6.46805e-175
-2.99911e-176
3.81904e-178
-1.46768e-178
4.15681e-180
-6.4923e-182
5.00712e-183
7.1823e-184
-1.4352e-185
1.55064e-186
-5.3823e-188
-1.48813e-189
-1.73058e-191
-1.14669e-191
2.74628e-193
6.21972e-196
-1.1507e-194
-1.61816e-06
-1.71123e-07
-8.85634e-06
1.44001e-07
1.38559e-08
-7.57276e-10
-6.55716e-11
-1.19655e-10
-1.11371e-11
1.97649e-12
1.79792e-13
3.71446e-14
3.27752e-15
-9.94418e-16
-8.65307e-17
-9.83607e-18
-8.251e-19
4.00284e-19
3.32904e-20
1.48292e-21
1.14406e-22
-1.22296e-22
-9.66237e-24
1.74583e-25
1.55755e-26
2.63931e-26
1.96275e-27
-1.56941e-28
-1.18707e-29
-3.7764e-30
-2.60864e-31
4.03364e-32
2.80438e-33
3.1958e-34
1.99858e-35
-5.69704e-36
-3.63515e-37
-1.26737e-38
-6.4996e-40
4.67884e-40
2.71602e-41
5.93492e-43
2.40074e-44
-1.81411e-44
-9.6593e-46
4.45934e-47
2.3855e-48
3.05308e-48
1.41167e-49
3.82973e-50
1.63254e-51
3.10649e-52
1.22055e-53
1.95829e-54
7.06539e-56
1.0306e-56
3.39569e-58
4.70192e-59
1.40503e-60
1.90169e-61
5.11015e-63
6.91609e-64
1.65395e-65
2.28261e-66
4.79592e-68
6.87635e-69
1.24883e-70
1.89676e-71
2.915e-73
4.79503e-74
6.05845e-76
1.10954e-76
1.10558e-78
2.34137e-79
1.72337e-81
4.47528e-82
2.16068e-84
7.66105e-85
1.81737e-87
1.15265e-87
0
1.47383e-90
-3.35706e-93
1.49286e-93
-6.62418e-96
9.71127e-97
-6.19221e-99
-8.00966e-101
1.08222e-102
-1.11867e-102
1.21726e-104
-1.14297e-105
1.39581e-107
4.46785e-109
-7.5923e-111
2.44807e-111
-4.025e-113
1.67486e-114
-2.80618e-116
-3.58301e-117
7.36131e-119
-7.62707e-120
1.60221e-121
1.57807e-123
-4.47763e-125
2.29663e-125