/*--------------------------------*- C++ -*----------------------------------*\
| =========                 |                                                 |
| \\      /  F ield         | OpenFOAM: The Open Source CFD Toolbox           |
|  \\    /   O peration     | Version:  2312                                  |
|   \\  /    A nd           | Website:  www.openfoam.com                      |
|    \\/     M anipulation  |                                                 |
\*---------------------------------------------------------------------------*/
FoamFile
{
    version     2.0;
    format      ascii;
    arch        "LSB;label=32;scalar=64";
    class       surfaceScalarField;
    location    "0.14";
    object      phi;
}
// * * * * * * * * * * * * * * * * * * * * * * * * * * * * * * * * * * * * * //

dimensions      [0 3 -1 0 0 0 0];

oriented        oriented;

internalField   nonuniform List<scalar> 
62015
(
64.8305
0.126393
-65.7625
63.8788
0.122243
62.9064
0.118062
61.9116
0.113854
60.8926
0.109621
59.8473
0.105367
58.7733
0.101094
57.6679
0.0968052
56.528
0.0925041
55.3501
0.088193
54.13
0.0838749
52.8629
0.0795526
51.5434
0.0752287
50.165
0.070906
48.7208
0.0665875
47.2028
0.0622766
45.6036
0.0579785
43.9179
0.0537013
42.1485
0.0494612
40.315
0.0452896
38.4614
0.0412393
36.6577
0.0373823
34.9861
0.0337954
33.52
0.0305362
32.3048
0.0276249
31.3519
0.0250425
30.6449
0.022742
30.1513
0.0206647
29.8343
0.0187531
29.6587
0.0169573
29.5946
0.0152373
29.6181
0.0135628
29.7104
0.011911
29.8569
0.0102647
30.0466
0.00861187
30.2711
0.00694296
30.5238
0.00525165
30.7997
0.003533
31.0947
0.00178318
31.4058
0
31.7305
-0.00181848
32.0667
-0.00367363
32.4129
-0.00556579
32.7678
-0.00749562
33.1302
-0.00946324
33.4993
-0.0114681
33.8743
-0.0135103
34.2547
-0.0155888
34.6399
-0.0177034
35.0295
-0.0198531
35.4231
-0.022037
35.8205
-0.024254
36.2213
-0.0265032
36.6254
-0.0287836
37.0326
-0.0310936
37.4427
-0.0334323
37.8557
-0.0357982
38.2713
-0.03819
38.6895
-0.0406065
39.1102
-0.043046
39.5333
-0.0455072
39.9589
-0.0479887
40.3867
-0.0504887
40.8169
-0.0530057
41.2494
-0.0555385
41.684
-0.0580852
42.1209
-0.0606443
42.56
-0.063214
43.0012
-0.0657928
43.4446
-0.0683791
43.8902
-0.0709711
44.3379
-0.0735669
44.7875
-0.0761656
45.2399
-0.0787637
45.6924
-0.0813642
46.153
-0.0839514
46.5974
-0.0865664
47.1
-0.0890744
-0.0918897
47.4327
62.0429
0.245569
-62.9463
61.12
0.237456
60.1769
0.229285
59.2119
0.22106
58.2231
0.212787
57.2086
0.204472
56.1659
0.196122
55.0923
0.187741
53.9847
0.179334
52.8396
0.170909
51.6529
0.162469
50.4199
0.15402
49.1351
0.145568
47.7924
0.137118
46.385
0.128677
44.9058
0.120252
43.349
0.111857
41.7129
0.103514
40.0063
0.0952673
38.2567
0.0871949
36.5149
0.0794149
34.8513
0.0720718
33.3396
0.0652988
32.038
0.0591775
30.9761
0.0537156
30.154
0.0488543
29.5506
0.0444941
29.1345
0.0405242
28.8719
0.0368399
28.7322
0.0333539
28.6898
0.0299962
28.7242
0.0267139
28.8191
0.0234668
28.9623
0.0202258
29.1441
0.0169684
29.3573
0.0136787
29.5961
0.0103446
29.856
0.00695743
30.1335
0.0035108
30.4259
0
30.7309
-0.00357821
31.0468
-0.00722598
31.372
-0.0109447
31.7054
-0.014735
32.0459
-0.0185969
32.3928
-0.0225301
32.7455
-0.0265336
33.1032
-0.0306069
33.4656
-0.0347483
33.8323
-0.0389564
34.2029
-0.0432293
34.5771
-0.0475654
34.9548
-0.0519624
35.3356
-0.0564184
35.7195
-0.0609307
36.1062
-0.0654972
36.4957
-0.0701154
36.8878
-0.0747826
37.2825
-0.079496
37.6797
-0.0842533
38.0792
-0.0890512
38.4812
-0.0938871
38.8854
-0.0987582
39.2919
-0.103661
39.7006
-0.108593
40.1116
-0.113551
40.5247
-0.118532
40.9399
-0.123533
41.3573
-0.12855
41.7768
-0.13358
42.1984
-0.138621
42.6222
-0.143668
43.0478
-0.14872
43.4761
-0.15377
43.9047
-0.158823
44.3408
-0.16385
44.762
-0.168928
45.2374
-0.173803
-0.179257
45.5562
59.3209
0.357607
-60.1976
58.425
0.345712
57.5092
0.333732
56.572
0.321673
55.6113
0.309545
54.6253
0.297356
53.6115
0.285114
52.5671
0.272827
51.4892
0.260503
50.374
0.24815
49.2177
0.235775
48.0154
0.223387
46.7618
0.210992
45.4512
0.198601
44.0773
0.186224
42.6341
0.173877
41.1183
0.161585
39.5331
0.149397
37.8945
0.1374
36.2381
0.125734
34.6195
0.11459
33.1059
0.104169
31.7593
0.0946314
30.6218
0.0860458
29.7085
0.0783798
29.0107
0.0715223
28.5046
0.0653237
28.1605
0.0596291
27.9486
0.0542997
27.8425
0.0492206
27.8204
0.0443017
27.8651
0.0394742
27.9628
0.0346861
28.1031
0.0298988
28.2778
0.0250832
28.4806
0.0202182
28.7065
0.0152877
28.9516
0.0102798
29.2129
0.00518598
29.4879
0
29.7746
-0.00528257
30.0713
-0.0106647
30.3768
-0.0161482
30.6901
-0.0217337
31.0101
-0.0274214
31.3362
-0.0332108
31.6677
-0.0391007
32.0042
-0.0450897
32.3451
-0.0511757
32.6902
-0.0573568
33.039
-0.0636303
33.3915
-0.0699935
33.7472
-0.0764434
34.106
-0.0829769
34.4678
-0.0895906
34.8325
-0.0962812
35.1998
-0.103045
35.5697
-0.109878
35.9422
-0.116777
36.317
-0.123738
36.6943
-0.130756
37.0739
-0.137827
37.4557
-0.144948
37.8398
-0.152114
38.226
-0.15932
38.6145
-0.166563
39.0051
-0.173837
39.3978
-0.181138
39.7925
-0.188461
40.1894
-0.195803
40.5884
-0.203158
40.9894
-0.21052
41.3923
-0.217888
41.7977
-0.225252
42.2035
-0.232618
42.6165
-0.239946
43.0156
-0.247345
43.4652
-0.254454
-0.262382
43.7695
56.6867
0.462719
-57.5381
55.8164
0.447214
54.9266
0.431599
54.0155
0.415882
53.0814
0.400076
52.1221
0.384189
51.1353
0.368233
50.1183
0.352218
49.0678
0.336154
47.9805
0.32005
46.8522
0.303918
45.6782
0.287766
44.4537
0.271607
43.1729
0.255454
41.8305
0.239323
40.4225
0.223243
38.9489
0.207263
37.4187
0.19147
35.856
0.176011
34.303
0.161098
32.8166
0.146987
31.4571
0.133911
30.2729
0.122018
29.291
0.111335
28.5146
0.101771
27.9291
0.0931612
27.51
0.0853124
27.2298
0.078037
27.0627
0.0711724
26.9863
0.0645862
26.9823
0.058175
27.0361
0.0518601
27.1362
0.0455814
27.2738
0.0392945
27.4419
0.0329652
27.6351
0.0265688
27.8491
0.0200863
28.0805
0.0135038
28.3267
0.00681085
28.5855
0
28.8551
-0.00693397
29.134
-0.0139946
29.4212
-0.0211838
29.7156
-0.0285025
30.0164
-0.0359512
30.323
-0.0435284
30.6347
-0.0512331
30.9512
-0.0590633
31.272
-0.0670164
31.5967
-0.0750897
31.9251
-0.0832799
32.257
-0.0915833
32.5921
-0.0999965
32.9302
-0.108515
33.2712
-0.117135
33.615
-0.125852
33.9614
-0.134661
34.3104
-0.143557
34.6618
-0.152536
35.0156
-0.161592
35.3718
-0.17072
35.7302
-0.179915
36.0909
-0.189172
36.4538
-0.198484
36.8188
-0.207847
37.1859
-0.217254
37.5552
-0.226699
37.9265
-0.236178
38.2999
-0.245684
38.6753
-0.255211
39.0528
-0.264752
39.4323
-0.274303
39.8136
-0.283857
40.1974
-0.293405
40.5816
-0.302953
40.9725
-0.312452
41.3507
-0.322037
41.7761
-0.331254
-0.341505
42.0658
54.1479
0.561144
-54.975
53.3021
0.542196
52.437
0.523113
51.551
0.503906
50.6421
0.48459
49.7083
0.465175
48.7472
0.445675
47.7559
0.426101
46.7315
0.406466
45.6704
0.386782
44.5685
0.367061
43.4214
0.347317
42.2244
0.327563
40.9724
0.307821
39.6614
0.288118
38.2898
0.268504
36.8623
0.249061
35.3945
0.229933
33.9175
0.211341
32.4776
0.193566
31.1292
0.176903
29.9226
0.161585
28.8927
0.147714
28.0532
0.135253
27.3987
0.124048
26.9114
0.113887
26.5673
0.104542
26.3421
0.0958045
26.2133
0.0874971
26.1621
0.0794777
26.1732
0.0716354
26.2344
0.0638856
26.336
0.0561636
26.4706
0.048421
26.6322
0.0406209
26.8163
0.0327358
27.0191
0.0247448
27.2377
0.0166323
27.4698
0.00838676
27.7134
0
27.967
-0.00853393
28.2293
-0.017219
28.4992
-0.0260573
28.776
-0.0350498
29.0588
-0.0441965
29.347
-0.0534963
29.6402
-0.0629475
29.9379
-0.0725474
30.2398
-0.0822933
30.5454
-0.0921818
30.8546
-0.102209
31.1671
-0.11237
31.4828
-0.122661
31.8014
-0.133077
32.1228
-0.143612
32.4469
-0.154262
32.7736
-0.165021
33.1028
-0.175883
33.4344
-0.186841
33.7683
-0.197891
34.1046
-0.209025
34.443
-0.220237
34.7837
-0.231521
35.1265
-0.24287
35.4714
-0.254277
35.8184
-0.265735
36.1675
-0.277238
36.5186
-0.288778
36.8717
-0.300348
37.2268
-0.31194
37.5839
-0.323549
37.943
-0.335166
38.3038
-0.346785
38.6671
-0.358393
39.0309
-0.37
39.401
-0.381546
39.7593
-0.393191
40.1618
-0.404394
-0.416827
40.437
51.7049
0.653116
-52.5086
50.8827
0.630884
50.0414
0.608493
49.1793
0.585958
48.2946
0.563293
47.3851
0.540512
46.4484
0.517629
45.4818
0.494659
44.4822
0.471616
43.446
0.448513
42.3694
0.425366
41.2482
0.402192
40.0779
0.379011
38.8546
0.355855
37.576
0.332768
36.2441
0.309832
34.8688
0.287181
33.4724
0.265031
32.0911
0.243673
30.7721
0.223444
29.5637
0.204648
28.5049
0.187474
27.6176
0.171958
26.9054
0.157987
26.3574
0.145352
25.9544
0.133801
25.6741
0.123084
25.4951
0.112982
25.3984
0.103309
25.3681
0.0939198
25.3915
0.0847007
25.4583
0.0755638
25.5605
0.0664427
25.6917
0.0572866
25.8469
0.0480568
26.0222
0.0387241
26.2143
0.0292667
26.4208
0.0196679
26.6396
0.00991526
26.8689
0
27.1075
-0.0100842
27.3542
-0.0203414
27.608
-0.0307738
27.8682
-0.0413827
28.1341
-0.0521673
28.4052
-0.0631268
28.6809
-0.0742586
28.961
-0.0855601
29.245
-0.0970279
29.5327
-0.108658
29.8238
-0.120445
30.1181
-0.132385
30.4154
-0.144473
30.7156
-0.156702
31.0186
-0.169067
31.3242
-0.181562
31.6322
-0.19418
31.9428
-0.206914
32.2557
-0.219757
32.5708
-0.232703
32.8882
-0.245744
33.2078
-0.258873
33.5296
-0.272082
33.8534
-0.285363
34.1793
-0.298708
34.5073
-0.31211
34.8372
-0.325561
35.1692
-0.339051
35.5031
-0.352574
35.839
-0.36612
36.1768
-0.379682
36.5165
-0.39325
36.8581
-0.406818
37.2019
-0.42037
37.5462
-0.433919
37.8966
-0.447393
38.2359
-0.460978
38.617
-0.474054
-0.488535
38.8783
49.3553
0.738854
-50.1365
48.5558
0.71349
47.7373
0.687945
46.8983
0.662235
46.0367
0.636375
45.1505
0.610383
44.2372
0.584272
43.2941
0.558061
42.3182
0.531763
41.306
0.505397
40.2537
0.478981
39.1576
0.452538
38.0139
0.426097
36.8201
0.399705
35.5765
0.373438
34.2893
0.34742
32.974
0.321856
31.6585
0.297035
30.382
0.273314
29.1886
0.251051
28.1183
0.230518
27.1986
0.211836
26.4406
0.194955
25.8405
0.179695
25.3843
0.165797
25.0529
0.152985
24.8263
0.140998
24.686
0.12961
24.6159
0.118638
24.6027
0.107935
24.6358
0.0973871
24.7067
0.0869077
24.8085
0.0764287
24.936
0.0658988
25.0848
0.0552791
25.2516
0.044539
25.4336
0.0336562
25.6286
0.0226133
25.8348
0.0113977
26.0508
0
26.2752
-0.0115862
26.5072
-0.0233649
26.7459
-0.0353388
26.9905
-0.0475083
27.2406
-0.0598732
27.4955
-0.0724318
27.7548
-0.0851814
28.0183
-0.0981193
28.2856
-0.111241
28.5563
-0.124542
28.8304
-0.138017
29.1076
-0.151661
29.3877
-0.165468
29.6705
-0.179431
29.9561
-0.193543
30.2442
-0.207799
30.5347
-0.222189
30.8276
-0.236707
31.1228
-0.251346
31.4203
-0.266096
31.7199
-0.28095
32.0217
-0.295899
32.3256
-0.310935
32.6315
-0.32605
32.9394
-0.341233
33.2493
-0.356477
33.5612
-0.371772
33.8751
-0.387109
34.1908
-0.402479
34.5085
-0.417872
34.828
-0.433279
35.1495
-0.44869
35.4727
-0.464097
35.7981
-0.479484
36.124
-0.494862
36.4557
-0.510154
36.7771
-0.525565
37.1377
-0.540407
-0.556807
37.3858
47.0958
0.818561
-47.8553
46.3181
0.790211
45.5216
0.761658
44.7046
0.73292
43.8652
0.704013
43.0012
0.674956
42.1104
0.645766
41.1898
0.61646
40.2366
0.587058
39.2475
0.557579
38.2189
0.528047
37.1477
0.498494
36.0312
0.468965
34.8687
0.439531
33.664
0.410309
32.4279
0.381489
31.1815
0.353349
29.9562
0.326251
28.791
0.300587
27.7245
0.276698
26.7871
0.254791
25.9956
0.234896
25.3529
0.216881
24.8503
0.200506
24.4725
0.185479
24.2016
0.171509
24.0199
0.158332
23.9117
0.145725
23.8635
0.133509
23.8642
0.121541
23.905
0.10971
23.9786
0.0979284
24.0794
0.0861308
24.2028
0.0742657
24.3452
0.062294
24.5038
0.0501854
24.6761
0.0379169
24.8602
0.0254712
25.0546
0.0128353
25.2579
0
25.4691
-0.0130414
25.6873
-0.026293
25.9117
-0.039757
26.1418
-0.0534341
26.3769
-0.0673236
26.6166
-0.0814233
26.8606
-0.0957308
27.1084
-0.110242
27.3599
-0.124953
27.6148
-0.139858
27.8728
-0.154952
28.1338
-0.170228
28.3977
-0.18568
28.6642
-0.2013
28.9334
-0.217083
29.205
-0.233019
29.4789
-0.2491
29.7552
-0.265319
30.0338
-0.281666
30.3145
-0.298133
30.5973
-0.314711
30.8823
-0.33139
31.1692
-0.348162
31.4582
-0.365016
31.7492
-0.381942
32.0421
-0.398932
32.3369
-0.415974
32.6336
-0.433059
32.9321
-0.450176
33.2326
-0.467314
33.5348
-0.484465
33.8389
-0.501615
34.1447
-0.518758
34.4527
-0.535875
34.7612
-0.552978
35.0752
-0.569983
35.3795
-0.587113
35.7208
-0.603618
-0.621818
35.9563
44.9229
0.892429
-45.6616
44.1662
0.861231
43.3907
0.829811
42.5948
0.798185
41.7766
0.766371
40.934
0.734391
40.0646
0.702261
39.1656
0.670004
38.2343
0.63764
37.2676
0.605195
36.2625
0.5727
35.2164
0.540202
34.1284
0.507767
33.0005
0.475507
31.8401
0.443595
30.6629
0.412295
29.4942
0.381962
28.367
0.353005
27.3168
0.325816
26.3749
0.30068
25.5622
0.277713
24.8867
0.256849
24.3453
0.237883
23.9265
0.220529
23.6153
0.204476
23.3952
0.189427
23.2511
0.175126
23.1696
0.161357
23.1393
0.147947
23.1512
0.134758
23.1978
0.121682
23.273
0.108637
23.3721
0.095558
23.4913
0.0823945
23.6275
0.0691078
23.7781
0.0556682
23.9412
0.0420527
24.115
0.0282443
24.2982
0.0142298
24.4896
0
24.6883
-0.0144515
24.8935
-0.0291288
25.1046
-0.0440338
25.3209
-0.0591671
25.542
-0.0745276
25.7674
-0.0901131
25.9969
-0.10592
26.2301
-0.121945
26.4667
-0.138183
26.7066
-0.154628
26.9496
-0.171274
27.1954
-0.188114
27.4439
-0.205141
27.6951
-0.222348
27.9487
-0.239725
28.2048
-0.257266
28.4632
-0.274961
28.7238
-0.2928
28.9866
-0.310775
29.2515
-0.328877
29.5185
-0.347094
29.7875
-0.365418
30.0586
-0.383837
30.3315
-0.402342
30.6064
-0.420921
30.8832
-0.439565
31.1618
-0.458262
31.4423
-0.477
31.7246
-0.49577
32.0088
-0.514559
32.2947
-0.533356
32.5824
-0.55215
32.8717
-0.57093
33.1631
-0.589678
33.4552
-0.608407
33.7524
-0.627026
34.0405
-0.645773
34.3635
-0.663846
-0.683731
34.5871
42.8333
0.960639
-43.5519
42.0965
0.926728
41.3412
0.892572
40.5656
0.858191
39.7677
0.823605
38.9455
0.788835
38.0966
0.753902
37.2185
0.71883
36.3084
0.683645
35.3637
0.64838
34.3821
0.61308
33.3623
0.577812
32.3053
0.542678
31.2163
0.507841
30.107
0.473548
28.9971
0.440138
27.9143
0.408026
26.8904
0.377637
25.9555
0.349319
25.1329
0.323269
24.4348
0.299501
23.8626
0.27786
23.4091
0.258081
23.062
0.239851
22.8069
0.222849
22.6294
0.206787
22.5166
0.191417
22.457
0.176532
22.4415
0.16197
22.4623
0.147598
22.5131
0.133317
22.5891
0.119044
22.6861
0.104719
22.8009
0.090292
22.9309
0.0757263
23.0739
0.0609922
23.2282
0.0460674
23.3922
0.030935
23.5648
0.0155821
23.7451
0
23.932
-0.0158178
24.125
-0.0318752
24.3235
-0.0481739
24.5269
-0.0647139
24.7348
-0.0814943
24.9468
-0.0985121
25.1627
-0.115764
25.3821
-0.133245
25.6048
-0.150951
25.8306
-0.168875
26.0593
-0.18701
26.2908
-0.205349
26.5249
-0.223884
26.7616
-0.242607
27.0007
-0.26151
27.2421
-0.280583
27.4857
-0.299817
27.7316
-0.319202
27.9795
-0.338728
28.2295
-0.358385
28.4816
-0.378162
28.7356
-0.398048
28.9915
-0.418033
29.2493
-0.438105
29.509
-0.458252
29.7706
-0.478463
30.034
-0.498727
30.2991
-0.519031
30.5661
-0.539364
30.8347
-0.559713
31.1052
-0.580066
31.3773
-0.600411
31.6511
-0.620736
31.9269
-0.641023
32.2033
-0.661283
32.4846
-0.681422
32.7575
-0.701691
33.0631
-0.72124
-0.742703
33.2753
40.8235
1.02336
-41.523
40.106
0.986865
39.3699
0.950102
38.6137
0.913093
37.8352
0.875862
37.0326
0.838431
36.2035
0.800826
35.3455
0.763073
34.4563
0.725207
33.5338
0.687274
32.5765
0.649337
31.5849
0.611495
30.5626
0.5739
29.5183
0.536783
28.4676
0.500466
27.4332
0.465357
26.4426
0.431897
25.5243
0.400486
24.702
0.371391
23.9907
0.344704
23.3959
0.320337
22.9142
0.298062
22.5364
0.277573
22.2501
0.258542
22.0422
0.240652
21.9003
0.223627
21.8134
0.207231
21.772
0.191272
21.7683
0.175595
21.7961
0.160078
21.85
0.144624
21.926
0.129159
22.0205
0.113621
22.1309
0.0979654
22.2548
0.0821551
22.3905
0.066162
22.5364
0.0499643
22.6912
0.0335459
22.8538
0.0168939
23.0235
0
23.1994
-0.0171419
23.381
-0.0345354
23.5676
-0.0521818
23.7589
-0.0700813
23.9544
-0.088232
24.1538
-0.106631
24.3568
-0.125275
24.5633
-0.144157
24.7728
-0.163274
24.9854
-0.182618
25.2007
-0.202182
25.4188
-0.221958
25.6393
-0.241938
25.8623
-0.262113
26.0877
-0.282474
26.3152
-0.303011
26.545
-0.323714
26.7769
-0.344573
27.0108
-0.365577
27.2468
-0.386715
27.4847
-0.407976
27.7245
-0.429348
27.9662
-0.450819
28.2097
-0.472378
28.4551
-0.494012
28.7022
-0.51571
28.9512
-0.537458
29.2018
-0.559244
29.4542
-0.581055
29.7083
-0.602879
29.9641
-0.624702
30.2215
-0.64651
30.4806
-0.668294
30.7415
-0.69003
31.0031
-0.711734
31.2694
-0.733304
31.5278
-0.755004
31.8169
-0.775944
-0.798884
32.0185
38.8904
1.08077
-39.5715
38.1913
1.0418
37.4737
1.00255
36.736
0.963035
35.9762
0.923282
35.1924
0.883315
34.3825
0.843166
33.5443
0.802867
32.6759
0.762466
31.7761
0.722025
30.8448
0.68164
29.8845
0.641453
28.9019
0.601682
27.9092
0.56263
26.9248
0.524692
25.9726
0.488317
25.0782
0.453933
24.2648
0.421871
23.5492
0.392296
22.9398
0.365189
22.4367
0.340372
22.0334
0.317565
21.7201
0.296437
21.4851
0.276659
21.3167
0.257927
21.2044
0.239979
21.1389
0.222594
21.1124
0.205595
21.1184
0.188838
21.1515
0.172208
21.2075
0.155616
21.2829
0.13899
21.3747
0.122273
21.4806
0.105421
21.5986
0.0883997
21.7273
0.0711821
21.8652
0.0537472
22.0112
0.0360791
22.1645
0.0181662
22.3242
0
22.4897
-0.018425
22.6605
-0.0371121
22.836
-0.0560623
23.0159
-0.0752753
23.1997
-0.0947491
23.3873
-0.11448
23.5783
-0.134464
23.7725
-0.154696
23.9698
-0.17517
24.1698
-0.195879
24.3726
-0.216814
24.578
-0.237968
24.7857
-0.259332
24.9959
-0.280897
25.2082
-0.302652
25.4228
-0.324588
25.6395
-0.346694
25.8582
-0.368958
26.0789
-0.391371
26.3016
-0.413919
26.5261
-0.436592
26.7526
-0.459376
26.9808
-0.48226
27.2109
-0.505231
27.4427
-0.528276
27.6762
-0.551383
27.9115
-0.574537
28.1484
-0.597725
28.3871
-0.620935
28.6273
-0.644153
28.8693
-0.667364
29.1128
-0.690554
29.3579
-0.713713
29.6048
-0.736816
29.8524
-0.75988
30.1044
-0.782798
30.3491
-0.805843
30.6227
-0.828093
-0.852414
30.814
37.031
1.133
-37.6946
36.3495
1.09168
35.6496
1.05006
34.9297
1.00815
34.1878
0.965998
33.4223
0.923619
32.6311
0.881055
31.8127
0.83835
30.9656
0.795569
30.0899
0.752804
29.1871
0.71019
28.2625
0.667933
27.3257
0.62632
26.3917
0.585729
25.4807
0.546604
24.6156
0.509395
23.8183
0.474477
23.1061
0.442081
22.4896
0.412258
21.9715
0.384889
21.5485
0.359726
21.2126
0.336454
20.9539
0.314735
20.762
0.294249
20.6266
0.274709
20.5389
0.255869
20.4911
0.237528
20.4767
0.21952
20.4904
0.201714
20.5276
0.184002
20.5848
0.166302
20.6591
0.148545
20.7479
0.13068
20.8493
0.112665
20.9617
0.0944653
21.0836
0.0760568
21.2139
0.0574192
21.3517
0.0385374
21.4961
0.0194002
21.6465
0
21.8022
-0.0196685
21.9628
-0.0396081
22.1279
-0.0598195
22.2971
-0.0803019
22.47
-0.101053
22.6464
-0.122069
22.8261
-0.143346
23.0088
-0.164877
23.1945
-0.186655
23.3828
-0.208675
23.5737
-0.230927
23.7671
-0.253403
23.9629
-0.276093
24.1609
-0.298988
24.3611
-0.322077
24.5634
-0.34535
24.7677
-0.368795
24.974
-0.392401
25.1822
-0.416156
25.3924
-0.440048
25.6043
-0.464064
25.8181
-0.488192
26.0337
-0.512418
26.251
-0.53673
26.47
-0.561114
26.6906
-0.585556
26.913
-0.610042
27.137
-0.634558
27.3626
-0.659091
27.5898
-0.683626
27.8186
-0.708149
28.049
-0.732644
28.2809
-0.757099
28.5145
-0.781492
28.7489
-0.805835
28.9873
-0.830022
29.219
-0.854332
29.4779
-0.877816
-0.903428
29.6596
35.2424
1.18021
-35.8891
34.5778
1.13665
33.8949
1.09276
33.192
1.04858
32.4676
1.00414
31.7199
0.959476
30.9474
0.914631
30.1491
0.869672
29.3245
0.824688
28.4751
0.779811
27.6048
0.735234
26.7212
0.691232
25.8368
0.648165
24.9685
0.606467
24.1363
0.566595
23.3605
0.528959
22.6584
0.493844
22.0414
0.461365
21.5148
0.431464
21.0773
0.403938
20.7234
0.378493
20.4449
0.354797
20.2323
0.332518
20.0764
0.311349
19.9685
0.291025
19.9012
0.271321
19.8679
0.25205
19.8634
0.233062
19.8831
0.214234
19.9233
0.19547
19.9811
0.17669
20.0539
0.157834
20.1396
0.138851
20.2366
0.119703
20.3434
0.100357
20.4589
0.0807902
20.5821
0.0609834
20.712
0.0409226
20.848
0.0205972
20.9896
0
21.1361
-0.0208736
21.2872
-0.042026
21.4425
-0.0634576
21.6016
-0.085167
21.7642
-0.107152
21.9302
-0.129407
22.0992
-0.151929
22.2712
-0.174711
22.4459
-0.197746
22.6232
-0.221025
22.803
-0.244542
22.9851
-0.268286
23.1695
-0.292247
23.3561
-0.316416
23.5448
-0.340781
23.7355
-0.365332
23.9282
-0.390057
24.1228
-0.414943
24.3193
-0.439978
24.5176
-0.46515
24.7177
-0.490445
24.9195
-0.515851
25.1231
-0.541353
25.3283
-0.566938
25.5352
-0.592592
25.7438
-0.6183
25.9539
-0.644048
26.1657
-0.669822
26.379
-0.695606
26.5939
-0.721387
26.8103
-0.747148
27.0282
-0.772874
27.2476
-0.798553
27.4687
-0.82416
27.6904
-0.849709
27.9161
-0.875091
28.1355
-0.90059
28.3804
-0.925234
-0.952052
28.5529
33.5218
1.22253
-34.1523
32.8733
1.17683
32.2068
1.13079
31.5205
1.08445
30.8131
1.03785
30.0832
0.991023
29.3298
0.944045
28.5526
0.897002
27.7526
0.850023
26.9328
0.803293
26.0997
0.757071
25.2633
0.711704
24.4379
0.667613
23.641
0.625254
22.8908
0.585056
22.2039
0.547349
21.5924
0.512306
21.0629
0.479927
20.6163
0.450058
20.2491
0.422438
19.9544
0.396745
19.7244
0.372646
19.5505
0.349823
19.4246
0.32799
19.3396
0.306902
19.2891
0.286354
19.2677
0.266177
19.2711
0.246233
19.2956
0.226411
19.3379
0.206621
19.3956
0.186791
19.4667
0.166864
19.5492
0.146793
19.6418
0.126541
19.7433
0.10608
19.8527
0.0853864
19.969
0.0644433
20.0915
0.043237
20.2197
0.0217582
20.3529
0
20.4908
-0.0220416
20.6329
-0.0443685
20.779
-0.0669805
20.9286
-0.0898761
21.0816
-0.113052
21.2377
-0.136504
21.3968
-0.160226
21.5586
-0.184213
21.723
-0.208456
21.8899
-0.232947
22.0592
-0.257678
22.2308
-0.282639
22.4045
-0.307819
22.5803
-0.333208
22.7582
-0.358795
22.938
-0.384568
23.1197
-0.410515
23.3033
-0.436622
23.4887
-0.462879
23.6759
-0.489271
23.8647
-0.515784
24.0553
-0.542405
24.2475
-0.56912
24.4414
-0.595914
24.6369
-0.622773
24.8339
-0.649682
25.0326
-0.676626
25.2327
-0.70359
25.4344
-0.730559
25.6376
-0.757516
25.8423
-0.784448
26.0484
-0.811336
26.256
-0.838169
26.4652
-0.86492
26.675
-0.891605
26.8886
-0.91811
27.0964
-0.944727
27.3281
-0.970463
-0.998408
27.4919
31.8665
1.2601
-32.4815
31.2337
1.21236
30.583
1.16428
29.913
1.1159
29.2225
1.06725
28.5107
1.01841
27.7773
0.969469
27.023
0.920547
26.2505
0.871825
25.4648
0.823553
24.6744
0.776062
23.8914
0.729756
23.1309
0.68509
22.4092
0.642501
21.7417
0.602352
21.1406
0.564862
20.6134
0.530088
20.1626
0.497926
19.7862
0.468152
19.4794
0.440465
19.2351
0.414536
19.0458
0.390041
18.9042
0.366681
18.8034
0.344195
18.7373
0.322358
18.7006
0.300986
18.689
0.279924
18.6988
0.259048
18.7268
0.238256
18.7705
0.217466
18.8277
0.196613
18.8968
0.175641
18.9761
0.15451
19.0645
0.133185
19.1608
0.111638
19.2643
0.0898494
19.3741
0.0678016
19.4897
0.0454829
19.6104
0.0228844
19.7358
0
19.8656
-0.0231736
19.9993
-0.0466378
20.1366
-0.0703921
20.2774
-0.0944345
20.4213
-0.118761
20.5681
-0.143368
20.7178
-0.168248
20.8701
-0.193394
21.0249
-0.2188
21.182
-0.244457
21.3414
-0.270354
21.503
-0.296483
21.6667
-0.322832
21.8324
-0.349391
22.0001
-0.376147
22.1696
-0.403088
22.341
-0.430203
22.5142
-0.457478
22.6891
-0.484899
22.8657
-0.512453
23.044
-0.540126
23.2239
-0.567904
23.4055
-0.595772
23.5886
-0.623715
23.7733
-0.651718
23.9595
-0.679766
24.1473
-0.707843
24.3365
-0.735934
24.5272
-0.764023
24.7193
-0.792094
24.9129
-0.82013
25.1079
-0.848116
25.3042
-0.876036
25.5022
-0.903867
25.7008
-0.93162
25.903
-0.959184
26.0997
-0.986849
26.3188
-1.01361
-1.04261
26.4744
30.2741
1.29304
-30.8742
29.6565
1.24337
29.0213
1.19336
28.3675
1.14305
27.6943
1.0925
27.0015
1.04182
26.2897
0.99111
25.5611
0.940558
24.8199
0.890402
24.0734
0.840958
23.3317
0.792619
22.6079
0.745828
21.9164
0.701028
21.2714
0.658599
20.6846
0.618803
20.1641
0.581743
19.7135
0.547365
19.3323
0.515484
19.0168
0.485826
18.7615
0.458075
18.5597
0.431906
18.4046
0.407011
18.29
0.383117
18.2099
0.359984
18.1595
0.337412
18.1342
0.315231
18.1305
0.293304
18.1453
0.271517
18.1759
0.249779
18.2204
0.228014
18.2768
0.206162
18.3437
0.184174
18.4197
0.16201
18.5039
0.13964
18.5953
0.117037
18.6932
0.0941827
18.7969
0.0710614
18.9059
0.0476621
19.0196
0.0239767
19.1377
0
19.2598
-0.0242709
19.3855
-0.0488366
19.5147
-0.0736962
19.6471
-0.0988474
19.7825
-0.124286
19.9207
-0.150006
20.0615
-0.176003
20.2048
-0.202268
20.3505
-0.228793
20.4985
-0.25557
20.6486
-0.282589
20.8008
-0.309839
20.9551
-0.337309
21.1112
-0.364988
21.2693
-0.392864
21.4291
-0.420924
21.5908
-0.449155
21.7541
-0.477544
21.9192
-0.506077
22.0859
-0.534739
22.2542
-0.563518
22.4241
-0.592396
22.5955
-0.621361
22.7685
-0.650395
22.943
-0.679484
23.119
-0.708613
23.2964
-0.737764
23.4753
-0.766922
23.6556
-0.796071
23.8373
-0.825194
24.0204
-0.854274
24.2049
-0.883295
24.3906
-0.912242
24.5779
-0.941088
24.7659
-0.969848
24.9572
-0.998407
25.1435
-1.02706
25.3508
-1.05479
-1.08477
25.4986
28.7424
1.32147
-29.328
28.1396
1.26998
27.52
1.21816
26.8827
1.16607
26.2276
1.11379
25.5553
1.06145
24.8676
1.00923
24.1682
0.957351
23.4632
0.906127
22.7614
0.855932
22.074
0.8072
21.4136
0.760371
20.7932
0.715839
20.224
0.673892
19.7139
0.634677
19.2674
0.598184
18.8851
0.564268
18.5645
0.532686
18.3012
0.503139
18.0894
0.475308
17.9233
0.448884
17.7968
0.423581
17.7046
0.39915
17.6418
0.375376
17.6043
0.352077
17.5883
0.329102
17.591
0.306327
17.6097
0.283651
17.6422
0.260988
17.6869
0.238272
17.7422
0.215447
17.8068
0.192469
17.8796
0.1693
17.9598
0.145912
18.0464
0.122281
18.139
0.0983903
18.2369
0.0742256
18.3396
0.0497766
18.4467
0.0250363
18.5579
0
18.6728
-0.0253343
18.7911
-0.0509669
18.9126
-0.0768963
19.0372
-0.103119
19.1645
-0.129632
19.2945
-0.156428
19.427
-0.183501
19.5619
-0.210844
19.6991
-0.238448
19.8384
-0.266302
19.9798
-0.294399
20.1232
-0.322726
20.2685
-0.351272
20.4157
-0.380025
20.5647
-0.408973
20.7154
-0.438103
20.8679
-0.467402
21.022
-0.496855
21.1777
-0.526449
21.3351
-0.556168
21.494
-0.585999
21.6544
-0.615926
21.8163
-0.645933
21.9797
-0.676005
22.1446
-0.706126
22.3109
-0.736279
22.4786
-0.766448
22.6477
-0.796617
22.8182
-0.826769
22.99
-0.856886
23.1632
-0.886953
23.3377
-0.916951
23.5134
-0.946865
23.6907
-0.97667
23.8686
-1.00638
24.0496
-1.03587
24.226
-1.06545
24.4222
-1.09409
-1.12498
24.5625
27.2694
1.34553
-27.8406
26.6815
1.29235
26.0777
1.23885
25.4577
1.18513
24.8221
1.13132
24.1726
1.07758
23.5124
1.02415
22.8467
0.97131
22.1831
0.919437
21.5312
0.868946
20.9024
0.820275
20.308
0.77382
19.7586
0.729893
19.2619
0.68867
18.8228
0.650183
18.4428
0.614326
18.1203
0.580889
17.852
0.549592
17.633
0.520129
17.458
0.492192
17.3218
0.465491
17.2191
0.439768
17.1455
0.414796
17.097
0.390383
17.07
0.366367
17.0617
0.342611
17.0694
0.319006
17.0911
0.295459
17.125
0.271894
17.1695
0.24825
17.2234
0.224476
17.2856
0.200532
17.3552
0.176383
17.4315
0.152005
17.5136
0.127374
17.6011
0.102476
17.6935
0.0772969
17.7903
0.0518285
17.8912
0.026064
17.9958
0
18.1039
-0.0263651
18.2153
-0.0530312
18.3296
-0.0799958
18.4468
-0.107256
18.5666
-0.134806
18.6889
-0.162641
18.8136
-0.190753
18.9406
-0.219134
19.0697
-0.247776
19.2009
-0.276668
19.3341
-0.3058
19.4692
-0.335162
19.6061
-0.36474
19.7448
-0.394523
19.8853
-0.424499
20.0274
-0.454654
20.1712
-0.484973
20.3166
-0.515443
20.4636
-0.54605
20.6121
-0.576778
20.7621
-0.607612
20.9136
-0.638537
21.0665
-0.669536
21.2209
-0.700594
21.3767
-0.731694
21.5338
-0.76282
21.6924
-0.793954
21.8522
-0.82508
22.0134
-0.856181
22.1759
-0.887239
22.3397
-0.918238
22.5048
-0.949158
22.6711
-0.979985
22.8388
-1.01069
23.0072
-1.04129
23.1785
-1.07166
23.3455
-1.10211
23.5311
-1.13161
-1.16335
23.6644
25.8535
1.36537
-26.4104
25.2808
1.31062
24.6936
1.25561
24.0924
1.20048
23.4785
1.14538
22.855
1.09055
22.2263
1.03626
21.5991
0.982884
20.9818
0.930818
20.3843
0.88049
19.8168
0.832299
19.2888
0.786567
18.8079
0.743499
18.379
0.703157
18.0042
0.665473
17.6827
0.630267
17.4121
0.597286
17.1884
0.566238
17.0068
0.53682
16.8627
0.508744
16.7514
0.481744
16.6685
0.455586
16.6104
0.430068
16.5737
0.405019
16.5554
0.380293
16.5532
0.35577
16.5649
0.33135
16.5888
0.306951
16.6235
0.282504
16.6675
0.257954
16.7199
0.233255
16.7797
0.20837
16.8461
0.183267
16.9186
0.157924
16.9964
0.132321
17.0791
0.106443
17.1662
0.080278
17.2575
0.0538192
17.3525
0.0270609
17.451
0
17.5527
-0.0273644
17.6575
-0.0550312
17.7651
-0.082998
17.8753
-0.111261
17.988
-0.139814
18.1031
-0.168652
18.2205
-0.197766
18.34
-0.227149
18.4616
-0.25679
18.5851
-0.286681
18.7105
-0.316809
18.8378
-0.347164
18.9669
-0.377734
19.0976
-0.408505
19.2301
-0.439466
19.3641
-0.470601
19.4998
-0.501897
19.6369
-0.533339
19.7756
-0.564913
19.9158
-0.596603
20.0574
-0.628393
20.2005
-0.660269
20.345
-0.692212
20.4908
-0.724207
20.638
-0.756238
20.7865
-0.788286
20.9363
-0.820336
21.0875
-0.852369
21.2399
-0.884369
21.3936
-0.916316
21.5485
-0.948195
21.7047
-0.979985
21.862
-1.01167
22.0207
-1.04323
22.1801
-1.07467
22.3423
-1.10587
22.5004
-1.13713
22.676
-1.16744
-1.19997
22.8026
24.4935
1.38115
-25.0357
23.9369
1.325
23.3677
1.26869
22.7872
1.21239
22.1981
1.15632
21.6044
1.10075
21.0119
1.04604
20.4279
0.992576
19.8612
0.940778
19.3208
0.891039
18.8154
0.843686
18.352
0.798943
17.9356
0.756899
17.5684
0.717518
17.2506
0.68065
16.9802
0.646068
16.7539
0.613498
16.5679
0.582646
16.4179
0.553228
16.2995
0.524977
16.209
0.497653
16.1426
0.471046
16.0973
0.444977
16.0702
0.419293
16.059
0.393865
16.0618
0.368587
16.0766
0.343368
16.1022
0.318135
16.1371
0.292827
16.1804
0.267393
16.2311
0.241791
16.2885
0.215988
16.3519
0.189957
16.4206
0.163675
16.4943
0.137125
16.5724
0.110294
16.6546
0.0831717
16.7406
0.055751
16.8301
0.028028
16.9229
0
17.0186
-0.028333
17.1172
-0.0569695
17.2184
-0.0859062
17.3221
-0.115139
17.4282
-0.144662
17.5365
-0.174468
17.6469
-0.204549
17.7594
-0.234897
17.8739
-0.265502
17.9902
-0.296354
18.1084
-0.327441
18.2283
-0.358751
18.3499
-0.390272
18.4732
-0.421992
18.5981
-0.453896
18.7245
-0.48597
18.8525
-0.518201
18.9819
-0.550572
19.1128
-0.58307
19.2451
-0.615678
19.3788
-0.648381
19.5139
-0.681161
19.6504
-0.714003
19.7882
-0.74689
19.9272
-0.779804
20.0676
-0.812729
20.2093
-0.845646
20.3522
-0.878539
20.4963
-0.911389
20.6417
-0.944177
20.7882
-0.976887
20.9359
-1.0095
21.0848
-1.042
21.235
-1.07435
21.3858
-1.10658
21.5393
-1.13856
21.6891
-1.17059
21.8552
-1.20165
-1.23493
21.9754
23.1888
1.39308
-23.7155
22.6496
1.33574
22.1005
1.27839