/*--------------------------------*- C++ -*----------------------------------*\
| =========                 |                                                 |
| \\      /  F ield         | OpenFOAM: The Open Source CFD Toolbox           |
|  \\    /   O peration     | Version:  2312                                  |
|   \\  /    A nd           | Website:  www.openfoam.com                      |
|    \\/     M anipulation  |                                                 |
\*---------------------------------------------------------------------------*/
FoamFile
{
    version     2.0;
    format      ascii;
    arch        "LSB;label=32;scalar=64";
    class       surfaceScalarField;
    location    "0.709";
    object      phi;
}
// * * * * * * * * * * * * * * * * * * * * * * * * * * * * * * * * * * * * * //

dimensions      [0 3 -1 0 0 0 0];

oriented        oriented;

internalField   nonuniform List<scalar> 
62015
(
89.7709
0.175105
-89.9809
89.5534
0.171432
89.3285
0.167674
89.0961
0.163834
88.8565
0.159916
88.6096
0.155921
88.3554
0.151854
88.0939
0.147716
87.825
0.143512
87.5487
0.139244
87.265
0.134915
86.9737
0.130529
86.6748
0.126089
86.368
0.121598
86.0532
0.117061
85.7303
0.112479
85.3989
0.107858
85.0588
0.1032
84.7097
0.0985091
84.3513
0.0937896
83.9832
0.0890452
83.6051
0.0842792
83.2163
0.0794963
82.8164
0.0747004
82.4048
0.0698954
81.9809
0.0650861
81.5439
0.0602761
81.0931
0.0554707
80.6274
0.0506743
80.1459
0.0458913
79.6475
0.0411266
79.1308
0.0363858
78.5943
0.0316741
78.0365
0.0269963
77.4554
0.0223591
76.8488
0.0177676
76.214
0.013229
75.5482
0.00875
74.8478
0.00433737
74.1084
0
73.3249
-0.00425369
72.4909
-0.00841421
71.599
-0.0124695
70.6381
-0.0164074
69.5879
-0.0202122
68.4281
-0.0238611
67.1739
-0.0273291
65.8489
-0.0306076
64.1736
-0.0336979
61.1051
-0.0363726
55.3823
-0.0377394
47.4804
-0.0366201
39.9667
-0.0333714
34.8922
-0.0301853
32.2547
-0.0286128
31.1051
-0.02858
30.6832
-0.0294634
30.5961
-0.0308069
30.6686
-0.0323773
30.8241
-0.0340674
31.0277
-0.0358286
31.2626
-0.0376373
31.5194
-0.0394811
31.7929
-0.041353
32.0797
-0.0432486
32.3774
-0.0451645
32.6844
-0.047098
32.9995
-0.0490471
33.3217
-0.0510098
33.6503
-0.0529842
33.9846
-0.0549689
34.3243
-0.0569618
34.6687
-0.0589623
35.0181
-0.0609671
35.3703
-0.0629787
35.7313
-0.0649844
36.0813
-0.0670169
36.4803
-0.0689682
-0.0711711
36.7441
87.0305
0.344761
-87.2442
86.8101
0.337491
86.5831
0.330059
86.3496
0.32247
86.1096
0.314728
85.8631
0.30684
85.6101
0.298812
85.3506
0.290649
85.0845
0.282357
84.8119
0.273943
84.5325
0.265412
84.2464
0.25677
83.9534
0.248025
83.6534
0.239183
83.3462
0.23025
83.0316
0.221233
82.7095
0.212139
82.3795
0.202975
82.0413
0.193748
81.6948
0.184466
81.3395
0.175136
80.975
0.165765
80.6009
0.156362
80.2168
0.146933
79.822
0.137487
79.416
0.128034
78.9982
0.118579
78.5677
0.109133
78.1238
0.0997043
77.6655
0.0903023
77.1918
0.0809356
76.7015
0.0716146
76.1933
0.0623488
75.6657
0.0531498
75.1169
0.0440273
74.5451
0.0349935
73.9479
0.0260604
73.3227
0.0172409
72.6663
0.00854913
71.975
0
71.2444
-0.00839004
70.4687
-0.0166027
69.6418
-0.0246174
68.755
-0.0324106
67.7935
-0.0399545
66.7352
-0.0472122
65.5748
-0.0541323
64.3482
-0.060679
62.9841
-0.06687
60.8523
-0.0725647
56.6489
-0.0766516
49.7977
-0.0766754
42.0038
-0.0714474
35.8487
-0.0641322
32.2625
-0.0591213
30.5725
-0.0576253
29.8886
-0.0585833
29.6738
-0.0608368
29.6766
-0.0637225
29.7874
-0.0669268
29.9576
-0.0703074
30.1642
-0.0737981
30.3956
-0.0773661
30.6451
-0.0809932
30.9088
-0.0846682
31.1841
-0.0883839
31.469
-0.0921345
31.7622
-0.0959153
32.0627
-0.0997223
32.3697
-0.103552
32.6826
-0.107401
33.0008
-0.111266
33.3238
-0.115144
33.6519
-0.119031
33.9827
-0.122929
34.322
-0.126817
34.6514
-0.130754
35.0264
-0.134537
-0.138793
35.2776
84.3606
0.50906
-84.5772
84.1381
0.498274
83.9097
0.487252
83.6756
0.476004
83.4357
0.464536
83.19
0.452857
82.9386
0.440974
82.6814
0.428898
82.4184
0.416635
82.1495
0.404194
81.8746
0.391586
81.5936
0.378818
81.3065
0.365901
81.0131
0.352843
80.7133
0.339654
80.4068
0.326345
80.0934
0.312924
79.773
0.299403
79.4453
0.285791
79.11
0.272099
78.7667
0.258338
78.4152
0.244519
78.0549
0.230652
77.6855
0.21675
77.3064
0.202824
76.9172
0.188886
76.5171
0.174948
76.1056
0.161021
75.6819
0.147121
75.245
0.133259
74.7941
0.119448
74.3282
0.105703
73.8459
0.092039
73.346
0.0784703
72.8269
0.0650122
72.2869
0.051682
71.7239
0.0384967
71.1355
0.0254742
70.519
0.012635
69.8712
0
69.188
-0.0124077
68.4646
-0.0245627
67.6954
-0.0364364
66.8735
-0.0479956
65.988
-0.0592036
65.02
-0.0700134
63.9528
-0.0803569
62.8061
-0.0901621
61.5965
-0.0994261
60.0218
-0.108144
57.052
-0.115479
51.5486
-0.11846
44.108
-0.113615
37.1881
-0.102712
32.597
-0.0927211
30.2353
-0.0879461
29.2085
-0.087805
28.8294
-0.0903407
28.748
-0.0942014
28.8087
-0.0987092
28.9437
-0.103556
29.1219
-0.108601
29.3283
-0.113775
29.5547
-0.119045
29.7963
-0.124389
30.0501
-0.129795
30.3139
-0.135253
30.5864
-0.140754
30.8663
-0.146295
31.1529
-0.151867
31.4454
-0.157467
31.7433
-0.16309
32.046
-0.168731
32.3538
-0.174384
32.6645
-0.180053
32.9832
-0.185706
33.2931
-0.191427
33.6453
-0.196933
-0.2031
33.8836
81.7617
0.668105
-81.9802
81.538
0.653886
81.3092
0.639364
81.0752
0.624551
80.8362
0.609454
80.5921
0.594087
80.3428
0.578458
80.0884
0.562579
79.8288
0.546462
79.564
0.530116
79.2938
0.513554
79.0183
0.496788
78.7372
0.479829
78.4505
0.46269
78.158
0.445383
77.8595
0.42792
77.5549
0.410316
77.244
0.392582
76.9264
0.374732
76.6019
0.356779
76.2703
0.338738
75.9311
0.320623
75.5841
0.302447
75.2288
0.284225
74.8647
0.265974
74.4913
0.247706
74.1082
0.22944
73.7146
0.211189
73.3098
0.192972
72.8931
0.174803
72.4637
0.156702
72.0205
0.138685
71.5625
0.120772
71.0885
0.102981
70.597
0.0853324
70.0865
0.0678472
69.5551
0.0505471
69.0008
0.033456
68.421
0.016598
67.813
0
67.1732
-0.016309
66.4974
-0.0322973
65.7806
-0.0479295
65.0169
-0.063165
64.1982
-0.0779596
63.3099
-0.0922573
62.3322
-0.105983
61.2656
-0.119037
60.1458
-0.131365
58.8765
-0.143025
56.7928
-0.153619
52.6549
-0.160536
46.085
-0.158633
38.8532
-0.146278
33.308
-0.130776
30.1434
-0.120706
28.6673
-0.117801
28.0713
-0.119674
27.8835
-0.124018
27.8856
-0.129555
27.9823
-0.135689
28.1315
-0.14215
28.3131
-0.148813
28.517
-0.155616
28.7374
-0.162523
28.9707
-0.169514
29.2145
-0.176574
29.4672
-0.183692
29.7276
-0.19086
29.9948
-0.19807
30.268
-0.205315
30.5467
-0.212588
30.8302
-0.219884
31.1188
-0.227194
31.4103
-0.234524
31.7096
-0.241832
32.0011
-0.249225
32.3319
-0.256345
-0.264297
32.5573
79.2338
0.822009
-79.4531
79.0098
0.804443
78.7814
0.786512
78.5485
0.768229
78.311
0.749605
78.069
0.730653
77.8226
0.711386
77.5715
0.691817
77.3159
0.671961
77.0556
0.651829
76.7905
0.631437
76.5206
0.610798
76.2459
0.589927
75.966
0.568838
75.681
0.547548
75.3906
0.52607
75.0947
0.50442
74.7931
0.482615
74.4856
0.46067
74.1718
0.438603
73.8515
0.416428
73.5245
0.394164
73.1903
0.371828
72.8486
0.349437
72.4989
0.32701
72.1409
0.304564
71.7739
0.28212
71.3974
0.259695
71.0108
0.23731
70.6134
0.214985
70.2043
0.19274
69.7828
0.170598
69.3477
0.14858
68.8981
0.126709
68.4326
0.10501
67.9498
0.0835062
67.4481
0.0622253
66.9256
0.0411938
66.3801
0.0204415
65.8091
0
65.2096
-0.0200969
64.5778
-0.0398125
63.9093
-0.0591052
63.1989
-0.0779284
62.4403
-0.0962306
61.6227
-0.113951
60.7281
-0.13101
59.7443
-0.147294
58.6956
-0.162695
57.5865
-0.177245
56.0761
-0.190896
53.1345
-0.201926
47.7727
-0.204902
40.76
-0.194361
34.4509
-0.174544
30.3739
-0.157493
28.3096
-0.149618
27.4174
-0.149389
27.0881
-0.153461
27.0172
-0.159635
27.0702
-0.166828
27.1885
-0.17455
27.3451
-0.182576
27.5268
-0.1908
27.7266
-0.199165
27.9402
-0.20764
28.1648
-0.216202
28.3988
-0.224836
28.6406
-0.233532
28.8894
-0.242278
29.1443
-0.251066
29.4047
-0.259887
29.67
-0.268736
29.9404
-0.2776
30.2138
-0.286487
30.4947
-0.295347
30.7686
-0.304305
31.0793
-0.31294
-0.322555
31.292
76.776
0.970888
-76.9952
76.5528
0.950064
76.3255
0.928816
76.0943
0.90716
75.8592
0.885109
75.62
0.862678
75.3769
0.839881
75.1297
0.816735
74.8784
0.793255
74.623
0.769455
74.3635
0.745354
74.0996
0.720967
73.8313
0.696311
73.5585
0.671403
73.2811
0.646261
72.9989
0.620902
72.7118
0.595344
72.4195
0.569606
72.1218
0.543706
71.8186
0.517664
71.5096
0.491499
71.1943
0.46523
70.8727
0.438877
70.5442
0.412462
70.2086
0.386005
69.8653
0.359527
69.5139
0.33305
69.1539
0.306596
68.7847
0.280188
68.4057
0.25385
68.0161
0.227605
67.6151
0.201478
67.2019
0.175495
66.7754
0.149682
66.3345
0.124066
65.8779
0.0986764
65.4042
0.0735425
64.9116
0.0486959
64.3983
0.0241698
63.862
0
63.2999
-0.0237753
62.709
-0.0471145
62.0853
-0.0699715
61.4242
-0.0922955
60.7203
-0.114028
59.9659
-0.135103
59.1468
-0.15544
58.2456
-0.174924
57.2678
-0.19341
56.2478
-0.210849
55.0665
-0.227348
53.0388
-0.242135
48.9972
-0.250799
42.7298
-0.245429
36.0253
-0.224544
31.012
-0.20015
28.2001
-0.1848
26.899
-0.180361
26.3738
-0.182978
26.2072
-0.189191
26.2074
-0.197126
26.2912
-0.205913
26.4216
-0.215163
26.5811
-0.224692
26.7607
-0.23441
26.9552
-0.244268
27.1614
-0.254235
27.3774
-0.264289
27.6015
-0.274416
27.8327
-0.284602
28.0702
-0.294837
28.3133
-0.30511
28.5614
-0.315414
28.8144
-0.325735
29.0707
-0.33608
29.3342
-0.346393
29.5913
-0.356816
29.8831
-0.36687
-0.378034
30.0837
74.3876
1.11486
-74.6059
74.1658
1.09087
73.9405
1.0664
73.7117
1.04147
73.4794
1.01609
73.2436
0.990285
73.0043
0.964067
72.7614
0.937455
72.515
0.910465
72.2648
0.883115
72.011
0.855425
71.7533
0.827412
71.4918
0.799096
71.2262
0.770495
70.9565
0.741631
70.6825
0.712521
70.4041
0.683188
70.1211
0.653652
69.8333
0.623934
69.5405
0.594055
69.2424
0.564037
68.9388
0.533903
68.6294
0.503674
68.3138
0.473375
67.9917
0.443028
67.6627
0.412659
67.3264
0.38229
66.9823
0.351947
66.6298
0.321657
66.2684
0.291444
65.8974
0.261336
65.516
0.231362
65.1236
0.201548
64.7191
0.171925
64.3015
0.142523
63.8697
0.113374
63.4224
0.0845113
62.9581
0.0559697
62.475
0.0277864
61.9712
0
61.4442
-0.0273471
60.8914
-0.0542092
60.3093
-0.080537
59.6939
-0.106275
59.0404
-0.13136
58.3428
-0.155723
57.5911
-0.17928
56.7685
-0.201923
55.866
-0.223491
54.9105
-0.243853
53.8984
-0.263092
52.4744
-0.281101
49.638
-0.295156
44.512
-0.297212
37.9322
-0.279905
32.1228
-0.250229
28.423
-0.225422
26.5643
-0.213958
25.7617
-0.21328
25.4632
-0.218584
25.3958
-0.226785
25.4394
-0.236378
25.5415
-0.246682
25.6782
-0.257389
25.8376
-0.268352
26.0135
-0.279494
26.2019
-0.29077
26.4006
-0.302151
26.6078
-0.313617
26.8223
-0.325152
27.0432
-0.336742
27.2698
-0.348374
27.5014
-0.360041
27.7381
-0.371725
27.9781
-0.383434
28.225
-0.395108
28.4663
-0.4069
28.74
-0.418284
-0.430889
28.9291
72.0675
1.25405
-72.2841
71.8477
1.22698
71.6249
1.19938
71.3991
1.17127
71.1702
1.14267
70.9382
1.1136
70.7032
1.08407
70.465
1.0541
70.2236
1.02371
69.9791
0.992926
69.7312
0.961764
69.48
0.930246
69.2253
0.898392
68.967
0.866224
68.7051
0.833763
68.4394
0.801032
68.1697
0.768053
67.8959
0.73485
67.6178
0.701445
67.3353
0.667863
67.0479
0.634127
66.7557
0.600262
66.4581
0.566293
66.1551
0.532246
65.8461
0.498147
65.531
0.464022
65.2092
0.429898
64.8803
0.395802
64.5439
0.361763
64.1993
0.32781
63.8461
0.293973
63.4835
0.260281
63.1109
0.226767
62.7273
0.193461
62.3319
0.160399
61.9236
0.127614
61.5012
0.0951422
61.0635
0.0630224
60.6088
0.0312942
60.1355
0
59.6414
-0.030815
59.124
-0.0611022
58.5806
-0.0908085
58.0075
-0.119875
57.4005
-0.148237
56.7548
-0.175818
56.063
-0.202537
55.312
-0.228287
54.4866
-0.252916
53.5946
-0.276238
52.6689
-0.29822
51.5864
-0.319029
49.6807
-0.337526
45.8554
-0.347505
39.9592
-0.338209
33.7084
-0.308097
29.0713
-0.273811
26.4827
-0.252201
25.2855
-0.245512
24.7991
-0.248386
24.6405
-0.256104
24.6342
-0.26612
24.7042
-0.277261
24.8167
-0.288998
24.9558
-0.30109
25.1132
-0.313414
25.2844
-0.325904
25.4664
-0.338521
25.6573
-0.351237
25.8558
-0.364032
26.0609
-0.376888
26.2718
-0.389792
26.4878
-0.402733
26.7089
-0.415693
26.9334
-0.428678
27.1646
-0.441624
27.3909
-0.454695
27.6476
-0.467323
-0.481266
27.8257
69.8143
1.38857
-70.0287
69.5972
1.35852
69.3775
1.32789
69.1551
1.2967
68.93
1.26498
68.7023
1.23274
68.4718
1.2
68.2386
1.16678
68.0026
1.13311
67.7638
1.099
67.5221
1.06449
67.2775
1.02958
67.0298
0.994308
66.7789
0.958694
66.5248
0.92276
66.2673
0.886533
66.0063
0.850034
65.7416
0.813292
65.4731
0.776329
65.2006
0.739173
64.9238
0.701849
64.6426
0.664385
64.3567
0.626808
64.0658
0.589145
63.7696
0.551424
63.4678
0.513676
63.16
0.475927
62.8458
0.43821
62.5247
0.400554
62.1964
0.36299
61.8601
0.325551
61.5155
0.28827
61.1616
0.251179
60.7979
0.214315
60.4235
0.177713
60.0375
0.14141
59.6387
0.105446
59.226
0.0698609
58.7981
0.0346971
58.3534
0
57.89
-0.0341825
57.4058
-0.067799
56.8983
-0.100793
56.3644
-0.133105
55.8005
-0.164666
55.2022
-0.195399
54.5642
-0.225218
53.877
-0.254021
53.1254
-0.28167
52.3025
-0.307966
51.4348
-0.332755
50.5192
-0.356175
49.2193
-0.378104
46.5928
-0.394954
41.8134
-0.396175
35.6605
-0.372085
30.2183
-0.331744
26.7461
-0.297779
24.9973
-0.281482
24.2377
-0.279534
23.9501
-0.285545
23.8784
-0.29539
23.9101
-0.307057
23.996
-0.319638
24.114
-0.332725
24.253
-0.346124
24.4071
-0.359733
24.5729
-0.373496
24.7482
-0.387374
24.9314
-0.401344
25.1213
-0.415383
25.3173
-0.429474
25.5185
-0.443605
25.7247
-0.457757
25.9345
-0.471934
26.1508
-0.486067
26.3628
-0.500332
26.6033
-0.514123
-0.529308
26.771
67.627
1.51856
-67.8385
67.413
1.48561
67.1967
1.45205
66.9781
1.41788
66.7573
1.38313
66.5341
1.34782
66.3085
1.31198
66.0805
1.27562
65.8502
1.23878
65.6173
1.20146
65.3819
1.1637
65.1439
1.12552
64.9033
1.08695
64.6598
1.04801
64.4135
1.00872
64.1642
0.969121
63.9118
0.929226
63.6561
0.889068
63.397
0.848672
63.1343
0.808068
62.8679
0.767284
62.5975
0.726347
62.3228
0.685288
62.0437
0.644137
61.7598
0.602923
61.4708
0.561678
61.1765
0.520432
60.8764
0.47922
60.5702
0.438072
60.2573
0.397022
59.9373
0.356105
59.6097
0.315357
59.2738
0.274812
58.929
0.234508
58.5745
0.194484
58.2095
0.154778
57.833
0.115433
57.444
0.0764914
57.0412
0.0379977
56.6233
0
56.1887
-0.0374518
55.7354
-0.0743042
55.2613
-0.110499
54.7638
-0.145973
54.2397
-0.180657
53.6851
-0.214471
53.0957
-0.247329
52.4649
-0.279131
51.7808
-0.309749
51.0297
-0.339
50.2194
-0.366661
49.3825
-0.392705
48.4117
-0.417381
46.6974
-0.439356
43.2056
-0.450955
37.7406
-0.438464
31.8667
-0.399141
27.4579
-0.353588
24.9744
-0.323877
23.8166
-0.313565
23.3402
-0.315865
23.1778
-0.324566
23.1608
-0.336283
23.216
-0.34945
23.3113
-0.363371
23.4314
-0.377724
23.5687
-0.392352
23.7187
-0.40717
23.8788
-0.422126
24.0472
-0.437187
24.2227
-0.452326
24.4043
-0.467525
24.5913
-0.482766
24.7835
-0.498029
24.9792
-0.513318
25.1814
-0.52856
25.3799
-0.543936
25.605
-0.558816
-0.57515
25.7628
65.504
1.64413
-65.7124
65.2936
1.60839
65.0812
1.57198
64.8668
1.53492
64.6504
1.49725
64.432
1.45898
64.2115
1.42014
63.989
1.38074
63.7644
1.34083
63.5376
1.30041
63.3086
1.25952
63.0774
1.21819
62.8438
1.17643
62.6077
1.13427
62.3692
1.09175
62.128
1.04889
61.884
1.00572
61.6372
0.962266
61.3874
0.918559
61.1343
0.874629
60.8779
0.830506
60.618
0.78622
60.3543
0.741803
60.0866
0.697286
59.8146
0.652702
59.5381
0.608084
59.2567
0.563464
58.9702
0.518878
58.6781
0.47436
58.38
0.429946
58.0755
0.385671
57.7642
0.341573
57.4454
0.29769
57.1185
0.254062
56.7829
0.210728
56.4378
0.167731
56.0823
0.125113
55.7156
0.0829206
55.3365
0.0411997
54.9438
0
54.5361
-0.0406262
54.1117
-0.0806234
53.6688
-0.119931
53.205
-0.158487
52.7175
-0.196218
52.2032
-0.233045
51.6583
-0.268881
51.0778
-0.303624
50.4534
-0.337159
49.7714
-0.369322
49.0253
-0.39988
48.2396
-0.428651
47.4189
-0.455818
46.276
-0.481346
43.9525
-0.501199
39.6191
-0.502702
33.8897
-0.472997
28.6978
-0.421456
25.3203
-0.376196
23.5954
-0.352939
22.8371
-0.348343
22.5426
-0.354265
22.4598
-0.365255
22.4774
-0.378623
22.5472
-0.39316
22.6475
-0.408324
22.7677
-0.42386
22.9021
-0.439639
23.0474
-0.455586
23.2016
-0.471657
23.3631
-0.487819
23.5311
-0.504046
23.7046
-0.52032
23.8832
-0.536618
24.0657
-0.552943
24.2544
-0.569217
24.44
-0.585629
24.6506
-0.601523
-0.618919
24.7989
63.4442
1.76541
-63.649
63.2376
1.72696
63.0293
1.6878
62.8194
1.64795
62.6077
1.60745
62.3943
1.56632
62.1792
1.52458
61.9622
1.48226
61.7435
1.43938
61.5229
1.39597
61.3003
1.35206
61.0758
1.30767
60.8493
1.26283
60.6207
1.21758
60.3898
1.17194
60.1566
1.12594
59.921
1.0796
59.6829
1.03297
59.4421
0.986072
59.1985
0.938934
58.9519
0.891591
58.7022
0.844074
58.4491
0.796418
58.1924
0.748656
57.9319
0.700821
57.6673
0.652948
57.3985
0.605073
57.1249
0.557232
56.8464
0.509461
56.5625
0.461797
56.2729
0.41428
55.977
0.366947
55.6744
0.319839
55.3646
0.272997
55.0469
0.226463
54.7206
0.180281
54.3851
0.134496
54.0393
0.0891543
53.6825
0.0443053
53.3135
0
52.9309
-0.0437078
52.5335
-0.086761
52.1195
-0.129099
51.687
-0.170655
51.2336
-0.211358
50.7564
-0.251129
50.2522
-0.28988
49.717
-0.32751
49.1451
-0.363906
48.526
-0.398926
47.8471
-0.432362
47.1142
-0.463952
46.3596
-0.493656
45.5075
-0.521821
44.0385
-0.547223
40.9811
-0.56142
36.0093
-0.547747
30.4571
-0.500275
26.15
-0.441907
23.6636
-0.401284
22.4851
-0.38512
21.9913
-0.385537
21.814
-0.394481
21.7822
-0.407424
21.8219
-0.422259
21.9005
-0.438047
22.003
-0.454362
22.1217
-0.471
22.2525
-0.48785
22.3929
-0.504849
22.541
-0.521955
22.6958
-0.539135
22.8563
-0.556369
23.0222
-0.573628
23.1919
-0.590916
23.3678
-0.60815
23.5412
-0.625523
23.7379
-0.642364
-0.66074
23.8773
61.446
1.88253
-61.6469
61.2436
1.84145
61.0397
1.79963
60.8344
1.75709
60.6277
1.71386
60.4195
1.66996
60.2097
1.62542
59.9985
1.58027
59.7857
1.53453
59.5713
1.48823
59.3553
1.4414
59.1375
1.39408
58.918
1.34628
58.6967
1.29803
58.4734
1.24938
58.2482
1.20035
58.0208
1.15097
57.7912
1.10127
57.5593
1.05129
57.3248
1.00106
57.0878
0.95061
56.8479
0.899978
56.6051
0.849198
56.3591
0.798305
56.1097
0.747334
55.8567
0.696322
55.5998
0.645307
55.3387
0.594324
55.0732
0.543413
54.8028
0.492613
54.5273
0.441965
54.2462
0.391507
53.9591
0.341282
53.6654
0.291334
53.3647
0.241705
53.0563
0.192442
52.7395
0.14359
52.4136
0.0951988
52.0777
0.0473178
51.7308
0
51.3719
-0.0466995
50.9997
-0.0927224
50.6127
-0.138007
50.2092
-0.182486
49.7872
-0.226088
49.3443
-0.268733
48.8775
-0.310335
48.3836
-0.350794
47.8582
-0.389999
47.2944
-0.42782
46.68
-0.464082
46.0075
-0.498521
45.2975
-0.530914
44.5666
-0.561457
43.5987
-0.590323
41.6481
-0.613664
37.8543
-0.617507
32.5697
-0.584855
27.5421
-0.522396
24.1401
-0.463108
22.3556
-0.429638
21.5562
-0.420203
21.2365
-0.424828
21.1353
-0.43628
21.1366
-0.450902
21.1902
-0.467045
21.2737
-0.483977
21.3765
-0.501356
21.4929
-0.519015
21.6196
-0.536858
21.7548
-0.55483
21.8969
-0.572889
22.045
-0.591009
22.1986
-0.609159
22.3562
-0.627339
22.5199
-0.645465
22.6815
-0.66373
22.8651
-0.681451
-0.700728
22.996
59.5081
1.9956
-59.7049
59.3101
1.95199
59.1108
1.9076
58.9104
1.86246
58.7087
1.81659
58.5057
1.77002
58.3015
1.72278
58.0961
1.6749
57.8893
1.6264
57.6811
1.57731
57.4716
1.52767
57.2606
1.47751
57.0481
1.42685
56.834
1.37572
56.6182
1.32417
56.4007
1.27221
56.1814
1.21989
55.9601
1.16724
55.7368
1.11429
55.5113
1.06108
55.2835
1.00763
55.0533
0.953997
54.8204
0.900205
54.5847
0.846293
54.346
0.792298
54.104
0.738258
53.8587
0.684211
53.6096
0.630197
53.3565
0.576256
53.0991
0.522429
52.8371
0.468756
52.57
0.41528
52.2976
0.362044
52.0193
0.309092
51.7346
0.256471
51.4431
0.204226
51.144
0.152405
50.8368
0.10106
50.5206
0.0502399
50.1946
0
49.8578
-0.0496038
49.5091
-0.0985121
49.1472
-0.146662
48.7707
-0.193987
48.3778
-0.240415
47.9665
-0.285867
47.5342
-0.330255
47.078
-0.373485
46.5945
-0.415446
46.0789
-0.456015
45.5224
-0.495041
44.9131
-0.532299
44.2532
-0.567493
43.5733
-0.600533
42.8368
-0.631848
41.6409
-0.66067
39.0973
-0.678831
34.6983
-0.667274
29.4559
-0.614426
25.1499
-0.542179
22.5555
-0.48683
21.292
-0.461362
20.7504
-0.457826
20.5456
-0.46591
20.4944
-0.479451
20.5172
-0.495528
20.5795
-0.512845
20.6654
-0.530821
20.7672
-0.54918
20.8805
-0.567779
21.003
-0.586537
21.1328
-0.605402
21.269
-0.624337
21.4107
-0.643309
21.5568
-0.662314
21.7088
-0.681265
21.8593
-0.700354
22.0304
-0.718893
-0.738997
22.1531
57.6291
2.10475
-57.8215
57.4356
2.05869
57.2411
2.01183
57.0456
1.96417
56.8491
1.91576
56.6515
1.86662
56.4529
1.81677
56.2532
1.76625
56.0525
1.71509
55.8506
1.66332
55.6475
1.61096
55.4431
1.55806
55.2375
1.50464
55.0306
1.45074
54.8222
1.39638
54.6124
1.34161
54.4009
1.28646
54.1878
1.23096
53.9729
1.17515
53.7561
1.11906
53.5373
1.06273
53.3163
1.0062
53.0931
0.949499
52.8673
0.892676
52.6389
0.835763
52.4076
0.778802
52.1733
0.721832
51.9357
0.664893
51.6945
0.608027
51.4495
0.551276
51.2003
0.494683
50.9467
0.438291
50.6882
0.382145
50.4245
0.326291
50.155
0.270774
49.8794
0.215645
49.5971
0.160951
49.3075
0.106743
49.0098
0.0530744
48.7034
0
48.3873
-0.0524231
48.0606
-0.104135
47.7222
-0.155072
47.3708
-0.205168
47.0048
-0.254349
46.6226
-0.302539
46.222
-0.349651
45.8004
-0.395592
45.3549
-0.440255
44.8821
-0.48352
44.376
-0.52525
43.8263
-0.565263
43.2244
-0.603278
42.5846
-0.639017
41.9337
-0.672627
41.138
-0.704554
39.596
-0.73185
36.4294
-0.740651
31.6557
-0.7095
26.7546
-0.638284
23.2227
-0.562248
21.288
-0.513923
20.3974
-0.496192
20.0302
-0.497605
19.9018
-0.508515
19.8837
-0.52381
19.9205
-0.541157
19.9879
-0.559529
20.0744
-0.578456
20.1743
-0.597711
20.2842
-0.617172
20.4022
-0.636766
20.5267
-0.656447
20.6572
-0.676173
20.7921
-0.695937
20.933
-0.715648
21.0729
-0.735497
21.232
-0.754794
-0.775654
21.347
55.8074
2.21009
-55.9953
55.6186
2.16168
55.429
2.11242
55.2385
2.06234
55.0473
2.01147
54.8552
1.95985
54.6622
1.90749
54.4683
1.85443
54.2736
1.8007
54.0779
1.74634
53.8812
1.69137
53.6835
1.63583
53.4847
1.57975
53.2848
1.52317
53.0837
1.46612
52.8813
1.40863
52.6775
1.35075
52.4724
1.2925
52.2657
1.23393
52.0573
1.17507
51.8472
1.11596
51.6353
1.05664
51.4213
0.997139
51.2051
0.937508
50.9866
0.877782
50.7656
0.818003
50.5419
0.758213
50.3152
0.698451
50.0854
0.638762
49.8522
0.579189
49.6153
0.519775
49.3744
0.460566
49.1292
0.401608
48.8793
0.342947
48.6243
0.284631
48.3638
0.22671
48.0973
0.169233
47.8242
0.112253
47.544
0.0558237
47.256
0
46.9593
-0.0551598
46.6532
-0.109595
46.3366
-0.163243
46.0085
-0.216035
45.6675
-0.267899
45.3122
-0.31876
44.9407
-0.368532
44.5509
-0.417125
44.1402
-0.464434
43.7057
-0.510344
43.2435
-0.554724
42.7465
-0.59742
42.2039
-0.638204
41.6133
-0.676754
41.0004
-0.712889
40.365
-0.747044
39.4364
-0.779138
37.4529
-0.802508
33.7266
-0.797261
28.8475
-0.744292
24.4834
-0.658986
21.6751
-0.584488
20.249
-0.544551
19.6204
-0.533718
19.3713
-0.539189
19.2941
-0.552413
19.2981
-0.569191
19.3439
-0.587654
19.414
-0.606972
19.5
-0.626762
19.5974
-0.646833
19.7036
-0.667076
19.8169
-0.687431
19.9364
-0.707843
20.0606
-0.728301
20.1909
-0.748711
20.3206
-0.769258
20.4684
-0.789254
-0.810802
20.576
54.0417
2.31175
-54.2249
53.8576
2.26106
53.673
2.2095
53.4877
2.15708
53.3017
2.10385
53.1151
2.04982
52.9277
1.99504
52.7397
1.93954
52.5509
1.88334
52.3614
1.82648
52.171
1.76899
51.9799
1.71091
51.7878
1.65227
51.5948
1.59311
51.4008
1.53346
51.2057
1.47336
51.0095
1.41284
50.812
1.35195
50.6133
1.29072
50.4131
1.22919
50.2115
1.16739
50.0082
1.10538
49.8032
1.04318
49.5963
0.980842
49.3873
0.918404
49.1761
0.855907
48.9626
0.793395
48.7464
0.730909
48.5275
0.668496
48.3056
0.606197
48.0804
0.54406
47.8516
0.48213
47.619
0.420454
47.3823
0.359079
47.141
0.298056
46.8947
0.237433
46.6431
0.177262
46.3857
0.117597
46.1219
0.0584905
45.8511
0
45.5726
-0.0578164
45.2857
-0.114898
44.9896
-0.17118
44.6831
-0.226596
44.3654
-0.281075
44.0349
-0.33454
43.6902
-0.386909
43.3296
-0.438093
42.9507
-0.487991
42.551
-0.536493
42.1276
-0.583473
41.676
-0.62879
41.1877
-0.672262
40.6533
-0.713611
40.0794
-0.752501
39.4965
-0.788953
38.8482
-0.823608
37.7056
-0.854953
35.2323
-0.87111
31.0873
-0.847478
26.3506
-0.77298
22.6092
-0.679067
20.4206
-0.609927
19.3727
-0.578477
18.9265
-0.573511
18.7579
-0.582277
18.7155
-0.597404
18.7342
-0.615447
18.7856
-0.634891
18.8569
-0.655056
18.9415
-0.675625
19.036
-0.696431
19.1383
-0.717383
19.2471
-0.738414
19.361
-0.759501
19.481
-0.780547
19.601
-0.801731
19.7379
-0.822372
-0.844541
19.8384
52.3304
2.40984
-52.509
52.1513
2.35696
51.9716
2.30317
51.7915
2.2485
51.6108
2.19299
51.4297
2.13666
51.248
2.07954
51.0657
2.02168
50.8829
1.9631
50.6994
1.90383
50.5153
1.84392
50.3306
1.78339
50.1451
1.72228
49.9588
1.66063
49.7718
1.59848
49.5838
1.53586
49.395
1.47281
49.205
1.40937
49.014
1.34557
48.8218
1.28147
48.6284
1.21709
48.4335
1.15248
48.2371
1.08768
48.0391
1.02273
47.8393
0.957675
47.6375
0.892557
47.4337
0.827419
47.2277
0.762306
47.0192
0.697262
46.808
0.632332
46.5939
0.567565
46.3767
0.503006
46.1561
0.438702
45.9318
0.374704
45.7034
0.311061
45.4707
0.247824
45.2332
0.185045
44.9905
0.122778
44.7421
0.0610773
44.4875
0
44.2261
-0.0603949
43.9572
-0.120046
43.6801
-0.17889
43.3938
-0.23686
43.0976
-0.293885
42.7901
-0.349889
42.4702
-0.404792
42.1362
-0.458507
41.7864
-0.510937
41.4185
-0.561977
41.0301
-0.611506
40.6179
-0.659389
40.1767
-0.705472
39.6972
-0.749538
39.1732
-0.791256
38.6215
-0.830338
38.0655
-0.867089
37.3634
-0.902072
35.9336
-0.931138
32.9817
-0.936232
28.6016
-0.891091
24.1934
-0.797649
21.0729
-0.700523
19.3848
-0.638903
18.6122
-0.615292
18.2931
-0.615179
18.1798
-0.626613
18.1612
-0.643315
18.1897
-0.662443
18.2445
-0.682749
18.3156
-0.70367
18.3983
-0.724935
18.4896
-0.746401
18.5881
-0.767977
18.692
-0.789629
18.8021
-0.81125
18.9127
-0.833012
19.0392
-0.854241
-0.876968
19.1329
50.6722
2.50447
-50.846
50.498
2.44948
50.3234
2.39355
50.1484
2.33671
49.9731
2.279
49.7974
2.22045
49.6213
2.16109
49.4447
2.10095
49.2678
2.04007
49.0903
1.97849
48.9124
1.91624
48.734
1.85335
48.5549
1.78987
48.3753
1.72583
48.1951
1.66126
48.0141
1.59621
47.8323
1.53072
47.6497
1.46482
47.4662
1.39856
47.2817
1.33197
47.0961
1.26511
46.9093
1.198
46.7213
1.13069
46.5318
1.06322
46.3408
0.995642
46.1482
0.927996
45.9537
0.860325
45.7573
0.792675
45.5587
0.725092
45.3578
0.657623
45.1543
0.590315
44.9481
0.523215
44.7389
0.456373
44.5264
0.389838
44.3103
0.323662
44.0903
0.257894
43.8661
0.19259
43.6373
0.127802
43.4034
0.0635862
43.1641
0
42.9186
-0.0628976
42.6665
-0.125046
42.4072
-0.18638
42.1398
-0.246833
41.8635
-0.306337
41.5774
-0.364816
41.2802
-0.422192
40.9709
-0.478378
40.6476
-0.533283
40.3088
-0.586805
39.952
-0.63883
39.5749
-0.689229
39.174
-0.737859
38.7431
-0.784547
38.2728
-0.829032
37.7625
-0.870945
37.2372
-0.910124
36.6973
-0.947183
35.8939
-0.982085
34.1271
-1.00673
30.7627
-0.996872
26.3345
-0.928871
22.365
-0.820573
19.8084
-0.724628
18.5093
-0.671309
17.9353
-0.654547
17.7052
-0.658387
17.6304
-0.671984
17.6281
-0.689997
17.663
-0.710054
17.7194
-0.731116
17.7897
-0.752705
17.87
-0.774588
17.9581
-0.796631
18.0522
-0.818778
18.1527
-0.840911
18.2543
-0.863191
18.3709
-0.884954
-0.908177
18.458
49.0657
2.59576
-49.2346
48.8964
2.53873
48.7268
2.48074
48.557
2.42181
48.387
2.36199
48.2167
2.3013
48.0461
2.23977
47.8752
2.17745
47.704
2.11436
47.5325
2.05055
47.3607
1.98605
47.1884
1.92089
47.0157
1.85512
46.8426
1.78877
46.6689
1.72188
46.4947
1.6545
46.3199
1.58665
46.1444
1.51839
45.9681
1.44975
45.7911
1.38077
45.6131
1.3115
45.4342
1.24198
45.2541
1.17225
45.0729
1.10236
44.8904
1.03235
44.7064
0.962264
44.5209
0.89215
44.3337
0.822053
44.1446
0.75202
43.9535
0.682098
43.7601
0.612335
43.5643
0.542781
43.3659
0.473485
43.1646
0.404497
42.9602
0.33587
42.7523
0.267654
42.5406
0.199904
42.3249
0.132674
42.1047
0.0660199
41.8796
0
41.6491
-0.0653269
41.4128
-0.129899
41.17
-0.193654
40.9202
-0.256524
40.6624
-0.318441
40.396
-0.379332
40.12
-0.439118
39.8332
-0.497717
39.5344
-0.55504
39.2219
-0.610988
38.894
-0.665455
38.5485
-0.718317
38.1829
-0.769441
37.7934
-0.818672
37.3728
-0.865812
36.9128
-0.910552
36.4196
-0.952516
35.9226
-0.991751
35.3814
-1.0291
34.4304
-1.0632
32.3094
-1.08082
28.6371
-1.05268
24.3201
-0.962311
20.8304
-0.843753
18.7551
-0.752001
17.7514
-0.706809
17.32
-0.695822
17.1528
-0.702853
17.1049
-0.718207
17.1138
-0.737313
17.1527
-0.758167
17.2096
-0.779886
17.2785
-0.802061
17.3563
-0.824479
17.4407
-0.847044
17.5318
-0.869624
17.6247
-0.89236
17.7316
-0.914604
-0.938261
17.8125
47.5093
2.68381
-47.6734
47.3449
2.62482
47.1804
2.56485
47.0158
2.50391
46.851
2.44205
46.686
2.3793
46.5209
2.31569
46.3556
2.25126
46.1902
2.18605
46.0245
2.12009
45.8585
2.05342
45.6923
1.98608
45.5258
1.91811
45.359
1.84954
45.1918
1.78041
45.0242
1.71078
44.8561
1.64067
44.6875
1.57013
44.5183
1.49919
44.3484
1.42792
44.1778
1.35633
44.0064
1.28449
43.8341
1.21243
43.6607
1.1402
43.4863
1.06784
43.3107
0.995403
43.1338
0.922931
42.9553
0.850472
42.7753
0.778073
42.5935
0.705783
42.4098
0.63365
42.224
0.561724
42.0358
0.490057
41.8451
0.418697
41.6517
0.347698
41.4552
0.277112
41.2554
0.206994
41.052
0.137398
40.8447
0.0683806
40.633
0
40.4166
-0.0676847
40.195
-0.134612
39.9677
-0.200719
39.7342
-0.26594
39.4937
-0.330206
39.2456
-0.393445
38.989
-0.455582
38.7231
-0.516535
38.4466
-0.576218
38.1583
-0.634537
37.8566
-0.691391
37.5398
-0.746663
37.2056
-0.800227
36.8516
-0.85194
36.4735
-0.901635
36.0633
-0.949086
35.6152
-0.993933
35.1426
-1.03584
34.6724
-1.07513
34.1083
-1.11269
32.9729
-1.14492
30.5148
-1.15274
26.6549
-1.104
22.5641
-0.993252
19.5439
-0.868685
17.8626
-0.782783
17.0802
-0.744985
16.7517
-0.738752
16.6291
-0.748345
16.6001
-0.765125
16.6167
-0.785142
16.6581
-0.806675
16.7146
-0.828961
16.7817
-0.851635
16.8564
-0.874532
16.9383
-0.897485
17.0226
-0.920614
17.1202
-0.943282
-0.967311
17.195
46.0017
2.76873
-46.1611
45.8423
2.70786
45.6828
2.64598
45.5232
2.58311
45.3636
2.51929
45.204
2.45456
45.0443
2.38895
44.8845
2.32249
44.7246
2.25523
44.5646
2.18721
44.4045
2.11845
44.2442
2.04901
44.0838
1.97891
43.9231
1.90821
43.7622
1.83693
43.6009
1.76513
43.4394
1.69284
43.2774
1.6201
43.115
1.54696
42.9521
1.47346
42.7886
1.39965
42.6244
1.32557
42.4595
1.25126
42.2938
1.17678
42.1272
1.10216
41.9596
1.02745
41.7908
0.952704
41.6208
0.877965
41.4494
0.803283
41.2765