/*--------------------------------*- C++ -*----------------------------------*\
| =========                 |                                                 |
| \\      /  F ield         | OpenFOAM: The Open Source CFD Toolbox           |
|  \\    /   O peration     | Version:  2312                                  |
|   \\  /    A nd           | Website:  www.openfoam.com                      |
|    \\/     M anipulation  |                                                 |
\*---------------------------------------------------------------------------*/
FoamFile
{
    version     2.0;
    format      ascii;
    arch        "LSB;label=32;scalar=64";
    class       surfaceScalarField;
    location    "0.577";
    object      phi;
}
// * * * * * * * * * * * * * * * * * * * * * * * * * * * * * * * * * * * * * //

dimensions      [0 3 -1 0 0 0 0];

oriented        oriented;

internalField   nonuniform List<scalar> 
62015
(
89.7364
0.175044
-89.8619
89.6032
0.171531
89.4623
0.167927
89.314
0.164234
89.1584
0.160456
88.9954
0.156595
88.8253
0.152654
88.6482
0.148636
88.4639
0.144545
88.2726
0.140382
88.0743
0.136151
87.869
0.131856
87.6567
0.127499
87.4372
0.123083
87.2107
0.118613
86.9768
0.114091
86.7357
0.109521
86.487
0.104907
86.2307
0.100251
85.9666
0.0955572
85.6944
0.0908301
85.414
0.0860725
85.125
0.0812886
84.8271
0.0764823
84.5199
0.0716572
84.2031
0.0668177
83.8763
0.0619673
83.5388
0.0571109
83.1902
0.0522524
82.8299
0.047396
82.4572
0.042546
82.0713
0.0377075
81.6713
0.0328852
81.2564
0.0280831
80.8254
0.0233072
80.3771
0.0185616
79.9101
0.0138526
79.423
0.00918557
78.9139
0.00456566
78.3808
0
77.8214
-0.0045053
77.2328
-0.00894369
76.612
-0.0133067
75.9549
-0.0175868
75.2568
-0.0217752
74.5122
-0.0258607
73.715
-0.029833
72.856
-0.0336785
71.9131
-0.0373821
70.8613
-0.0409169
69.735
-0.0442497
68.6345
-0.0473947
67.3189
-0.0504332
64.4406
-0.0531268
58.1377
-0.054047
48.9161
-0.051072
40.2563
-0.0447291
34.7629
-0.0388314
32.1741
-0.0358343
31.1825
-0.0352934
30.8935
-0.0360511
30.8984
-0.0373879
31.033
-0.0389795
31.2316
-0.0406927
31.4665
-0.0424722
31.7248
-0.0442931
31.9999
-0.0461434
32.288
-0.0480163
32.5867
-0.0499075
32.8943
-0.0518139
33.2096
-0.053733
33.5318
-0.0556623
33.86
-0.0576007
34.1942
-0.059545
34.5321
-0.0614971
34.8792
-0.0634446
35.2166
-0.0654192
35.6019
-0.067316
-0.069457
35.8571
87.0827
0.344989
-87.2171
86.9416
0.338019
86.7937
0.330873
86.6393
0.323558
86.4784
0.316078
86.3111
0.308439
86.1375
0.300646
85.9576
0.292705
85.7715
0.284622
85.5792
0.276402
85.3806
0.268051
85.1759
0.259576
84.9649
0.250983
84.7476
0.242278
84.5239
0.233466
84.2938
0.224556
84.0572
0.215553
83.8138
0.206464
83.5637
0.197296
83.3066
0.188056
83.0422
0.17875
82.7705
0.169387
82.4911
0.159973
82.2037
0.150515
81.9079
0.141022
81.6036
0.131501
81.2902
0.12196
80.9672
0.112407
80.6343
0.102849
80.2908
0.0932961
79.9361
0.0837556
79.5695
0.0742368
79.1902
0.0647483
78.7975
0.0553001
78.3903
0.0459006
77.9676
0.0365604
77.5281
0.0272893
77.0705
0.0180979
76.5932
0.00899772
76.0945
0
75.5722
-0.00888291
75.024
-0.0176379
74.4471
-0.0262512
73.8383
-0.0347074
73.1934
-0.0429898
72.5076
-0.0510801
71.7755
-0.0589569
70.991
-0.0665979
70.141
-0.0739762
69.1995
-0.0810538
68.1572
-0.0877663
67.0881
-0.0940713
66.039
-0.10008
64.4114
-0.105873
60.4646
-0.110156
52.9527
-0.108919
43.7738
-0.0991402
36.4799
-0.0853895
32.4299
-0.0754891
30.6862
-0.0716375
30.0695
-0.071761
29.9299
-0.0737839
29.9917
-0.0766328
30.1458
-0.079851
30.3478
-0.0832522
30.5784
-0.0867577
30.8284
-0.090331
31.0928
-0.0939536
31.3686
-0.0976143
31.6539
-0.101306
31.9472
-0.105023
32.2476
-0.10876
32.5542
-0.112515
32.8669
-0.116281
33.1833
-0.120062
33.5088
-0.123834
33.8256
-0.127656
34.1871
-0.131333
-0.135466
34.4296
84.496
0.509912
-84.638
84.348
0.499545
84.1941
0.488925
84.0345
0.47806
83.8692
0.466957
83.6983
0.455624
83.5218
0.444069
83.3398
0.432301
83.1523
0.420327
82.9593
0.408155
82.7609
0.395796
82.5569
0.383256
82.3474
0.370546
82.1324
0.357673
81.9117
0.344648
81.6853
0.33148
81.4531
0.318178
81.2149
0.304753
80.9707
0.291213
80.7202
0.277569
80.4633
0.26383
80.1997
0.250009
79.9293
0.236114
79.6518
0.222157
79.3667
0.208149
79.074
0.1941
78.773
0.180022
78.4636
0.165927
78.1451
0.151826
77.8171
0.137731
77.479
0.123655
77.1302
0.10961
76.77
0.0956089
76.3976
0.0816654
76.0123
0.0677921
75.6129
0.0540041
75.1984
0.0403156
74.7677
0.0267411
74.3193
0.0132972
73.8516
0
73.3629
-0.0131331
72.8511
-0.0260837
72.3136
-0.0388324
71.7479
-0.0513574
71.1503
-0.0636361
70.5167
-0.0756435
69.8422
-0.0873501
69.1217
-0.0987246
68.3477
-0.109731
67.5021
-0.120328
66.56
-0.13044
65.5417
-0.139968
64.5464
-0.14893
63.458
-0.157599
61.2126
-0.165579
55.966
-0.169142
47.6062
-0.161457
39.1162
-0.142164
33.3746
-0.122344
30.5447
-0.111138
29.4204
-0.108142
29.0628
-0.109672
29.0245
-0.113229
29.1241
-0.117663
29.2899
-0.1225
29.492
-0.127545
29.7172
-0.132714
29.9585
-0.137966
30.2123
-0.143279
30.4761
-0.148641
30.7484
-0.154041
31.0281
-0.159472
31.3141
-0.164927
31.6063
-0.1704
31.9025
-0.175893
32.2074
-0.181375
32.5047
-0.186926
32.8435
-0.192271
-0.198258
33.0732
81.9745
0.669892
-82.1228
81.821
0.656193
81.6623
0.64217
81.4986
0.627832
81.3299
0.613188
81.1563
0.598249
80.9778
0.583024
80.7944
0.567526
80.6063
0.551763
80.4133
0.535746
80.2155
0.519488
80.0128
0.502998
79.8053
0.486289
79.5928
0.469372
79.3754
0.452258
79.1529
0.434961
78.9252
0.417493
78.6923
0.399865
78.454
0.38209
78.2101
0.364182
77.9604
0.346153
77.7049
0.328017
77.4432
0.309787
77.1751
0.291478
76.9003
0.273103
76.6186
0.254675
76.3295
0.236211
76.0328
0.217724
75.728
0.199231
75.4146
0.180745
75.0921
0.162283
74.76
0.143861
74.4176
0.125496
74.0643
0.107203
73.6992
0.0890014
73.3215
0.0709082
72.9303
0.0529417
72.5244
0.0351217
72.1026
0.0174674
71.6635
0
71.2056
-0.0172587
70.727
-0.0342857
70.2256
-0.0510565
69.6989
-0.0675441
69.144
-0.0837216
68.5575
-0.0995561
67.9349
-0.115014
67.2716
-0.130056
66.5623
-0.144639
65.7966
-0.158714
64.9518
-0.172213
64.0141
-0.185014
63.0424
-0.197018
62.1123
-0.208419
60.8083
-0.219522
57.6206
-0.228364
51.0897
-0.227394
42.4863
-0.209005
35.1861
-0.18006
30.9236
-0.157194
29.0242
-0.147038
28.3255
-0.145898
28.1392
-0.149174
28.1669
-0.154361
28.2902
-0.160381
28.4619
-0.166797
28.6619
-0.173426
28.8805
-0.180188
29.113
-0.187041
29.3563
-0.193961
29.6085
-0.200935
29.8684
-0.20795
30.1348
-0.214997
30.4076
-0.222068
30.6845
-0.229164
30.97
-0.236245
31.2488
-0.243413
31.5662
-0.250322
-0.258035
31.783
79.5176
0.825013
-79.6709
79.3597
0.808053
79.1974
0.790702
79.0307
0.77297
78.8597
0.754871
78.6843
0.736415
78.5047
0.717616
78.3208
0.698484
78.1327
0.679035
77.9404
0.65928
77.7438
0.639233
77.543
0.618908
77.3379
0.598317
77.1285
0.577476
76.9146
0.556399
76.6963
0.5351
76.4734
0.513594
76.2459
0.491896
76.0136
0.470021
75.7763
0.447986
75.5339
0.425805
75.2863
0.403495
75.0332
0.381072
74.7743
0.358553
74.5095
0.335954
74.2385
0.313294
73.9609
0.290588
73.6764
0.267856
73.3847
0.245115
73.0852
0.222384
72.7776
0.199681
72.4613
0.177027
72.1358
0.15444
71.8005
0.131941
71.4545
0.10955
71.0973
0.0872897
70.7278
0.0651815
70.3451
0.0432476
69.9482
0.0215122
69.5358
0
69.1064
-0.0212633
68.6586
-0.0422507
68.1904
-0.0629332
67.6997
-0.0832798
67.1841
-0.103258
66.6404
-0.122832
66.0651
-0.141962
65.4538
-0.160603
64.8021
-0.178706
64.1039
-0.196216
63.3443
-0.213068
62.4998
-0.229152
61.58
-0.244304
60.6756
-0.258511
59.7527
-0.27223
57.9891
-0.285241
53.6452
-0.292383
46.1496
-0.282097
37.9522
-0.250537
32.0566
-0.214402
29.0204
-0.191719
27.775
-0.184062
27.3549
-0.185183
27.2781
-0.190291
27.3471
-0.197099
27.4842
-0.204662
27.6577
-0.212598
27.8536
-0.220742
28.0652
-0.229019
28.2886
-0.23739
28.5215
-0.245832
28.7625
-0.254325
29.0103
-0.262861
29.2645
-0.271425
29.5232
-0.280019
29.7901
-0.288596
30.0513
-0.297275
30.3486
-0.305649
-0.314968
30.5528
77.1246
0.975364
-77.2816
76.9636
0.955218
76.7988
0.934617
76.6301
0.913576
76.4576
0.892108
76.2814
0.870228
76.1014
0.847948
75.9177
0.825284
75.7304
0.802252
75.5394
0.778865
75.3446
0.75514
75.1462
0.731091
74.9439
0.706736
74.7379
0.682091
74.528
0.657171
74.3142
0.631995
74.0963
0.606579
73.8744
0.58094
73.6482
0.555097
73.4176
0.529068
73.1825
0.50287
72.9427
0.476522
72.6981
0.450044
72.4483
0.423454
72.1933
0.396773
71.9327
0.370019
71.6662
0.343213
71.3935
0.316377
71.1144
0.28953
70.8283
0.262694
70.5349
0.235891
70.2338
0.209143
69.9243
0.182474
69.606
0.155905
69.2782
0.129461
68.9402
0.103166
68.5912
0.0770462
68.2305
0.0511272
67.8569
0.0254357
67.4694
0
67.0668
-0.0251506
66.6476
-0.0499856
66.2103
-0.074472
65.7529
-0.0985761
65.2734
-0.12226
64.7692
-0.145485
64.2371
-0.168207
63.6735
-0.190378
63.0741
-0.211942
62.4346
-0.23284
61.7468
-0.253006
60.9914
-0.272347
60.1515
-0.290699
59.269
-0.307891
58.4355
-0.324135
57.402
-0.340045
54.9251
-0.353741
49.4117
-0.355263
41.4655
-0.331177
34.1644
-0.286756
29.627
-0.247253
27.5184
-0.227165
26.7129
-0.22263
26.4718
-0.226064
26.4641
-0.232959
26.5583
-0.241329
26.7025
-0.25037
26.8749
-0.259753
27.0656
-0.269336
27.2695
-0.279049
27.4838
-0.288853
27.7066
-0.298725
27.9366
-0.308648
28.1731
-0.318605
28.4143
-0.328599
28.6637
-0.338573
28.908
-0.348661
29.1863
-0.358404
-0.369215
29.3784
74.7951
1.12104
-74.9547
74.632
1.09779
74.4655
1.07402
74.2957
1.04975
74.1226
1.025
73.9463
0.999791
73.7667
0.974128
73.5839
0.948032
73.3979
0.921519
73.2088
0.894607
73.0163
0.867312
72.8207
0.839654
72.6217
0.811649
72.4195
0.783316
72.2138
0.754675
72.0047
0.725744
71.7921
0.696542
71.5759
0.66709
71.3559
0.637406
71.132
0.607513
70.9042
0.577429
70.6723
0.547177
70.436
0.516777
70.1952
0.486252
69.9496
0.455623
69.6992
0.424913
69.4435
0.394144
69.1823
0.363339
68.9152
0.332523
68.642
0.301719
68.3623
0.270951
68.0756
0.240246
67.7814
0.209626
67.4793
0.17912
67.1687
0.148753
66.849
0.118553
66.5194
0.0885488
66.1793
0.0587681
65.8276
0.0292416
65.4635
0
65.0859
-0.0289242
64.6935
-0.0574968
64.2849
-0.0856827
63.8585
-0.113444
63.4124
-0.140741
62.9445
-0.167529
62.4521
-0.193763
61.932
-0.219392
61.3806
-0.244356
60.7938
-0.268592
60.1669
-0.29203
59.4884
-0.314587
58.737
-0.336132
57.911
-0.356443
57.0847
-0.375429
56.2952
-0.393646
54.9851
-0.4114
51.6052
-0.423501
45.1211
-0.414586
37.2709
-0.373914
31.1149
-0.319453
27.7376
-0.280338
26.2925
-0.264182
25.7774
-0.262856
25.651
-0.268489
25.6868
-0.277071
25.7959
-0.28692
25.9428
-0.297362
26.1122
-0.308117
26.2969
-0.319057
26.4929
-0.330121
26.6982
-0.341271
26.911
-0.352485
27.1307
-0.363739
27.3552
-0.375036
27.5878
-0.386313
27.8161
-0.397715
28.0763
-0.408737
-0.420932
28.2568
72.5282
1.26215
-72.6896
72.3639
1.23586
72.1966
1.20901
72.0265
1.1816
71.8535
1.15367
71.6778
1.12521
71.4992
1.09626
71.3179
1.06683
71.1338
1.03694
70.947
1.00661
70.7573
0.975855
70.5648
0.944697
70.3695
0.913156
70.1713
0.881253
69.9701
0.849007
69.766
0.816441
69.5587
0.783576
69.3483
0.750433
69.1346
0.717035
68.9176
0.683404
68.697
0.649563
68.4728
0.615536
68.2447
0.581345
68.0127
0.547015
67.7765
0.51257
67.5359
0.478035
67.2906
0.443435
67.0405
0.408795
66.7852
0.374141
66.5243
0.339501
66.2576
0.3049
65.9847
0.270365
65.7052
0.235926
65.4185
0.20161
65.1243
0.167447
64.8218
0.133467
64.5105
0.0996998
64.1898
0.0661776
63.8588
0.0329331
63.5166
0
63.1624
-0.0325867
62.795
-0.0647906
62.4132
-0.0965734
62.0155
-0.127894
61.6004
-0.158711
61.166
-0.188977
60.71
-0.218644
60.2298
-0.247658
59.7223
-0.275958
59.1836
-0.303479
58.61
-0.330145
57.9957
-0.355875
57.3255
-0.380567
56.5801
-0.404032
55.7813
-0.426016
55.0221
-0.446646
54.2128
-0.466806
52.4433
-0.485556
48.0917
-0.492613
40.988
-0.468516
33.6793
-0.410996
28.7013
-0.350688
26.2385
-0.314766
25.2534
-0.303007
24.9291
-0.304699
24.8767
-0.31235
24.9396
-0.322499
25.057
-0.333737
25.2037
-0.345498
25.3688
-0.357541
25.547
-0.369757
25.7352
-0.382086
25.9314
-0.394495
26.1348
-0.406954
26.3434
-0.419463
26.5599
-0.431951
26.773
-0.444576
27.016
-0.456791
-0.470265
27.1855
70.3233
1.39879
-70.4856
70.1585
1.36955
69.9912
1.33969
69.8214
1.30924
69.6492
1.2782
69.4746
1.2466
69.2976
1.21446
69.1182
1.1818
68.9365
1.14863
68.7524
1.11498
68.5658
1.08087
68.3768
1.04632
68.1854
1.01136
67.9915
0.975997
67.795
0.940263
67.596
0.90418
67.3942
0.86777
67.1897
0.831057
66.9824
0.794067
66.7721
0.756822
66.5587
0.719349
66.3421
0.681671
66.1222
0.643816
65.8987
0.605808
65.6716
0.567675
65.4406
0.529443
65.2055
0.49114
64.966
0.452793
64.7219
0.41443
64.473
0.376079
64.2188
0.337771
63.9591
0.299535
63.6934
0.261401
63.4215
0.223399
63.1427
0.185562
62.8566
0.147921
62.5627
0.11051
62.2602
0.0733631
61.9486
0.0365142
61.6271
0
61.2948
-0.0361421
60.9507
-0.0718734
60.5939
-0.107153
60.2229
-0.141938
59.8365
-0.176184
59.433
-0.209843
59.0105
-0.242863
58.5668
-0.275188
58.0993
-0.306758
57.6046
-0.337506
57.0792
-0.367353
56.5194
-0.396217
55.9173
-0.424006
55.2548
-0.450581
54.5204
-0.475688
53.7637
-0.499111
53.0667
-0.52133
52.1416
-0.543311
49.7545
-0.561442
44.503
-0.559112
37.1863
-0.516274
30.6995
-0.444073
26.7904
-0.38219
25.0123
-0.351086
24.3417
-0.343633
24.1432
-0.348041
24.1385
-0.357515
24.2183
-0.369108
24.3394
-0.381641
24.4842
-0.394635
24.6443
-0.407885
24.8157
-0.421291
24.9958
-0.4348
25.1836
-0.448373
25.3768
-0.462004
25.5781
-0.475618
25.7766
-0.489377
26.0032
-0.502703
-0.517358
26.1621
68.1794
1.53106
-68.3418
68.0148
1.49896
67.848
1.46618
67.6792
1.43276
67.5083
1.39872
67.3354
1.36407
67.1604
1.32883
66.9834
1.29303
66.8044
1.25669
66.6233
1.21983
66.4402
1.18247
66.255
1.14464
66.0677
1.10635
65.8783
1.06765
65.6867
1.02854
65.4928
0.98905
65.2966
0.949212
65.0981
0.909048
64.8971
0.868583
64.6935
0.827845
64.4872
0.78686
64.2782
0.745655
64.0662
0.704257
63.8511
0.662695
63.6328
0.620997
63.4111
0.579193
63.1858
0.53731
62.9566
0.495379
62.7234
0.45343
62.4858
0.411494
62.2437
0.369602
61.9966
0.327785
61.7442
0.286077
61.4861
0.244509
61.2221
0.203116
60.9515
0.161932
60.6739
0.120991
60.3887
0.080331
60.0954
0.0399876
59.7932
0
59.4814
-0.0395928
59.1592
-0.0787503
58.8256
-0.117429
58.4795
-0.155585
58.1197
-0.193171
57.7448
-0.230137
57.3531
-0.266431
56.9429
-0.301996
56.5118
-0.336769
56.0572
-0.370683
55.5758
-0.40366
55.0643
-0.435616
54.5186
-0.466458
53.9282
-0.496079
53.2739
-0.52429
52.5582
-0.550779
51.8556
-0.575474
51.1966
-0.599301
50.0419
-0.62271
46.9409
-0.637732
40.9791
-0.621415
33.8222
-0.558242
28.2713
-0.475124
25.2567
-0.41512
23.9754
-0.389458
23.5188
-0.385937
23.4038
-0.392735
23.4302
-0.403844
23.5199
-0.416762
23.642
-0.430496
23.7835
-0.444639
23.9381
-0.45901
24.1025
-0.473522
24.2751
-0.488119
24.4536
-0.502786
24.6401
-0.51744
24.8246
-0.532248
25.0356
-0.546606
-0.562348
25.1845
66.0955
1.65909
-66.2575
65.9317
1.62419
65.7661
1.58859
65.5987
1.55229
65.4296
1.51532
65.2587
1.47771
65.0862
1.43947
64.9119
1.40063
64.7359
1.36121
64.5582
1.32124
64.3788
1.28074
64.1976
1.23973
64.0146
1.19824
63.8298
1.15629
63.6431
1.11392
63.4546
1.07114
63.264
1.02799
63.0714
0.984487
62.8767
0.940664
62.6798
0.896549
62.4806
0.85217
62.2789
0.807555
62.0747
0.762734
61.8679
0.717738
61.6582
0.672595
61.4455
0.627337
61.2296
0.581995
61.0104
0.536601
60.7876
0.491185
60.5609
0.445782
60.3302
0.400425
60.0951
0.355145
59.8554
0.30998
59.6106
0.264961
59.3605
0.220126
59.1045
0.175511
58.8424
0.131152
58.5735
0.0870881
58.2974
0.0433573
58.0134
0
57.7208
-0.0429425
57.419
-0.0854275
57.107
-0.12741
56.784
-0.168846
56.4489
-0.209684
56.1005
-0.249875
55.7373
-0.289365
55.3577
-0.328094
54.96
-0.366002
54.5418
-0.403019
54.1004
-0.439072
53.6327
-0.474073
53.1356
-0.507929
52.6041
-0.540541
52.0249
-0.571776
51.3809
-0.601383
50.6932
-0.629027
50.0506
-0.654912
49.3865
-0.680368
47.8922
-0.70438
44.0628
-0.713043
37.6479
-0.678677
30.9316
-0.595702
26.3028
-0.50594
23.9974
-0.450094
23.0707
-0.429816
22.7601
-0.429748
22.7009
-0.438628
22.7473
-0.451198
22.8424
-0.465327
22.9637
-0.48017
23.1011
-0.495374
23.2498
-0.510784
23.4076
-0.526311
23.5718
-0.541926
23.7441
-0.557539
23.9153
-0.573313
24.1113
-0.588628
-0.605367
24.2506
64.0707
1.78296
-64.2317
63.9081
1.74536
63.7441
1.70701
63.5786
1.66792
63.4117
1.62812
63.2433
1.58764
63.0734
1.5465
62.9022
1.50471
62.7295
1.46232
62.5554
1.41933
62.3798
1.37578
62.2028
1.3317
62.0243
1.28711
61.8442
1.24203
61.6626
1.1965
61.4794
1.15054
61.2945
1.10418
61.1079
1.05746
60.9194
1.01039
60.7291
0.963008
60.5368
0.915349
60.3424
0.86744
60.1458
0.819311
59.9469
0.770995
59.7455
0.722524
59.5416
0.673929
59.3349
0.625244
59.1252
0.576502
58.9124
0.527736
58.6962
0.478981
58.4764
0.430272
58.2528
0.381644
58.0251
0.333134
57.793
0.284777
57.5561
0.23661
57.314
0.188673
57.0665
0.141003
56.8129
0.0936404
56.553
0.0466255
56.286
0
56.0115
-0.0461933
55.7287
-0.0919101
55.437
-0.137105
55.1355
-0.181729
54.8233
-0.225735
54.4993
-0.269068
54.1623
-0.311675
53.811
-0.353497
53.4438
-0.394471
53.0588
-0.434529
52.6538
-0.473597
52.2259
-0.511593
51.7723
-0.548422
51.29
-0.583982
50.7725
-0.618167
50.2045
-0.650808
49.5743
-0.681584
48.9238
-0.7102
48.3384
-0.737262
47.6137
-0.764286
45.6947
-0.787563
41.2018
-0.786211
34.6027
-0.730937
28.4963
-0.63039
24.6978
-0.537853
22.9356
-0.487323
22.26
-0.471989
22.0495
-0.474884
22.028
-0.485567
22.087
-0.49944
22.1846
-0.514672
22.3037
-0.530532
22.4365
-0.546715
22.5795
-0.563072
22.7297
-0.579547
22.8884
-0.596034
23.0467
-0.612696
23.2283
-0.628894
-0.646541
23.3584
62.1037
1.9028
-62.2633
61.9429
1.86258
61.7809
1.82156
61.6176
1.77977
61.4532
1.73723
61.2875
1.69397
61.1207
1.65001
60.9528
1.60538
60.7836
1.5601
60.6133
1.5142
60.4418
1.46771
60.269
1.42065
60.0951
1.37305
59.9199
1.32495
59.7433
1.27637
59.5655
1.22733
59.3862
1.17788
59.2055
1.12803
59.0232
1.07783
58.8394
1.0273
58.6539
0.976467
58.4666
0.925374
58.2774
0.87405
58.0863
0.822527
57.893
0.770839
57.6975
0.719019
57.4996
0.667103
57.2991
0.615125
57.0959
0.563121
56.8898
0.511126
56.6805
0.459177
56.4679
0.40731
56.2516
0.355564
56.0314
0.303976
55.807
0.252585
55.5781
0.201431
55.3444
0.150554
55.1053
0.0999948
54.8605
0.0497958
54.6096
0
54.352
-0.0493484
54.087
-0.098204
53.8142
-0.14652
53.5327
-0.194247
53.2417
-0.241334
52.9404
-0.28773
52.6277
-0.333377
52.3024
-0.378218
51.9631
-0.422189
51.6084
-0.465223
51.2363
-0.507248
50.8446
-0.548182
50.4305
-0.587936
49.9915
-0.626407
49.5243
-0.663489
49.0207
-0.69906
48.4644
-0.732908
47.8525
-0.764645
47.2466
-0.794105
46.7066
-0.822381
45.863
-0.850747
43.474
-0.871475
38.4421
-0.856532
31.8943
-0.779018
26.4654
-0.66406
23.3709
-0.571692
22.016
-0.526767
21.5182
-0.515762
21.3769
-0.521165
21.3805
-0.533407
21.4473
-0.548441
21.5454
-0.564671
21.6613
-0.581461
21.7895
-0.59853
21.9259
-0.615769
22.0712
-0.633047
22.217
-0.650514
22.3849
-0.667522
-0.685994
22.5061
60.1936
2.01871
-60.3512
60.0348
1.97595
59.8751
1.93235
59.7144
1.88794
59.5527
1.84274
59.3901
1.79679
59.2266
1.75011
59.0621
1.70272
58.8966
1.65465
58.7303
1.60594
58.5629
1.5566
58.3946
1.50666
58.2253
1.45617
58.0549
1.40514
57.8835
1.3536
57.711
1.3016
57.5373
1.24915
57.3625
1.19629
57.1864
1.14306
57.0089
1.08948
56.8301
1.03559
56.6497
0.981421
56.4678
0.92701
56.2841
0.872388
56.0987
0.817592
55.9114
0.762656
55.722
0.707618
55.5303
0.652513
55.3364
0.597378
55.1398
0.54225
54.9406
0.487167
54.7384
0.432169
54.533
0.377292
54.3242
0.322578
54.1117
0.268066
53.8952
0.213797
53.6745
0.159813
53.449
0.106157
53.2186
0.052871
52.9827
0
52.7409
-0.0524106
52.4926
-0.104314
52.2374
-0.155663
51.9745
-0.206407
51.7033
-0.256494
51.423
-0.305872
51.1326
-0.354484
50.8313
-0.402272
50.5177
-0.449171
50.1906
-0.495117
49.8485
-0.540036
49.4895
-0.583852
49.1113
-0.626477
48.7113
-0.667815
48.2872
-0.707756
47.8352
-0.746188
47.3456
-0.782972
46.8021
-0.817837
46.2137
-0.850356
45.6562
-0.880585
45.1434
-0.910117
44.1302
-0.939387
41.2707
-0.955453
35.8545
-0.923906
29.5345
-0.824268
24.7748
-0.69821
22.2533
-0.607869
21.1999
-0.568257
20.8283
-0.560921
20.7351
-0.568426
20.7557
-0.582011
20.8269
-0.598074
20.9239
-0.615206
21.0364
-0.63283
21.159
-0.650721
21.2911
-0.668698
21.4248
-0.686888
21.5793
-0.704633
-0.723845
21.692
58.3389
2.1308
-58.4944
58.1826
2.08558
58.0255
2.03948
57.8676
1.99254
57.709
1.94477
57.5496
1.89622
57.3895
1.8469
57.2286
1.79685
57.0671
1.74608
56.9047
1.69464
56.7417
1.64255
56.5778
1.58984
56.4132
1.53654
56.2477
1.48268
56.0814
1.4283
55.9143
1.37342
55.7462
1.31808
55.5771
1.26231
55.407
1.20615
55.2358
1.14963
55.0635
1.09278
54.8899
1.03564
54.715
0.978248
54.5387
0.920633
54.3608
0.862834
54.1813
0.804889
54.0001
0.746833
53.817
0.688706
53.6319
0.630544
53.4445
0.572388
53.2548
0.514275
53.0626
0.456246
52.8675
0.398342
52.6696
0.340602
52.4683
0.283069
52.2636
0.225784
52.0552
0.168791
51.8426
0.112132
51.6256
0.0558539
51.4039
0
51.1769
-0.0553825
50.9442
-0.110246
50.7054
-0.164542
50.4599
-0.218219
50.207
-0.271226
49.9462
-0.323508
49.6765
-0.37501
49.3972
-0.425672
49.1072
-0.475432
48.8055
-0.524224
48.4907
-0.571977
48.1613
-0.618616
47.8154
-0.664057
47.4509
-0.708209
47.0653
-0.750966
46.6564
-0.792215
46.2199
-0.831839
45.7443
-0.869673
45.2155
-0.905384
44.6548
-0.938536
44.1462
-0.9695
43.6395
-1.0003
42.4224
-1.02984
39.1321
-1.0391
33.4886
-0.988837
27.5075
-0.868268
23.3605
-0.733972
21.2923
-0.646511
20.4609
-0.611575
20.1793
-0.607262
20.1196
-0.616512
20.1513
-0.631249
20.2246
-0.648222
20.3198
-0.666153
20.4279
-0.684546
20.5468
-0.703114
20.6684
-0.721938
20.81
-0.740344
-0.760213
20.9144
56.5387
2.23919
-56.6917
56.385
2.19158
56.2308
2.14306
56.0759
2.09367
55.9205
2.04342
55.7645
1.99235
55.608
1.94048
55.4509
1.88785
55.2933
1.83448
55.1351
1.78041
54.9764
1.72565
54.8171
1.67026
54.6571
1.61425
54.4966
1.55766
54.3354
1.50052
54.1735
1.44287
54.0109
1.38474
53.8476
1.32617
53.6834
1.26718
53.5183
1.20781
53.3523
1.14811
53.1853
1.0881
53.0173
1.02782
52.848
0.967316
52.6775
0.906616
52.5056
0.845761
52.3323
0.78479
52.1574
0.723741
51.9807
0.662655
51.8021
0.60157
51.6216
0.540528
51.4388
0.479569
51.2536
0.418735
51.0659
0.358067
50.8754
0.297609
50.6818
0.237404
50.4849
0.177495
50.2845
0.117928
50.0802
0.0587473
49.8717
0
49.6586
-0.0582667
49.4405
-0.116004
49.2171
-0.173163
48.9877
-0.229693
48.7519
-0.28554
48.5091
-0.340651
48.2586
-0.394968
47.9996
-0.448434
47.7314
-0.500985
47.4529
-0.552558
47.163
-0.603083
46.8605
-0.652486
46.5438
-0.700687
46.2113
-0.747598
45.8607
-0.793121
45.4897
-0.837146
45.0962
-0.879555
44.6751
-0.920223
44.214
-0.958958
43.7019
-0.99536
43.1725
-1.02903
42.71
-1.06072
42.1897
-1.09275
40.7558
-1.1218
37.1038
-1.12237
31.3712
-1.05233
25.7807
-0.912599
22.1656
-0.772125
20.4491
-0.687583
19.7806
-0.656499
19.5633
-0.654606
19.527
-0.665285
19.5659
-0.681004
19.6398
-0.698766
19.7319
-0.717423
19.8372
-0.736438
19.9467
-0.755791
20.0757
-0.774777
-0.795216
20.1719
54.7916
2.34397
-54.9419
54.6408
2.29405
54.4896
2.2432
54.3379
2.19143
54.1859
2.13879
54.0335
2.08528
53.8807
2.03095
53.7275
1.97583
53.5739
1.91994
53.4199
1.86332
53.2655
1.806
53.1108
1.74802
52.9555
1.68939
52.7999
1.63016
52.6437
1.57037
52.4871
1.51004
52.3299
1.44921
52.1722
1.38792
52.0138
1.3262
51.8547
1.26409
51.695
1.20163
51.5344
1.13885
51.3729
1.07579
51.2105
1.01249
51.0471
0.948985
50.8826
0.885319
50.7168
0.821531
50.5497
0.757659
50.3811
0.693745
50.211
0.629828
50.0391
0.565953
49.8654
0.50216
49.6896
0.438491
49.5116
0.37499
49.3312
0.311701
49.1482
0.248667
48.9623
0.185934
48.7733
0.123547
48.5809
0.0615538
48.3848
0
48.1848
-0.0610658
47.9804
-0.121594
47.7713
-0.181535
47.557
-0.240837
47.337
-0.299447
47.111
-0.357311
46.8782
-0.414372
46.638
-0.470571
46.3897
-0.525847
46.1325
-0.580136
45.8654
-0.63337
45.5874
-0.685477
45.2972
-0.736379
44.9934
-0.785994
44.6743
-0.834228
44.3376
-0.88098
43.9815
-0.926132
43.6035
-0.969563
43.1982
-1.01114
42.7521
-1.05064
42.2586
-1.0876
41.7625
-1.1217
41.3412
-1.15412
40.7932
-1.18727
39.1521
-1.21509
35.2234
-1.20563
29.5098
-1.11573
24.3153
-0.958712
21.1438
-0.813192
19.6957
-0.730978
19.1465
-0.702829
18.9754
-0.702794
18.9552
-0.714619
18.9985
-0.731156
19.0712
-0.749617
19.1615
-0.76885
19.2587
-0.788591
19.3749
-0.808059
-0.828973
19.4632
53.0963
2.44525
-53.2437
52.9486
2.39311
52.8006
2.34
52.6523
2.28594
52.5038
2.23097
52.355
2.17512
52.206
2.11841
52.0568
2.06088
51.9073
2.00256
51.7575
1.94349
51.6076
1.88369
51.4573
1.82319
51.3068
1.76204
51.156
1.70027
51.0049
1.63791
50.8534
1.57499
50.7016
1.51156
50.5493
1.44765
50.3966
1.38329
50.2434
1.31853
50.0897
1.2534
49.9353
1.18794
49.7803
1.1222
49.6245
1.0562
49.4679
0.989987
49.3104
0.923605
49.1519
0.857094
48.9923
0.790494
48.8316
0.723846
48.6695
0.657193
48.5059
0.590578
48.3408
0.524042
48.1739
0.457631
48.0052
0.391388
47.8343
0.325357
47.6613
0.259585
47.4857
0.194116
47.3075
0.128997
47.1263
0.0642761
46.942
0
46.7541
-0.063782
46.5625
-0.12702
46.3668
-0.189664
46.1666
-0.251661
45.9614
-0.312959
45.7509
-0.373502
45.5345
-0.433234
45.3116
-0.492098
45.0817
-0.550031
44.8441
-0.606972
44.5979
-0.662853
44.3422
-0.717604
44.0761
-0.77115
43.7982
-0.823412
43.5073
-0.874301
43.2016
-0.923722
42.8791
-0.971569
42.5378
-1.01772
42.1757
-1.06205
41.7862
-1.10442
41.3559
-1.14456
40.8827
-1.18197
40.4202
-1.21644
40.0346
-1.24956
39.453
-1.28368
37.6341
-1.30968
33.518
-1.28958
27.8981
-1.18059
23.0727
-1.0079
20.2586
-0.857537
19.0125
-0.77659
18.55
-0.750399
18.4116
-0.751692
18.4026
-0.764395
18.4477
-0.78162
18.52
-0.800618
18.6035
-0.82052
18.7067
-0.840335
-0.861613
18.787
51.4517
2.54315
-51.5961
51.3072
2.48885
51.1626
2.43355
51.0178
2.37728
50.8728
2.32007
50.7278
2.26195
50.5826
2.20295
50.4374
2.1431
50.292
2.08243
50.1465
2.02098
50.0009
1.95878
49.8552
1.89587
49.7094
1.83228
49.5634
1.76805
49.4172
1.70321
49.2708
1.6378
49.1242
1.57185
48.9773
1.50541
48.8302
1.43851
48.6827
1.37119
48.5348
1.30349
48.3865
1.23544
48.2377
1.1671
48.0883
1.09849
47.9383
1.02967
47.7876
0.960662
47.6361
0.89152
47.4837
0.822282
47.3304
0.752992
47.176
0.683693
47.0203
0.614427
46.8634
0.54524
46.705
0.476175
46.545
0.407278
46.3833
0.338594
46.2196
0.270169
46.0539
0.202049
45.8858
0.134283
45.7152
0.0669166
45.5418
0
45.3655
-0.0664179
45.1858
-0.132287
45.0026
-0.197556
44.8155
-0.262173
44.624
-0.326084
44.428
-0.389235
44.2268
-0.451569
44.02
-0.513029
43.807
-0.573554
43.5874
-0.633082
43.3603
-0.691547
43.125
-0.748882
42.8807
-0.805014
42.6264
-0.859865
42.3609
-0.913352
42.0829
-0.965387
41.7906
-1.01587
41.4822
-1.06469
41.156
-1.11172
40.8097
-1.15683
40.4364
-1.19988
40.0228
-1.24057
39.5709
-1.27834
39.141
-1.31312
38.7861
-1.34691
38.1745
-1.38184
36.2225
-1.40571
32.0042
-1.37519
26.5221
-1.24853
22.0189
-1.06133
19.4828
-0.905486
18.3853
-0.824352
17.985
-0.799088
17.8697
-0.801185
17.8674
-0.814529
17.9143
-0.832243
17.9813
-0.851849
18.0705
-0.871788
-0.893281
18.1424
49.8565
2.63775
-49.9976
49.7153
2.58137
49.5741
2.52397
49.4329
2.46556
49.2916
2.40619
49.1503
2.34587
49.0091
2.28465
48.8678
2.22256
48.7266
2.15963
48.5854
2.09589
48.4442
2.03138
48.303
1.96614
48.1617
1.90019
48.0205
1.83358
47.8792
1.76635
47.7378
1.69853
47.5963
1.63016
47.4547
1.56127
47.313
1.49191
47.171
1.42212
47.0288
1.35194
46.8864
1.2814
46.7436
1.21054
46.6004
1.13942
46.4567
1.06807
46.3125
0.996528
46.1677
0.924844
46.0223
0.853058
45.8761
0.781214
45.729
0.709355
45.5809
0.637527
45.4318
0.565775
45.2815
0.494142
45.1298
0.422676
44.9767
0.351423
44.8219
0.280429
44.6654
0.209741
44.5069
0.139408
44.3462
0.0694779
44.1832
0
44.0176
-0.0689759
43.8491
-0.137399
43.6776
-0.205219
43.5027
-0.272381
43.324
-0.338834
43.1414
-0.404522
42.9543
-0.469389
42.7623
-0.533378
42.565
-0.596429
42.3619
-0.658481
42.1524
-0.719469
41.9358
-0.779328
41.7114
-0.837985
41.4784
-0.895369
41.2359
-0.951398
40.9826
-1.00599
40.7174
-1.05905
40.4386
-1.11048
40.1445
-1.16015
39.8334
-1.20795
39.503
-1.25375
39.1461
-1.29739
38.7499
-1.33853
38.32
-1.37659
37.9204
-1.41163
37.5926
-1.44602
36.9633
-1.48163
34.9331
-1.50346
30.6893
-1.46359
25.3645
-1.32118
21.1258
-1.12016
18.7965
-0.957419
17.8046
-0.874285
17.4475
-0.84882
17.3473
-0.851201
17.3501
-0.86488
17.3938
-0.883103
17.4663
-0.902703
-0.924161
17.529
48.3094
2.72916
-48.4472
48.1716
2.67078
48.0339
2.61134
47.8963
2.55088
47.7588
2.48941
47.6213
2.42698
47.484
2.36362
47.3468
2.29937
47.2097
2.23425
47.0727
2.1683
46.9358
2.10156
46.7991
2.03406
46.6624
1.96585
46.5258
1.89695
46.3893
1.8274
46.2528
1.75726
46.1163
1.68654
45.9799
1.6153
45.8434
1.54357
45.7068
1.47139
45.5702
1.39881
45.4334
1.32586
45.2964
1.25258
45.1592
1.17903
45.0216
1.10523
44.8837
1.03124
44.7454
0.957103
44.6065
0.882854
44.4671
0.80854
44.327
0.734208
44.1862
0.659902
44.0445
0.585667
43.9018
0.51155
43.758
0.437598
43.613
0.363857
43.4667
0.290374
43.3189
0.217199
43.1694
0.144378
43.0181
0.0719624
42.8648
0
42.7093
-0.0714583
42.5513
-0.142362
42.3907
-0.212658
42.2272
-0.282294
42.0605
-0.351219
41.8903
-0.419375
41.7162
-0.486708
41.538
-0.55316
41.3551
-0.618673
41.1673
-0.683185
40.9739
-0.746635
40.7744
-0.808957
40.5682
-0.870083
40.3546
-0.92994
40.1328
-0.988455
39.9019
-1.04554
39.6609
-1.10112
39.4084
-1.1551
39.1431
-1.20736
38.8631
-1.25779
38.5671
-1.30627
38.2527
-1.35266
37.9127
-1.3968
37.5345
-1.43833
37.1265
-1.47664
36.7545
-1.51189
36.4517
-1.54677
35.8234
-1.58296
33.7758
-1.60326
29.5741
-1.55594
24.4089
-1.40018
20.3724
-1.18559
18.1859
-1.01387
17.2638
-0.926526
16.9343
-0.899605
16.8442
-0.901634
16.8466
-0.91553
16.8957
-0.93364
-0.954543
16.9469
46.8092
2.81749
-46.9436
46.6749
2.75717
46.5408
2.69577
46.4068
2.63332
46.273
2.56984
46.1394
2.50537
46.006
2.43994
45.8728
2.3736
45.7398
2.30637
45.607
2.23829
45.4745
2.16939
45.3421
2.09972
45.2099
2.02932
45.0779
1.95821
44.9461
1.88644
44.8144
1.81404
44.6828
1.74107
44.5514
1.66755
44.42
1.59353
44.2887
1.51905
44.1574
1.44415
44.0261
1.36887
43.8947
1.29326
43.7632
1.21735
43.6315
1.1412
43.4997
1.06485
43.3675
0.988332
43.235
0.911702
43.1021
0.835002
42.9687
0.758276
42.8347
0.681573
42.7001
0.604938
42.5647
0.528417