/*--------------------------------*- C++ -*----------------------------------*\
| =========                 |                                                 |
| \\      /  F ield         | OpenFOAM: The Open Source CFD Toolbox           |
|  \\    /   O peration     | Version:  2312                                  |
|   \\  /    A nd           | Website:  www.openfoam.com                      |
|    \\/     M anipulation  |                                                 |
\*---------------------------------------------------------------------------*/
FoamFile
{
    version     2.0;
    format      ascii;
    arch        "LSB;label=32;scalar=64";
    class       surfaceScalarField;
    location    "0.723";
    object      phi;
}
// * * * * * * * * * * * * * * * * * * * * * * * * * * * * * * * * * * * * * //

dimensions      [0 3 -1 0 0 0 0];

oriented        oriented;

internalField   nonuniform List<scalar> 
62015
(
84.8796
0.165594
-84.7068
85.042
0.162814
85.1942
0.159921
85.3365
0.156918
85.4695
0.153807
85.5934
0.150592
85.7087
0.147274
85.8155
0.143856
85.9143
0.140342
86.0052
0.136733
86.0886
0.133033
86.1647
0.129245
86.2337
0.125371
86.2958
0.121414
86.3511
0.117378
86.4
0.113265
86.4425
0.109078
86.4788
0.104821
86.5089
0.100496
86.5331
0.0961062
86.5514
0.0916558
86.5639
0.0871471
86.5706
0.0825839
86.5717
0.0779694
86.567
0.0733066
86.5567
0.0685995
86.5408
0.0638507
86.5191
0.0590646
86.4918
0.0542442
86.4587
0.0493929
86.4198
0.0445143
86.3749
0.0396124
86.324
0.034691
86.2669
0.0297528
86.2034
0.0248029
86.1335
0.0198438
86.0568
0.0148802
85.9732
0.00991596
85.8823
0.00495422
85.7839
0
85.6776
-0.00494312
85.5632
-0.00987151
85.4401
-0.01478
85.3079
-0.019665
85.1662
-0.0245225
85.0144
-0.029347
84.8518
-0.0341354
84.6779
-0.0388817
84.4918
-0.0435823
84.2927
-0.0482322
84.0797
-0.0528259
83.8517
-0.0573583
83.6077
-0.0618243
83.3462
-0.0662186
83.0658
-0.0705346
82.7647
-0.0747668
82.4412
-0.078908
82.0929
-0.0829516
81.7171
-0.0868901
81.31
-0.0907145
80.8681
-0.0944153
80.3926
-0.0979823
79.8801
-0.10141
79.292
-0.104689
78.5734
-0.107762
77.8429
-0.110541
77.523
-0.113171
77.4409
-0.116269
74.8112
-0.119657
65.6737
-0.119107
51.8379
-0.107912
40.4632
-0.0878146
34.7999
-0.0701707
32.8778
-0.0614808
32.4456
-0.0592225
32.5064
-0.0596409
32.7118
-0.060979
33.009
-0.0625368
-0.064395
33.2183
82.6629
0.327552
-82.5186
82.7983
0.321964
82.9248
0.316161
83.0428
0.310147
83.1526
0.303927
83.2546
0.297506
83.349
0.290889
83.4361
0.284082
83.5162
0.277088
83.5894
0.269914
83.6561
0.262565
83.7165
0.255047
83.7707
0.247364
83.8189
0.239522
83.8612
0.231527
83.8979
0.223385
83.9291
0.215101
83.9548
0.206681
83.9753
0.198132
83.9906
0.189459
84.0007
0.180668
84.0058
0.171766
84.0059
0.162759
84.0011
0.153653
83.9913
0.144455
83.9767
0.135171
83.9571
0.125808
83.9326
0.116372
83.9032
0.10687
83.8687
0.0973092
83.8291
0.0876959
83.7845
0.0780374
83.7345
0.0683404
83.6792
0.058613
83.6183
0.048861
83.5518
0.0390926
83.4794
0.0293146
83.4009
0.0195348
83.3162
0.00976077
83.2249
0
83.1267
-0.0097398
83.0213
-0.0194508
82.9084
-0.0291253
82.7876
-0.0387549
82.6585
-0.0483314
82.5205
-0.0578467
82.3732
-0.0672918
82.2159
-0.076659
82.0481
-0.0859385
81.8689
-0.0951219
81.6777
-0.104199
81.4735
-0.113161
81.2554
-0.121998
81.0222
-0.130699
80.7727
-0.139253
80.5056
-0.14765
80.2191
-0.155877
79.9115
-0.163922
79.5808
-0.171771
79.2245
-0.17941
78.8386
-0.186822
78.4203
-0.193988
77.9707
-0.200889
77.4871
-0.207516
76.9336
-0.21385
76.2549
-0.219781
75.5566
-0.225129
75.2495
-0.230162
75.239
-0.236123
72.9475
-0.242868
64.4116
-0.242272
51.0131
-0.220505
39.6935
-0.179903
33.9404
-0.143205
31.9567
-0.124605
31.5
-0.119464
31.5321
-0.120067
31.757
-0.122458
-0.125827
31.9394
80.4948
0.485886
-80.3763
80.6055
0.477474
80.7086
0.468753
80.8043
0.459729
80.893
0.450409
80.9748
0.440799
81.0501
0.430908
81.1191
0.420743
81.182
0.41031
81.2391
0.399618
81.2904
0.388673
81.3363
0.377484
81.3768
0.366058
81.4122
0.354403
81.4425
0.342528
81.4679
0.330441
81.4886
0.318149
81.5046
0.305662
81.516
0.292988
81.5229
0.280135
81.5255
0.267113
81.5236
0.25393
81.5175
0.240596
81.5071
0.227119
81.4925
0.213509
81.4736
0.199775
81.4505
0.185927
81.4232
0.171974
81.3916
0.157926
81.3556
0.143792
81.3153
0.129583
81.2705
0.115309
81.2212
0.100979
81.1672
0.0866052
81.1085
0.0721958
81.0448
0.0577625
80.976
0.0433157
80.902
0.0288654
80.8224
0.0144233
80.7372
0
80.646
-0.0143934
80.5486
-0.0287458
80.4446
-0.0430461
80.3337
-0.057282
80.2156
-0.0714423
80.0897
-0.0855155
79.9557
-0.0994887
79.8131
-0.11335
79.6612
-0.127087
79.4995
-0.140687
79.3273
-0.154137
79.1439
-0.167422
78.9484
-0.18053
78.7398
-0.193446
78.5172
-0.206154
78.2794
-0.21864
78.025
-0.230887
77.7525
-0.242878
77.4603
-0.254595
77.1464
-0.266017
76.8085
-0.277126
76.4431
-0.287896
76.0471
-0.2983
75.6219
-0.30831
75.1656
-0.317913
74.6451
-0.327088
74.0055
-0.335675
73.337
-0.343397
73.0347
-0.350611
73.0772
-0.35917
71.1009
-0.369182
63.1636
-0.369101
50.2208
-0.337752
38.9669
-0.276657
33.1175
-0.219497
31.0717
-0.189478
30.5748
-0.180735
30.6196
-0.180995
-0.184825
30.7485
78.3666
0.640569
-78.2713
78.4554
0.629329
78.5375
0.617693
78.6132
0.605669
78.6829
0.593267
78.7467
0.580495
78.8049
0.567362
78.8577
0.553878
78.9052
0.540052
78.9476
0.525892
78.9851
0.51141
79.018
0.496614
79.0462
0.481515
79.07
0.466123
79.0895
0.450448
79.1047
0.4345
79.1159
0.418291
79.1231
0.401831
79.1263
0.385131
79.1258
0.368202
79.1214
0.351056
79.1133
0.333704
79.1016
0.316156
79.0862
0.298427
79.0671
0.280526
79.0445
0.262466
79.0182
0.24426
78.9883
0.225919
78.9547
0.207456
78.9174
0.188884
78.8763
0.170215
78.8315
0.151462
78.7827
0.132637
78.7299
0.113756
78.673
0.0948288
78.6119
0.0758711
78.5463
0.0568954
78.4762
0.037916
78.4014
0.0189461
78.3217
0
78.2367
-0.0189083
78.1464
-0.0377644
78.0504
-0.056554
77.9484
-0.0752617
77.8401
-0.0938744
77.725
-0.112375
77.6029
-0.13075
77.4733
-0.148982
77.3357
-0.167057
77.1895
-0.184958
77.0343
-0.202668
76.8692
-0.220171
76.6937
-0.237449
76.5069
-0.254485
76.308
-0.27126
76.0959
-0.287755
75.8696
-0.303949
75.6279
-0.319823
75.3692
-0.335354
75.0921
-0.350519
74.7947
-0.365293
74.4749
-0.37965
74.1293
-0.393559
73.7552
-0.406985
73.3536
-0.419892
72.9236
-0.432264
72.4356
-0.444077
71.8345
-0.455135
71.1944
-0.465062
70.89
-0.47425
70.9766
-0.485107
69.3303
-0.498251
62.0456
-0.499517
49.5938
-0.460426
38.3695
-0.379646
32.3724
-0.300361
30.2213
-0.256767
29.7078
-0.242929
-0.242927
29.6906
76.276
0.791575
-76.2011
76.3452
0.777513
76.4087
0.762976
76.4668
0.747974
76.5196
0.732517
76.5674
0.716615
76.6103
0.700281
76.6486
0.683523
76.6824
0.666354
76.7119
0.648785
76.7371
0.630827
76.7583
0.612492
76.7756
0.593792
76.7891
0.574739
76.799
0.555346
76.8052
0.535626
76.8079
0.51559
76.8073
0.495252
76.8033
0.474625
76.7961
0.453723
76.7856
0.432559
76.772
0.411147
76.7553
0.389501
76.7355
0.367634
76.7125
0.345562
76.6866
0.323298
76.6575
0.300858
76.6254
0.278256
76.5901
0.255506
76.5517
0.232625
76.5101
0.209627
76.4653
0.186528
76.4171
0.163344
76.3655
0.140089
76.3104
0.116781
76.2516
0.0934349
76.1891
0.0700676
76.1227
0.0466947
76.0522
0.0233332
75.9775
0
75.8983
-0.0232881
75.8145
-0.0465143
75.7257
-0.0696611
75.6318
-0.0927105
75.5324
-0.115646
75.4272
-0.138448
75.3159
-0.1611
75.1981
-0.183583
75.0734
-0.205877
74.9412
-0.227965
74.8011
-0.249827
74.6526
-0.271442
74.4951
-0.29279
74.3277
-0.313851
74.1499
-0.334603
73.9608
-0.355024
73.7595
-0.375091
73.5449
-0.394781
73.3158
-0.414067
73.071
-0.432924
72.809
-0.451325
72.5281
-0.469238
72.2262
-0.486634
71.9004
-0.503476
71.5478
-0.519721
71.1694
-0.535326
70.7654
-0.550272
70.31
-0.564537
69.7489
-0.577901
69.1351
-0.589894
68.8162
-0.600861
68.9355
-0.613645
67.6676
-0.629731
61.1717
-0.633616
49.2942
-0.589895
38.0296
-0.491321
31.7511
-0.388125
29.4444
-0.327365
-0.306408
28.9496
74.2231
0.938893
-74.1663
74.275
0.922027
74.3221
0.904611
74.3644
0.886659
74.4023
0.868181
74.4359
0.849191
74.4654
0.829699
74.4909
0.809718
74.5125
0.789263
74.5305
0.768344
74.5449
0.746976
74.5558
0.725172
74.5635
0.702947
74.5679
0.680313
74.5692
0.657285
74.5674
0.633879
74.5628
0.610108
74.5552
0.585988
74.5449
0.561533
74.5318
0.53676
74.516
0.511684
74.4975
0.486321
74.4765
0.460687
74.4528
0.434798
74.4266
0.408671
74.3978
0.382322
74.3664
0.355769
74.3324
0.329029
74.2958
0.302118
74.2565
0.275055
74.2145
0.247857
74.1699
0.220541
74.1224
0.193127
74.072
0.165631
74.0186
0.138073
73.9622
0.110471
73.9025
0.0828435
73.8396
0.05521
73.7732
0.0275889
73.7031
0
73.6293
-0.0275374
73.5514
-0.0550039
73.4694
-0.0823791
73.3829
-0.109644
73.2917
-0.136776
73.1955
-0.163758
73.094
-0.190566
72.9869
-0.217181
72.8739
-0.24358
72.7544
-0.269743
72.6281
-0.295648
72.4946
-0.32127
72.3532
-0.346589
72.2034
-0.37158
72.0446
-0.396219
71.876
-0.420483
71.6969
-0.444344
71.5065
-0.467777
71.3037
-0.490755
71.0875
-0.513248
70.8566
-0.535227
70.6097
-0.55666
70.3452
-0.577512
70.0613
-0.597748
69.7552
-0.617328
69.4241
-0.636204
69.0686
-0.654322
68.69
-0.671661
68.2675
-0.688204
67.748
-0.70373
67.1606
-0.717684
66.8144
-0.73026
66.9447
-0.744545
66.0906
-0.763226
60.5433
-0.771215
49.3893
-0.727147
38.0242
-0.614378
31.2776
-0.485888
-0.399959
29.2445
72.2088
1.08253
-72.1679
72.2454
1.06288
72.278
1.04262
72.3065
1.02175
72.3312
1.00029
72.3523
0.978258
72.3699
0.95566
72.384
0.932512
72.395
0.908829
72.4028
0.884625
72.4076
0.859915
72.4095
0.834716
72.4086
0.809041
72.405
0.782906
72.3988
0.756329
72.3901
0.729325
72.3789
0.701911
72.3653
0.674103
72.3494
0.645919
72.3312
0.617376
72.3107
0.588493
72.2881
0.559286
72.2633
0.529773
72.2363
0.499974
72.2073
0.469906
72.176
0.43959
72.1427
0.409042
72.1072
0.378284
72.0695
0.347334
72.0296
0.316212
71.9875
0.284938
71.9431
0.253532
71.8964
0.222014
71.8473
0.190404
71.7956
0.158725
71.7414
0.126994
71.6846
0.095236
71.6249
0.0634696
71.5623
0.0317172
71.4966
0
71.4277
-0.03166
71.3554
-0.0632406
71.2796
-0.09472
71.1999
-0.126075
71.1162
-0.157285
71.0283
-0.188324
70.9358
-0.219171
70.8385
-0.249803
70.7361
-0.280195
70.6282
-0.310323
70.5144
-0.340164
70.3944
-0.369691
70.2676
-0.398881
70.1336
-0.427707
69.9918
-0.456144
69.8417
-0.484163
69.6826
-0.511739
69.5137
-0.538842
69.3343
-0.565442
69.1435
-0.59151
68.9401
-0.617013
68.7232
-0.641919
68.4914
-0.66619
68.2433
-0.689791
67.9773
-0.712681
67.6907
-0.734816
67.381
-0.756143
67.0481
-0.776604
66.6943
-0.796168
66.3042
-0.814828
65.8282
-0.832383
65.2698
-0.848219
64.8876
-0.862286
64.9962
-0.877631
64.5482
-0.898332
60.0918
-0.911677
49.895
-0.872069
38.2288
-0.753416
-0.581433
32.8409
70.2341
1.2225
-70.2073
70.2573
1.2001
70.277
1.17703
70.2934
1.15329
70.3065
1.12889
70.3165
1.10387
70.3236
1.07821
70.3278
1.05196
70.3293
1.02511
70.3282
0.997686
70.3246
0.969705
70.3185
0.941184
70.3101
0.912137
70.2995
0.882584
70.2867
0.852542
70.2719
0.822029
70.255
0.791062
70.2361
0.759662
70.2154
0.727845
70.1927
0.695633
70.1683
0.663044
70.142
0.630099
70.114
0.596816
70.0842
0.563216
70.0527
0.52932
70.0195
0.495149
69.9845
0.460724
69.9478
0.426065
69.9093
0.391194
69.8691
0.356134
69.827
0.320905
69.783
0.28553
69.7372
0.250032
69.6893
0.214432
69.6394
0.178755
69.5874
0.143021
69.5331
0.107256
69.4766
0.0714812
69.4175
0.0357214
69.356
0
69.2917
-0.0356591
69.2246
-0.071232
69.1544
-0.106694
69.081
-0.142021
69.0043
-0.177188
68.9239
-0.212169
68.8397
-0.246941
68.7514
-0.281476
68.6586
-0.31575
68.5612
-0.349736
68.4588
-0.383408
68.351
-0.416738
68.2375
-0.449701
68.1177
-0.482268
67.9914
-0.514411
67.8578
-0.546102
67.7166
-0.577309
67.567
-0.608005
67.4084
-0.638157
67.2401
-0.667734
67.0611
-0.696702
66.8707
-0.725027
66.6677
-0.752672
66.4509
-0.779599
66.219
-0.805767
65.9707
-0.831133
65.7035
-0.855651
65.4149
-0.879264
65.1043
-0.901907
64.7744
-0.923541
64.4156
-0.944165
63.984
-0.963621
63.4599
-0.981279
63.0405
-0.996792
63.0912
-1.01278
62.9687
-1.03499
59.8179
-1.0522
50.069
-1.03299
-0.865347
42.8168
68.2998
1.35884
-68.2854
68.3113
1.33373
68.3197
1.30788
68.3253
1.28131
68.3282
1.25403
68.3286
1.22606
68.3264
1.19742
68.3219
1.16811
68.3151
1.13816
68.3061
1.10759
68.2951
1.07641
68.2821
1.04464
68.2671
1.0123
68.2504
0.979412
68.2319
0.945989
68.2117
0.912055
68.1898
0.877627
68.1664
0.842727
68.1414
0.807375
68.115
0.771592
68.087
0.7354
68.0577
0.698819
68.0269
0.661871
67.9948
0.624579
67.9613
0.586964
67.9264
0.54905
67.8901
0.510859
67.8525
0.472414
67.8134
0.433739
67.773
0.394856
67.731
0.355791
67.6876
0.316566
67.6427
0.277207
67.5961
0.237737
67.5479
0.198182
67.498
0.158566
67.4463
0.118915
67.3926
0.0792528
67.337
0.0396059
67.2793
0
67.2193
-0.0395392
67.1569
-0.0789856
67.0921
-0.118313
67.0245
-0.157494
66.9541
-0.196503
66.8807
-0.235313
66.804
-0.273897
66.7239
-0.312226
66.64
-0.350273
66.5521
-0.388012
66.46
-0.425412
66.3634
-0.462446
66.2618
-0.499085
66.1549
-0.535298
66.0424
-0.571057
65.9237
-0.606331
65.7985
-0.641089
65.6662
-0.6753
65.5262
-0.70893
65.3779
-0.741947
65.2207
-0.774317
65.0536
-0.806003
64.876
-0.836968
64.6867
-0.867175
64.4848
-0.896582
64.269
-0.925145
64.038
-0.95282
63.7899
-0.979558
63.5221
-1.0053
63.2335
-1.02998
62.9266
-1.05354
62.5971
-1.07598
62.2098
-1.0972
61.7248
-1.11667
61.2903
-1.13342
61.1726
-1.15096
61.6344
-1.16849
58.2576
-1.21044
-1.13926
54.3602
66.4067
1.49157
-66.4032
66.4078
1.46379
66.4063
1.43522
66.4025
1.40587
66.3965
1.37576
66.3882
1.3449
66.378
1.31332
66.3658
1.28103
66.3517
1.24805
66.3359
1.2144
66.3184
1.18009
66.2993
1.14515
66.2787
1.1096
66.2566
1.07345
66.2331
1.03674
66.2082
0.999469
66.1821
0.96167
66.1547
0.923363
66.1261
0.884571
66.0964
0.845315
66.0655
0.805618
66.0335
0.765503
66.0005
0.724994
65.9663
0.684114
65.9312
0.642888
65.8949
0.60134
65.8576
0.559493
65.8193
0.517373
65.7799
0.475005
65.7394
0.432415
65.6978
0.389627
65.655
0.346668
65.611
0.303564
65.5658
0.260341
65.5192
0.217025
65.4713
0.173644
65.422
0.130223
65.3712
0.0867908
65.3187
0.0433737
65.2646
0
65.2086
-0.043303
65.1507
-0.0865079
65.0907
-0.129586
65.0285
-0.172509
64.964
-0.215248
64.8969
-0.257776
64.8271
-0.300062
64.7545
-0.342078
64.6787
-0.383794
64.5995
-0.425181
64.5168
-0.466209
64.4302
-0.506847
64.3394
-0.547065
64.2442
-0.586833
64.1441
-0.626118
64.0389
-0.664889
63.9281
-0.703114
63.8112
-0.740761
63.6879
-0.777793
63.5575
-0.814179
63.4194
-0.849883
63.2731
-0.884868
63.1179
-0.919097
62.9528
-0.952531
62.7772
-0.985129
62.5899
-1.01685
62.3898
-1.04765
62.1758
-1.07747
61.9463
-1.10627
61.6989
-1.134
61.432
-1.16057
61.1471
-1.18593
60.8459
-1.21004
60.4932
-1.23301
60.0876
-1.25367
59.5193
-1.2739
59.6856
-1.28525
59.2528
-1.32165
-1.32002
58.4714
64.5551
1.62075
-64.5612
64.5471
1.59035
64.537
1.5591
64.5249
1.52702
64.511
1.49413
64.4953
1.46045
64.478
1.426
64.4591
1.39078
64.4387
1.35484
64.4169
1.31817
64.3938
1.28082
64.3694
1.24278
64.3438
1.2041
64.317
1.16478
64.2892
1.12485
64.2603
1.08433
64.2305
1.04325
64.1997
1.00163
64.168
0.959493
64.1355
0.91686
64.1021
0.873757
64.0679
0.830208
64.033
0.786239
63.9972
0.741875
63.9607
0.697141
63.9234
0.652064
63.8853
0.606669
63.8465
0.560983
63.8069
0.515032
63.7665
0.468844
63.7253
0.422446
63.6832
0.375864
63.6402
0.329128
63.5963
0.282264
63.5514
0.235301
63.5055
0.188268
63.4585
0.141192
63.4103
0.0941027
63.3608
0.0470289
63.31
0
63.2578
-0.0469548
63.204
-0.0938061
63.1486
-0.140523
63.0913
-0.187078
63.0322
-0.233439
62.971
-0.279576
62.9075
-0.325459
62.8417
-0.371056
62.7732
-0.416338
62.702
-0.461273
62.6278
-0.505829
62.5503
-0.549975
62.4694
-0.593678
62.3846
-0.636908
62.2958
-0.67963
62.2027
-0.721812
62.1048
-0.763421
62.0018
-0.804422
61.8933
-0.844781
61.7788
-0.884463
61.6579
-0.923432
61.53
-0.961651
61.3946
-0.999082
61.2509
-1.03569
61.0983
-1.07142
60.9359
-1.10625
60.7629
-1.14012
60.5783
-1.173
60.3809
-1.20482
60.1694
-1.23554
59.942
-1.26511
59.6955
-1.29345
59.4353
-1.32043
59.1474
-1.3463
58.8685
-1.37012
58.4169
-1.39438
58.0663
-1.41101
57.8131
-1.43426
-1.44972
57.6679
62.7453
1.74643
-62.7597
62.7293
1.71345
62.7116
1.67957
62.6924
1.64482
62.6716
1.60921
62.6494
1.57276
62.6259
1.5355
62.6012
1.49743
62.5753
1.45859
62.5483
1.41899
62.5203
1.37865
62.4913
1.3376
62.4614
1.29586
62.4307
1.25345
62.3991
1.2104
62.3668
1.16672
62.3338
1.12244
62.3001
1.0776
62.2658
1.0322
62.2309
0.986287
62.1954
0.939873
62.1594
0.892988
62.1228
0.845658
62.0858
0.79791
62.0482
0.749771
62.0101
0.701269
61.9715
0.65243
61.9324
0.603283
61.8927
0.553856
61.8526
0.504178
61.8118
0.454277
61.7705
0.404181
61.7286
0.353922
61.686
0.303527
61.6428
0.253027
61.5987
0.202452
61.5539
0.151831
61.5082
0.101195
61.4616
0.0505743
61.4139
0
61.3651
-0.0504972
61.3152
-0.100886
61.2639
-0.151136
61.2113
-0.201215
61.1571
-0.251091
61.1012
-0.300733
61.0436
-0.350109
60.984
-0.399186
60.9222
-0.447933
60.8582
-0.496316
60.7917
-0.544303
60.7225
-0.591862
60.6505
-0.638958
60.5752
-0.685558
60.4966
-0.731629
60.4143
-0.777136
60.328
-0.822045
60.2375
-0.866322
60.1423
-0.90993
60.0421
-0.952834
59.9364
-0.994997
59.8249
-1.03638
59.707
-1.07695
59.5822
-1.11666
59.4499
-1.15548
59.3094
-1.19336
59.16
-1.23026
59.0009
-1.26614
58.8313
-1.30094
58.6499
-1.33462
58.4562
-1.36712
58.2469
-1.39841
58.0245
-1.42833
57.7761
-1.45707
57.5324
-1.48386
57.2452
-1.51032
56.903
-1.5335
56.5127
-1.55616
-1.57282
56.3301
60.9773
1.86865
-60.9989
60.9544
1.83315
60.9301
1.7967
60.9046
1.75933
60.8779
1.72106
60.8501
1.68191
60.8212
1.6419
60.7914
1.60104
60.7608
1.55937
60.7293
1.5169
60.6971
1.47366
60.6641
1.42967
60.6305
1.38496
60.5963
1.33953
60.5616
1.29344
60.5264
1.24668
60.4907
1.1993
60.4546
1.15132
60.4181
1.10276
60.3812
1.05365
60.344
1.00402
60.3064
0.953897
60.2686
0.903303
60.2305
0.852269
60.1921
0.800825
60.1534
0.748997
60.1144
0.696817
60.0752
0.644312
60.0357
0.591512
59.9958
0.538448
59.9557
0.485149
59.9152
0.431646
59.8744
0.37797
59.8331
0.324151
59.7914
0.27022
59.7492
0.216209
59.7065
0.16215
59.6631
0.108074
59.6192
0.0540134
59.5744
0
59.5289
-0.0539338
59.4825
-0.107756
59.4351
-0.161433
59.3867
-0.214932
59.3371
-0.26822
59.2861
-0.321265
59.2338
-0.374033
59.1799
-0.426491
59.1243
-0.478604
59.0668
-0.530339
59.0074
-0.581663
58.9457
-0.63254
58.8816
-0.682937
58.815
-0.732819
58.7455
-0.782152
58.673
-0.830899
58.5972
-0.879026
58.5178
-0.926497
58.4345
-0.973277
58.347
-1.01933
58.255
-1.06461
58.158
-1.10909
58.0557
-1.15273
57.9476
-1.19549
57.8331
-1.23733
57.7119
-1.27821
57.5833
-1.31808
57.4465
-1.35691
57.301
-1.39464
57.1457
-1.43123
56.9803
-1.46663
56.8025
-1.50079
56.6136
-1.53361
56.407
-1.56517
56.1869
-1.59508
55.9532
-1.62377
55.7112
-1.65052
55.3668
-1.67702
-1.696
55.1868
59.2511
1.98748
-59.279
59.2222
1.9495
59.1922
1.91054
59.1612
1.87061
59.1294
1.82974
59.0967
1.78795
59.0632
1.74525
59.0291
1.70168
58.9943
1.65725
58.959
1.61199
58.9231
1.56592
58.8868
1.51907
58.8501
1.47145
58.813
1.4231
58.7755
1.37404
58.7378
1.32429
58.6999
1.27389
58.6617
1.22286
58.6234
1.17123
58.5849
1.11902
58.5462
1.06626
58.5075
1.01299
58.4687
0.959224
58.4297
0.905001
58.3907
0.850347
58.3517
0.795294
58.3125
0.73987
58.2733
0.684107
58.234
0.628035
58.1946
0.571687
58.1551
0.515092
58.1155
0.458284
58.0757
0.401293
58.0358
0.344153
57.9956
0.286895
57.9552
0.229553
57.9145
0.172159
57.8734
0.114747
57.8319
0.0573495
57.7899
0
57.7475
-0.0572677
57.7043
-0.11442
57.6606
-0.171422
57.616
-0.228241
57.5706
-0.284842
57.5241
-0.341191
57.4767
-0.397252
57.428
-0.452993
57.378
-0.508377
57.3265
-0.56337
57.2734
-0.617937
57.2186
-0.672042
57.1618
-0.72565
57.1029
-0.778726
57.0417
-0.831233
56.978
-0.883137
56.9116
-0.9344
56.8422
-0.984987
56.7696
-1.03486
56.6935
-1.08398
56.6136
-1.13232
56.5295
-1.17982
56.441
-1.22647
56.3477
-1.27221
56.2491
-1.31701
56.1449
-1.36082
56.0344
-1.40361
55.9172
-1.44533
55.7927
-1.48593
55.6602
-1.52538
55.5191
-1.56362
55.3682
-1.60062
55.2073
-1.63628
55.0347
-1.67061
54.8496
-1.70346
54.6447
-1.73495
54.4477
-1.76433
54.1746
-1.79394
-1.81639
54.0363
57.5665
2.10298
-57.5999
57.5324
2.06259
57.4975
2.02116
57.4618
1.97873
57.4255
1.93532
57.3887
1.89095
57.3512
1.84564
57.3134
1.79942
57.2751
1.7523
57.2365
1.70432
57.1975
1.65549
57.1584
1.60584
57.119
1.55541
57.0794
1.5042
57.0397
1.45226
57
1.39961
56.9601
1.34627
56.9203
1.29228
56.8804
1.23765
56.8406
1.18243
56.8009
1.12664
56.7612
1.07031
56.7216
1.01347
56.6821
0.956151
56.6427
0.898384
56.6034
0.840199
56.5642
0.781628
56.5251
0.722705
56.4862
0.663459
56.4473
0.603924
56.4085
0.544133
56.3698
0.484119
56.3311
0.423914
56.2925
0.363553
56.2538
0.303069
56.2151
0.242496
56.1762
0.181868
56.1373
0.12122
56.0982
0.0605855
56.0588
0
56.0191
-0.0605019
55.9791
-0.120885
55.9386
-0.181115
55.8976
-0.241155
55.8561
-0.300971
55.8138
-0.360527
55.7708
-0.419787
55.7268
-0.478716
55.6819
-0.537278
55.6359
-0.595436
55.5886
-0.653154
55.5399
-0.710398
55.4898
-0.76713
55.4379
-0.823312
55.3842
-0.878911
55.3284
-0.933887
55.2704
-0.988205
55.21
-1.04183
55.147
-1.09472
55.0811
-1.14684
55.012
-1.19815
54.9395
-1.24861
54.8633
-1.29819
54.7831
-1.34684
54.6985
-1.39453
54.6092
-1.44122
54.5148
-1.48686
54.4147
-1.53142
54.3086
-1.57484
54.1959
-1.6171
54.076
-1.65813
53.9483
-1.69789
53.812
-1.73633
53.666
-1.77342
53.5117
-1.80903
53.3394
-1.84335
53.1714
-1.87552
52.9434
-1.90778
-1.9334
52.8361
55.9233
2.21522
-55.9613
55.8847
2.17246
55.8455
2.12863
55.8059
2.08376
55.7658
2.03787
55.7253
1.99099
55.6846
1.94313
55.6435
1.89432
55.6023
1.84458
55.5609
1.79395
55.5193
1.74243
55.4777
1.69008
55.4361
1.63689
55.3945
1.58292
55.353
1.52817
55.3115
1.47269
55.2701
1.4165
55.2289
1.35963
55.1879
1.3021
55.147
1.24395
55.1064
1.18522
55.066
1.12592
55.0259
1.06609
54.986
1.00577
54.9463
0.944977
54.907
0.883754
54.8679
0.822131
54.8291
0.76014
54.7906
0.697815
54.7523
0.635191
54.7143
0.572299
54.6765
0.509175
54.6389
0.445854
54.6015
0.382369
54.5643
0.318756
54.5272
0.255049
54.4902
0.191285
54.4533
0.127498
54.4163
0.0637245
54.3794
0
54.3423
-0.0636394
54.3052
-0.127157
54.2678
-0.190518
54.2301
-0.253685
54.1921
-0.316621
54.1536
-0.379291
54.1147
-0.441656
54.0751
-0.503681
54.0348
-0.565329
53.9937
-0.626563
53.9517
-0.687346
53.9087
-0.747639
53.8645
-0.807408
53.8189
-0.866614
53.772
-0.925219
53.7234
-0.983187
53.673
-1.04048
53.6207
-1.09706
53.5662
-1.15289
53.5094
-1.20793
53.45
-1.26214
53.3878
-1.31549
53.3226
-1.36793
53.254
-1.41943
53.1818
-1.46995
53.1057
-1.51945
53.0254
-1.56788
52.9404
-1.61521
52.8504
-1.6614
52.755
-1.70639
52.6536
-1.75015
52.5457
-1.79264
52.431
-1.8338
52.3079
-1.8736
52.1783
-1.91191
52.0347
-1.94893
51.8947
-1.98389
51.7025
-2.0188
-2.04739
51.6173
54.321
2.32425
-54.3631
54.2786
2.27918
54.2359
2.23301
54.1928
2.18576
54.1495
2.13746
54.106
2.08812
54.0624
2.03778
54.0187
1.98645
53.9749
1.93416
53.9312
1.88095
53.8875
1.82682
53.8439
1.77182
53.8005
1.71597
53.7572
1.6593
53.7141
1.60183
53.6712
1.5436
53.6287
1.48464
53.5864
1.42497
53.5444
1.36462
53.5028
1.30364
53.4615
1.24204
53.4206
1.17986
53.3801
1.11713
53.34
1.05389
53.3003
0.990169
53.261
0.925998
53.2222
0.861414
53.1837
0.796448
53.1457
0.731137
53.108
0.665515
53.0708
0.599617
53.034
0.533477
52.9975
0.467132
52.9613
0.400618
52.9255
0.33397
52.89
0.267225
52.8547
0.200418
52.8197
0.133588
52.7849
0.0667694
52.7502
0
52.7156
-0.0666831
52.6811
-0.133242
52.6465
-0.199641
52.6119
-0.265842
52.5772
-0.331806
52.5422
-0.397498
52.507
-0.462879
52.4714
-0.527911
52.4354
-0.592557
52.3988
-0.656778
52.3616
-0.720537
52.3236
-0.783796
52.2848
-0.846517
52.245
-0.908662
52.2041
-0.970193
52.1619
-1.03107
52.1184
-1.09126
52.0733
-1.15072
52.0265
-1.20941
51.9779
-1.2673
51.9271
-1.32434
51.8741
-1.3805
51.8186
-1.43574
51.7604
-1.49002
51.6993
-1.5433
51.6349
-1.59554
51.567
-1.6467
51.4953
-1.69675
51.4194
-1.74563
51.3391
-1.79331
51.2539
-1.83974
51.1633
-1.88489
51.0671
-1.9287
50.9641
-1.97114
50.8557
-2.01211
50.7357
-2.05177
50.6197
-2.0894
50.4588
-2.12693
-2.1584
50.3926
52.7593
2.43015
-52.8047
52.7137
2.38283
52.6679
2.33438
52.6219
2.28481
52.5759
2.23415
52.5299
2.18242
52.4839
2.12966
52.438
2.07588
52.3922
2.02112
52.3465
1.96539
52.301
1.90872
52.2558
1.85116
52.2109
1.79271
52.1662
1.73342
52.1219
1.67331
52.078
1.6124
52.0345
1.55074
51.9914
1.48836
51.9487
1.42528
51.9065
1.36153
51.8648
1.29715
51.8236
1.23218
51.7829
1.16664
51.7427
1.10057
51.7031
1.034
51.664
0.966971
51.6254
0.899513
51.5874
0.831663
51.55
0.763455
51.513
0.694925
51.4766
0.626111
51.4407
0.557047
51.4053
0.48777
51.3704
0.418318
51.336
0.348727
51.302
0.279034
51.2684
0.209278
51.2352
0.139495
51.2023
0.0697228
51.1697
0
51.1374
-0.0696356
51.1054
-0.139146
51.0735
-0.208492
51.0417
-0.277637
51.0099
-0.346541
50.9782
-0.415166
50.9464
-0.483474
50.9144
-0.551426
50.8823
-0.618982
50.8498
-0.686106
50.8169
-0.752757
50.7836
-0.818898
50.7496
-0.884489
50.715
-0.949492
50.6796
-1.01387
50.6433
-1.07758
50.6059
-1.14058
50.5673
-1.20285
50.5274
-1.26433
50.486
-1.32499
50.443
-1.38479
50.3982
-1.44369
50.3514
-1.50166
50.3024
-1.55865
50.251
-1.61462
50.1969
-1.66954
50.1401
-1.72337
50.0801
-1.77606
50.0167
-1.82757
49.9496
-1.87787
49.8785
-1.92692
49.803
-1.97466
49.7229
-2.02106
49.6372
-2.0661
49.5472
-2.10965
49.4474
-2.15188
49.3517
-2.19212
49.2172
-2.23219
-2.26644
49.167
51.2376
2.53299
-51.2859
51.1893
2.48348
51.1409
2.4328
51.0926
2.38097
51.0444
2.32801
50.9963
2.27397
50.9483
2.21885
50.9005
2.16268
50.853
2.1055
50.8058
2.04733
50.7589
1.9882
50.7124
1.92814
50.6663
1.86717
50.6206
1.80533
50.5753
1.74265
50.5306
1.67915
50.4863
1.61487
50.4426
1.54985
50.3995
1.48411
50.3569
1.41769
50.315
1.35062
50.2736
1.28293
50.2329
1.21466
50.1928
1.14584
50.1533
1.07651
50.1145
1.00671
50.0764
0.936465
50.0389
0.865816
50.002
0.794798
49.9658
0.72345
49.9303
0.651806
49.8953
0.579906
49.861
0.507787
49.8273
0.435485
49.7942
0.36304
49.7617
0.290489
49.7296
0.217871
49.6981
0.145224
49.6671
0.0725876
49.6365
0
49.6064
-0.0724997
49.5766
-0.144873
49.5471
-0.217079
49.5179
-0.289081
49.489
-0.360838
49.4602
-0.43231
49.4315
-0.503459
49.4029
-0.574245
49.3742
-0.64463
49.3455
-0.714572
49.3166
-0.784033
49.2874
-0.852973
49.2579
-0.921354
49.228
-0.989135
49.1975
-1.05628
49.1664
-1.12274
49.1345
-1.18849
49.1018
-1.25348
49.0681
-1.31768
49.0332
-1.38104
48.9971
-1.44352
48.9596
-1.5051
48.9205
-1.56572
48.8797
-1.62535
48.8369
-1.68395
48.7921
-1.74148
48.7449
-1.79791
48.6952
-1.85318
48.6428
-1.90727
48.5873
-1.96013
48.5286
-2.01172
48.4663
-2.06201
48.4002
-2.11094
48.3296
-2.15849
48.2555
-2.20457
48.1732
-2.24931
48.0949
-2.29209
47.9829
-2.33462
-2.37157
47.9461
49.7554
2.63284
-49.8061
49.7049
2.58119
49.6544
2.52834
49.6042
2.47431
49.5541
2.41912
49.5042
2.36281
49.4547
2.3054
49.4055
2.24692
49.3566
2.18739
49.3082
2.12685
49.2602
2.06532
49.2126
2.00283
49.1656
1.93941
49.1191
1.87509
49.0732
1.80991
49.0278
1.7439
48.9831
1.67708
48.939
1.6095
48.8955
1.54118
48.8528
1.47216
48.8107
1.40247
48.7694
1.33215
48.7287
1.26123
48.6888
1.18975
48.6496
1.11775
48.6112
1.04525
48.5735
0.972303
48.5366
0.898939
48.5004
0.825196
48.465
0.751113
48.4303
0.676727
48.3963
0.602077
48.3631
0.527199
48.3306
0.452135
48.2987
0.376922
48.2676
0.301599
48.2371
0.226206
48.2072
0.150782
48.1779
0.0753667
48.1492
0
48.121
-0.0752783
48.0934
-0.150428
48.0662
-0.22541
48.0394
-0.300184
48.013
-0.374709
47.9869
-0.448945
47.9611
-0.522853
47.9355
-0.596391
47.9101
-0.66952
47.8847
-0.7422
47.8594
-0.81439
47.834
-0.886051
47.8085
-0.957142
47.7828
-1.02762
47.7568
-1.09746
47.7304
-1.1666
47.7035
-1.23501
47.676
-1.30266
47.6478
-1.36949
47.6188
-1.43548
47.5889
-1.50058
47.5579
-1.56476
47.5257
-1.62797
47.4921
-1.69018
47.4571
-1.75134
47.4203
-1.81142
47.3818
-1.87037
47.3412
-1.92817
47.2984
-1.98476
47.2532
-2.04012
47.2053
-2.0942
47.1545
-2.14696
47.1007
-2.19835
47.0431
-2.24837
46.9828
-2.2969
46.9156
-2.34408
46.8523
-2.38934
46.7596
-2.43426
-2.47383
46.7343
48.3121
2.72977
-48.3647
48.2598
2.67604
48.2077
2.62107
48.1558
2.5649
48.1042
2.50754
48.053
2.44904
48.0022
2.3894
47.9519
2.32866
47.902
2.26685
47.8526
2.204
47.8037
2.14014
47.7554
2.07529
47.7077
2.00949
47.6607
1.94277
47.6143
1.87517
47.5685
1.80671
47.5235
1.73743
47.4792
1.66736
47.4356
1.59653
47.3928
1.52499
47.3508
1.45277
47.3096
1.37989
47.2691
1.3064
47.2295
1.23234
47.1907
1.15773
47.1527
1.08263
47.1156
1.00706
47.0793
0.931063
47.0438
0.854678
47.0092
0.777943
46.9753
0.700897
46.9424
0.623578
46.9102
0.546028
46.8788
0.468283
46.8482
0.390386
46.8184
0.312375
46.7893
0.23429
46.761
0.156172
46.7333
0.0780624
46.7064
0
46.6801
-0.0779738
46.6544
-0.155818
46.6293
-0.233492
46.6047
-0.310956
46.5807
-0.388167
46.5571
-0.465086
46.5339
-0.541671
46.5111
-0.617881
46.4886
-0.693675
46.4663
-0.769014
46.4442
-0.843855
46.4223
-0.918158
46.4004
-0.991883
46.3785
-1.06499
46.3565
-1.13744
46.3343
-1.20918
46.3119
-1.28019
46.2891
-1.35041
46.2659
-1.41982
46.2421
-1.48837
46.2177
-1.55601
46.1925
-1.62272
46.1664
-1.68845
46.1393
-1.75316
46.1111
-1.81682
46.0816
-1.87938
46.0506
-1.94081
46.0181
-2.00106
45.9838
-2.0601
45.9475
-2.11789
45.9092
-2.17439
45.8685
-2.22956
45.8254
-2.28336
45.7792
-2.33577
45.7308
-2.38669
45.6767
-2.43626
45.6265
-2.48391
45.5504
-2.53117
-2.57327
45.5347
46.9071
2.82384
-46.9613
46.8533
2.76809
46.7999
2.71107
46.7468
2.65281
46.6941
2.59335
46.6418
2.5327
46.5901
2.4709
46.5388
2.40797
46.4882
2.34394
46.4381
2.27885
46.3886
2.21272
46.3398
2.14559
46.2917
2.07748
46.2442
2.00843
46.1975
1.93847
46.1516
1.86763
46.1064
1.79596
46.0621
1.72348
46.0185
1.65022
45.9758
1.57623
45.9339
1.50154
45.8929
1.42619
45.8528
1.35021
45.8136
1.27364
45.7752
1.19652
45.7378
1.11888
45.7012
1.04077
45.6656
0.962218
45.6308
0.88327
45.597
0.803963
45.5641
0.724338
45.532
0.644433
45.5009
0.564288
45.4706
0.483946
45.4412
0.403445
45.4127
0.322826
45.385
0.242132
45.3581
0.161401
45.332
0.0806771
45.3067
0
45.2821
-0.0805885
45.2583
-0.161047
45.2351
-0.241334
45.2126
-0.321407
45.1907
-0.401225
45.1694
-0.480747
45.1486
-0.559931
45.1284