/*--------------------------------*- C++ -*----------------------------------*\
| =========                 |                                                 |
| \\      /  F ield         | OpenFOAM: The Open Source CFD Toolbox           |
|  \\    /   O peration     | Version:  2312                                  |
|   \\  /    A nd           | Website:  www.openfoam.com                      |
|    \\/     M anipulation  |                                                 |
\*---------------------------------------------------------------------------*/
FoamFile
{
    version     2.0;
    format      ascii;
    arch        "LSB;label=32;scalar=64";
    class       surfaceScalarField;
    location    "0.295";
    object      phi;
}
// * * * * * * * * * * * * * * * * * * * * * * * * * * * * * * * * * * * * * //

dimensions      [0 3 -1 0 0 0 0];

oriented        oriented;

internalField   nonuniform List<scalar> 
62015
(
74.9912
0.394513
-75.6181
74.3638
0.385205
73.7359
0.375742
73.1075
0.36613
72.4785
0.356377
71.849
0.34649
71.2188
0.336477
70.5878
0.326347
69.9558
0.316106
69.3225
0.305762
68.6877
0.295325
68.0512
0.284803
67.4124
0.274203
66.7711
0.263537
66.1267
0.252811
65.4787
0.242035
64.8264
0.23122
64.1691
0.220374
63.5059
0.209507
62.8359
0.198631
62.1581
0.187754
61.4711
0.176888
60.7736
0.166044
60.064
0.155234
59.3402
0.14447
58.6002
0.133763
57.8413
0.123128
57.0604
0.112578
56.2539
0.102128
55.4174
0.0917928
54.5452
0.0815901
53.6307
0.0715376
52.6648
0.061657
51.6355
0.0519698
50.5267
0.042503
49.319
0.0332883
47.9819
0.0243688
46.4325
0.0157935
44.4632
0.00762446
41.7663
0
38.2203
-0.00674918
34.2315
-0.012195
30.5845
-0.0162615
27.8568
-0.0194401
26.1202
-0.0223832
25.1352
-0.0254756
24.6287
-0.0288221
24.4067
-0.032399
24.3533
-0.0361586
24.4038
-0.0400603
24.522
-0.044077
24.6869
-0.0481912
24.8861
-0.0523916
25.1116
-0.0566701
25.3583
-0.0610209
25.6227
-0.0654394
25.9022
-0.0699218
26.195
-0.0744644
26.4997
-0.079064
26.8152
-0.0837171
27.1408
-0.0884211
27.4759
-0.0931725
27.8197
-0.0979683
28.1721
-0.102805
28.5326
-0.107681
28.9009
-0.112591
29.2769
-0.117533
29.6603
-0.122503
30.0509
-0.127499
30.4488
-0.132517
30.8536
-0.137554
31.2654
-0.142605
31.6839
-0.14767
32.1097
-0.152741
32.5407
-0.157824
32.9828
-0.162887
33.4177
-0.168015
33.9019
-0.172931
-0.178486
34.2615
72.5325
0.774898
-73.1428
71.9219
0.756576
71.3113
0.737953
70.7006
0.719043
70.0897
0.699861
69.4786
0.680421
68.8671
0.660737
68.2552
0.640825
67.6426
0.6207
67.0292
0.600378
66.4147
0.579875
65.7987
0.559208
65.181
0.538394
64.5611
0.517449
63.9386
0.496391
63.313
0.475238
62.6835
0.454008
62.0496
0.432721
61.4104
0.411395
60.7651
0.39005
60.1126
0.368706
59.4518
0.347385
58.7812
0.326109
58.0994
0.304899
57.4046
0.283778
56.6947
0.262772
55.9673
0.241905
55.2195
0.221204
54.4478
0.200698
53.6482
0.180418
52.8155
0.160394
51.9433
0.140664
51.0235
0.121266
50.0448
0.102246
48.9926
0.0836524
47.8487
0.0655473
46.5865
0.0480114
45.1372
0.0311414
43.3218
0.0150551
40.85
0
37.5554
-0.0134203
33.7443
-0.0243576
30.1425
-0.0325407
27.3639
-0.0388314
25.5494
-0.0445361
24.4985
-0.0504962
23.9447
-0.0569662
23.689
-0.0639121
23.6099
-0.0712344
23.6389
-0.0788468
23.7378
-0.0866906
23.8845
-0.094728
24.066
-0.102934
24.274
-0.111292
24.5033
-0.11979
24.7502
-0.128418
25.0121
-0.137169
25.2871
-0.146035
25.5739
-0.155009
25.8713
-0.164087
26.1786
-0.17326
26.4951
-0.182524
26.8202
-0.191871
27.1536
-0.201297
27.4949
-0.210795
27.8438
-0.220359
28.2001
-0.229983
28.5636
-0.239659
28.9341
-0.249383
29.3115
-0.259148
29.6958
-0.268947
30.0867
-0.278773
30.4841
-0.288622
30.8884
-0.298482
31.2978
-0.308362
31.7178
-0.318204
32.1313
-0.328165
32.5906
-0.337726
-0.348484
32.936
70.1401
1.14144
-70.7342
69.5462
1.11439
68.9526
1.08691
68.3591
1.05902
67.7658
1.03072
67.1726
1.00205
66.5794
0.973034
65.986
0.943683
65.3923
0.914024
64.7981
0.884081
64.203
0.853875
63.607
0.823432
63.0095
0.792776
62.4102
0.761931
61.8087
0.730925
61.2045
0.699781
60.5969
0.668528
59.9853
0.637192
59.369
0.605802
58.7471
0.574387
58.1187
0.542975
57.4826
0.511598
56.8375
0.480288
56.1821
0.449076
55.5146
0.417997
54.833
0.387086
54.1351
0.35638
53.4182
0.325918
52.6791
0.295741
51.9138
0.265893
51.1176
0.236421
50.2845
0.207379
49.407
0.178821
48.4748
0.150814
47.4741
0.123428
46.3879
0.0967531
45.1925
0.070904
43.8294
0.0460205
42.1428
0.0222734
39.8629
0
36.7971
-0.0199695
33.1699
-0.0363906
29.6437
-0.0487233
26.8474
-0.0580853
24.9783
-0.0664131
23.8748
-0.0750509
23.281
-0.0844477
22.9958
-0.0945738
22.8937
-0.105278
22.9033
-0.116424
22.9845
-0.127919
23.1144
-0.139701
23.2794
-0.15173
23.4712
-0.163982
23.6841
-0.176436
23.9146
-0.189078
24.1599
-0.201897
24.4182
-0.21488
24.6881
-0.22802
24.9684
-0.241305
25.2584
-0.254728
25.5573
-0.26828
25.8647
-0.281951
26.1802
-0.295733
26.5033
-0.309616
26.8339
-0.323593
27.1716
-0.337653
27.5163
-0.351788
27.8678
-0.365989
28.2259
-0.380246
28.5906
-0.39455
28.9618
-0.408891
29.3392
-0.423261
29.7232
-0.437645
30.1122
-0.452054
30.5112
-0.466408
30.9045
-0.480925
31.3403
-0.494875
-0.510511
31.6709
67.8189
1.49452
-68.3968
67.2413
1.45904
66.6644
1.423
66.0879
1.38641
65.5118
1.34932
64.9361
1.31175
64.3607
1.27372
63.7854
1.23526
63.21
1.19641
62.6344
1.15719
62.0583
1.11764
61.4814
1.07778
60.9035
1.03764
60.3241
0.997268
59.7428
0.956684
59.1591
0.915925
58.5726
0.875026
57.9824
0.834023
57.388
0.792952
56.7885
0.75185
56.183
0.710756
55.5705
0.669709
54.9496
0.62875
54.3192
0.587922
53.6775
0.547267
53.0227
0.506833
52.3527
0.466667
51.6649
0.426818
50.9562
0.387341
50.2231
0.348293
49.461
0.309734
48.6644
0.271732
47.8261
0.23436
46.9367
0.197701
45.9833
0.161849
44.9499
0.126916
43.8149
0.0930492
42.5274
0.0604292
40.9507
0.0292743
38.8349
0
35.9739
-0.0263743
32.5278
-0.0482394
29.0964
-0.06474
26.3085
-0.077148
24.4056
-0.0879876
23.2622
-0.0991392
22.6359
-0.111285
22.3256
-0.124417
22.2034
-0.138335
22.1956
-0.15285
22.2608
-0.16783
22.3753
-0.183189
22.5252
-0.198872
22.7018
-0.214843
22.8995
-0.231074
23.1146
-0.247547
23.3444
-0.264244
23.587
-0.281152
23.8409
-0.298259
24.1052
-0.315551
24.3788
-0.333017
24.6613
-0.350645
24.952
-0.368424
25.2505
-0.386343
25.5565
-0.404389
25.8696
-0.422552
26.1898
-0.440819
26.5166
-0.459179
26.8501
-0.47762
27.19
-0.49613
27.5362
-0.514697
27.8887
-0.533307
28.2471
-0.551952
28.612
-0.570611
28.9817
-0.589298
29.3608
-0.607911
29.7348
-0.626726
30.1485
-0.644822
-0.665037
30.4646
65.5699
1.83456
-66.1318
65.0086
1.79092
64.4481
1.74661
63.8883
1.70164
63.3292
1.65606
62.7707
1.60989
62.2127
1.56318
61.655
1.51594
61.0976
1.46823
60.5401
1.42008
59.9825
1.37152
59.4243
1.32259
58.8653
1.27333
58.3052
1.22378
57.7435
1.17397
57.1797
1.12396
56.6134
1.07379
56.0439
1.02348
55.4706
0.973101
54.8926
0.922684
54.3092
0.87228
53.7192
0.821935
53.1216
0.7717
52.515
0.721626
51.898
0.671766
51.2688
0.622176
50.6253
0.572914
49.9652
0.524041
49.2855
0.475622
48.5829
0.427726
47.853
0.380427
47.0908
0.333806
46.2895
0.287952
45.4402
0.242965
44.531
0.198959
43.547
0.156069
42.4679
0.11447
41.2493
0.0743801
39.7702
0.0360628
37.8004
0
35.1271
-0.0326324
31.8572
-0.0598937
28.5303
-0.0805795
25.7657
-0.0960203
23.8408
-0.109275
22.665
-0.122787
22.0103
-0.13751
21.6777
-0.15348
21.5373
-0.170449
21.5136
-0.188174
21.564
-0.206482
21.6642
-0.22526
21.8
-0.244434
21.9624
-0.263958
22.1459
-0.283796
22.3466
-0.303925
22.5618
-0.324323
22.7896
-0.344973
23.0286
-0.365858
23.2776
-0.386965
23.5359
-0.408278
23.8027
-0.429784
24.0776
-0.451468
24.3601
-0.473316
24.6499
-0.495315
24.9466
-0.517449
25.2501
-0.539706
25.5601
-0.562071
25.8765
-0.584528
26.1991
-0.607065
26.5278
-0.629665
26.8625
-0.652314
27.203
-0.675
27.5496
-0.697697
27.9009
-0.720424
28.2612
-0.743058
28.6169
-0.765925
29.0098
-0.787936
-0.812454
29.3117
63.3927
2.16196
-63.9388
62.8475
2.11046
62.3032
2.05816
61.7599
2.0051
61.2175
1.95133
60.6759
1.89688
60.135
1.84179
59.5947
1.7861
59.0547
1.72985
58.515
1.67309
57.9753
1.61586
57.4354
1.5582
56.8949
1.50015
56.3535
1.44177
55.8108
1.3831
55.2663
1.32419
54.7196
1.26509
54.1701
1.20585
53.6171
1.14651
53.06
1.08714
52.4977
1.02778
51.9296
0.968496
51.3543
0.909344
50.7707
0.850382
50.1774
0.791673
49.5727
0.733282
48.9546
0.675276
48.3209
0.617727
47.669
0.56071
46.9954
0.504305
46.2963
0.448599
45.5668
0.393686
44.8006
0.33967
43.9895
0.286666
43.1221
0.234807
42.1846
0.184249
41.1582
0.135192
40.0036
0.0878899
38.6137
0.0426465
36.777
0
34.2788
-0.0387465
31.1806
-0.0713558
27.9632
-0.0962503
25.2307
-0.114723
23.2907
-0.130309
22.0864
-0.146032
21.4055
-0.163165
21.0519
-0.181806
20.8944
-0.201667
20.8557
-0.222448
20.8923
-0.243931
20.9791
-0.265974
21.1017
-0.288484
21.2508
-0.311402
21.4209
-0.334686
21.608
-0.358304
21.8095
-0.382233
22.0233
-0.40645
22.2481
-0.430938
22.4828
-0.455677
22.7266
-0.480652
22.9786
-0.505846
23.2386
-0.531241
23.5059
-0.556823
23.7803
-0.582574
24.0615
-0.608477
24.3492
-0.634517
24.6432
-0.660677
24.9434
-0.68694
25.2496
-0.713289
25.5617
-0.739706
25.8795
-0.766174
26.203
-0.79268
26.5324
-0.819193
26.8662
-0.845734
27.2087
-0.872164
27.5469
-0.898853
27.9201
-0.924558
-0.953116
28.2082
61.2858
2.47714
-61.8162
60.7565
2.41804
60.2283
2.35804
59.7013
2.29718
59.1753
2.23551
58.6503
2.17308
58.1262
2.10992
57.6028
2.04609
57.0801
1.98162
56.5577
1.91657
56.0355
1.851
55.5133
1.78493
54.9908
1.71844
54.4676
1.65157
53.9434
1.58437
53.4177
1.5169
52.89
1.44922
52.3599
1.38137
51.8266
1.31343
51.2895
1.24544
50.7479
1.17748
50.2007
1.10961
49.647
1.04188
49.0855
0.974379
48.515
0.907164
47.9338
0.840312
47.3402
0.773901
46.7319
0.70801
46.1065
0.642726
45.4608
0.57814
44.7912
0.514348
44.0929
0.451457
43.3602
0.389587
42.5853
0.328865
41.7578
0.269442
40.8644
0.211493
39.8879
0.155243
38.7933
0.100975
37.486
0.0490324
35.7725
0
33.4392
-0.0447196
30.5082
-0.0826291
27.4036
-0.111762
24.7094
-0.133281
22.7586
-0.151125
21.5279
-0.168917
20.8219
-0.188291
20.448
-0.209438
20.274
-0.232034
20.2211
-0.25572
20.2445
-0.280231
20.3187
-0.305391
20.4287
-0.331088
20.5654
-0.357249
20.7228
-0.383823
20.8971
-0.410774
21.0856
-0.438071
21.2863
-0.465691
21.4977
-0.49361
21.7189
-0.52181
21.9488
-0.55027
22.187
-0.578972
22.4327
-0.607896
22.6857
-0.637024
22.9456
-0.666337
23.212
-0.695818
23.4847
-0.725446
23.7636
-0.755204
24.0484
-0.785071
24.3391
-0.815029
24.6354
-0.845058
24.9373
-0.875139
25.2446
-0.905254
25.5575
-0.935372
25.8749
-0.965515
26.2003
-0.995527
26.522
-1.02582
26.8765
-1.05501
-1.08736
27.1515
59.2476
2.78049
-59.7624
58.7339
2.71407
58.2216
2.64664
57.7106
2.57827
57.2007
2.509
56.692
2.43887
56.1844
2.36794
55.6776
2.29627
55.1716
2.22389
54.6662
2.15087
54.1612
2.07726
53.6563
2.00312
53.1513
1.9285
52.6458
1.85346
52.1395
1.77806
51.632
1.70236
51.1228
1.62642
50.6115
1.55031
50.0973
1.4741
49.5797
1.39784
49.0578
1.32161
48.5309
1.24547
47.998
1.16951
47.4579
1.0938
46.9093
1.01841
46.3508
0.943422
45.7807
0.868931
45.1968
0.795021
44.5969
0.721789
43.9779
0.649334
43.3365
0.577765
42.6681
0.5072
41.9675
0.437769
41.2272
0.369618
40.4377
0.302908
39.5863
0.237836
38.6572
0.174646
37.6192
0.11365
36.3888
0.0552267
34.7897
0
32.6122
-0.0505533
29.8443
-0.0937145
26.8548
-0.127119
24.2039
-0.151712
22.2459
-0.171759
20.9901
-0.191483
20.2594
-0.212933
19.8655
-0.236421
19.6754
-0.261596
19.6088
-0.288039
19.6197
-0.315434
19.6819
-0.343569
19.7801
-0.37231
19.9049
-0.401569
20.0504
-0.431286
20.2126
-0.461418
20.3888
-0.49193
20.577
-0.522794
20.7758
-0.553985
20.9841
-0.585481
21.2011
-0.617259
21.426
-0.649298
21.6584
-0.681577
21.8978
-0.714075
22.1438
-0.746772
22.3963
-0.779646
22.6549
-0.812678
22.9194
-0.845845
23.1896
-0.879128
23.4655
-0.912503
23.7469
-0.94595
24.0336
-0.979446
24.3255
-1.01297
24.6229
-1.0465
24.9246
-1.08004
25.2339
-1.11343
25.5399
-1.14712
25.8767
-1.17961
-1.21551
26.1391
57.276
3.07241
-57.7755
56.7778
2.99892
56.2811
2.92434
55.7858
2.84873
55.2918
2.77213
54.7991
2.69461
54.3075
2.6162
53.817
2.53698
53.3274
2.45699
52.8386
2.3763
52.3502
2.29497
51.8622
2.21306
51.3742
2.13062
50.886
2.04773
50.3972
1.96444
49.9073
1.88083
49.4161
1.79697
48.9229
1.71292
48.4272
1.62875
47.9284
1.54453
47.4257
1.46036
46.9184
1.37629
46.4056
1.29241
45.886
1.2088
45.3586
1.12556
44.822
1.04276
44.2744
0.9605
43.714
0.878882
43.1385
0.798007
42.5452
0.717986
41.9308
0.638937
41.2911
0.560989
40.6211
0.484282
39.9139
0.408976
39.1605
0.335249
38.3493
0.26331
37.4652
0.193425
36.4806
0.12593
35.3219
0.0612359
33.8294
0
31.799
-0.0562493
29.1899
-0.10461
26.3176
-0.142323
23.7145
-0.170033
21.7524
-0.19224
20.4729
-0.213771
19.7177
-0.237134
19.3039
-0.262797
19.0981
-0.290397
19.0181
-0.319453
19.017
-0.349592
19.0678
-0.380565
19.1547
-0.412212
19.2683
-0.444431
19.4025
-0.477149
19.5533
-0.510318
19.7179
-0.543898
19.8944
-0.577857
20.0812
-0.612168
20.2774
-0.646803
20.482
-0.68174
20.6944
-0.716954
20.9141
-0.752423
21.1406
-0.788124
21.3736
-0.824034
21.6128
-0.860131
21.8579
-0.896391
22.1088
-0.932791
22.3653
-0.969308
22.6272
-1.00592
22.8943
-1.0426
23.1667
-1.07933
23.4441
-1.11608
23.7267
-1.15282
24.0134
-1.18957
24.3075
-1.22616
24.5985
-1.26305
24.9186
-1.29865
-1.33788
25.169
55.3692
3.35326
-55.8536
54.8862
3.27297
54.4048
3.19151
53.9249
3.10893
53.4464
3.02528
52.9694
2.94063
52.4936
2.85504
52.019
2.76855
51.5454
2.68125
51.0727
2.59318
50.6006
2.50443
50.129
2.41504
49.6576
2.32509
49.1862
2.23465
48.7142
2.14379
48.2416
2.05258
47.7677
1.96109
47.2921
1.86941
46.8143
1.7776
46.3337
1.68574
45.8496
1.59393
45.3612
1.50224
44.8677
1.41075
44.368
1.31956
43.861
1.22877
43.3454
1.13846
42.8195
1.04874
42.2817
0.959708
41.7297
0.871486
41.1609
0.78419
40.5724
0.697946
39.9601
0.612894
39.3194
0.529186
38.6439
0.446991
37.9251
0.366503
37.152
0.287945
36.3108
0.2116
35.3766
0.137827
34.285
0.0670652
32.8915
0
31
-0.0618083
28.5449
-0.115313
25.7912
-0.157371
23.2405
-0.188252
21.2778
-0.212596
19.9757
-0.235818
19.1962
-0.260933
18.7627
-0.288609
18.5412
-0.31848
18.4482
-0.350006
18.4355
-0.382754
18.4754
-0.416432
18.5517
-0.450854
18.6547
-0.485899
18.7782
-0.521484
18.9181
-0.557553
19.0718
-0.594062
19.2371
-0.630973
19.4127
-0.668257
19.5973
-0.705885
19.7903
-0.74383
19.9909
-0.782066
20.1985
-0.820569
20.4128
-0.859314
20.6335
-0.898277
20.8601
-0.937431
21.0925
-0.976753
21.3305
-1.01622
21.5738
-1.0558
21.8225
-1.09548
22.0762
-1.13522
22.3349
-1.175
22.5985
-1.2148
22.8671
-1.25458
23.1396
-1.29437
23.4192
-1.33396
23.6961
-1.37387
24.0001
-1.4124
-1.45476
24.2393
53.5252
3.62342
-53.9948
53.0571
3.53659
52.5908
3.4485
52.126
3.35922
51.6628
3.26879
51.201
3.17729
50.7406
3.08477
50.2815
2.99131
49.8236
2.89697
49.3666
2.80182
48.9104
2.70592
48.4547
2.60935
47.9995
2.51219
47.5442
2.4145
47.0888
2.31635
46.6327
2.21784
46.1756
2.11903
45.7171
2.02001
45.2566
1.92086
44.7936
1.82167
44.3274
1.72252
43.8573
1.6235
43.3825
1.5247
42.9019
1.42623
42.4145
1.32818
41.9191
1.23066
41.4142
1.13376
40.898
1.03761
40.3686
0.942327
39.8234
0.848035
39.2597
0.754872
38.6737
0.662985
38.061
0.572537
37.4157
0.483711
36.7298
0.396708
35.9932
0.311769
35.1927
0.229191
34.3062
0.149353
33.2772
0.0727199
31.9758
0
30.2149
-0.067231
27.9089
-0.125819
25.275
-0.172257
22.781
-0.206375
20.8212
-0.232851
19.4979
-0.257661
18.6944
-0.284372
18.241
-0.313897
18.004
-0.345889
17.8984
-0.379744
17.8745
-0.414968
17.9039
-0.451223
17.9701
-0.488293
18.063
-0.526036
18.1764
-0.56436
18.3062
-0.603198
18.4494
-0.642502
18.6042
-0.682231
18.7691
-0.72235
18.9429
-0.762829
19.1248
-0.803639
19.3142
-0.844752
19.5105
-0.886141
19.7132
-0.92778
19.9221
-0.969641
20.1368
-1.0117
20.3572
-1.05393
20.5829
-1.0963
20.8139
-1.13879
21.0499
-1.18136
21.2908
-1.224
21.5366
-1.26667
21.7871
-1.30936
22.0424
-1.35201
22.3015
-1.39465
22.5673
-1.43709
22.8307
-1.47984
23.1197
-1.52114
-1.56643
23.348
51.7422
3.88325
-52.1972
51.2888
3.79013
50.8371
3.69567
50.3871
3.59994
49.9388
3.50299
49.492
3.4049
49.0467
3.30574
48.6027
3.20557
48.1599
3.10447
47.7182
3.0025
47.2774
2.89974
46.8374
2.79628
46.3977
2.69218
45.9583
2.58752
45.5188
2.48238
45.0788
2.37685
44.6381
2.27101
44.196
2.16495
43.7523
2.05875
43.3063
1.9525
42.8574
1.8463
42.4049
1.74025
41.9481
1.63444
41.4859
1.52897
41.0175
1.42395
40.5415
1.31948
40.0567
1.2157
39.5613
1.1127
39.0535
1.01063
38.531
0.909607
37.9911
0.809788
37.4302
0.711326
36.8443
0.614393
36.2279
0.51918
35.5734
0.425902
34.8714
0.334811
34.1097
0.246219
33.2684
0.16052
32.2978
0.0782055
31.0819
0
29.4436
-0.0725186
27.2814
-0.136124
24.7678
-0.186972
22.335
-0.224404
20.3817
-0.253024
19.0388
-0.279333
18.2116
-0.307491
17.7384
-0.338704
17.486
-0.372664
17.3679
-0.408709
17.3332
-0.44628
17.3526
-0.484988
17.4092
-0.524582
17.4925
-0.564902
17.5964
-0.605841
17.7164
-0.647324
17.8499
-0.689296
17.9947
-0.731713
18.1494
-0.774537
18.313
-0.817734
18.4844
-0.861273
18.6632
-0.905125
18.8487
-0.949259
19.0405
-0.993649
19.2383
-1.03827
19.4417
-1.08308
19.6506
-1.12807
19.8648
-1.17319
20.0839
-1.21843
20.308
-1.26376
20.5369
-1.30914
20.7704
-1.35455
21.0084
-1.39995
21.251
-1.44532
21.4974
-1.49066
21.7502
-1.53578
22.0008
-1.5812
22.2754
-1.62512
-1.67315
22.4934
50.0183
4.13312
-50.459
49.5792
4.03394
49.142
3.93336
48.7065
3.83142
48.2727
3.72821
47.8405
3.62379
47.4098
3.51824
46.9805
3.41163
46.5526
3.30403
46.1258
3.19551
45.7
3.08617
45.275
2.97608
44.8506
2.86531
44.4265
2.75396
44.0024
2.64211
43.578
2.52984
43.1531
2.41725
42.727
2.30442
42.2995
2.19145
41.8699
2.07843
41.4377
1.96547
41.0022
1.85265
40.5627
1.7401
40.1183
1.62791
39.6681
1.51619
39.2108
1.40506
38.7453
1.29465
38.2699
1.18508
37.7829
1.07648
37.2821
0.96899
36.7649
0.86277
36.2282
0.757982
35.6679
0.654806
35.079
0.553443
34.4545
0.454119
33.7856
0.357097
33.0607
0.2627
32.2621
0.17134
31.3462
0.0835265
30.2096
0
28.6861
-0.0776717
26.6621
-0.146224
24.2688
-0.201508
21.9013
-0.242337
19.9584
-0.273135
18.5977
-0.300868
17.7471
-0.330329
17.2541
-0.36307
16.9863
-0.398846
16.856
-0.436944
16.8108
-0.476734
16.8207
-0.517773
16.868
-0.559774
16.9423
-0.602553
17.0371
-0.645989
17.148
-0.689999
17.2722
-0.734519
17.4076
-0.779501
17.5527
-0.824904
17.7065
-0.870693
17.8681
-0.916832
18.0368
-0.963291
18.2121
-1.01004
18.3935
-1.05704
18.5808
-1.10428
18.7736
-1.15171
18.9716
-1.19931
19.1747
-1.24705
19.3827
-1.2949
19.5955
-1.34283
19.8129
-1.39081
20.0347
-1.4388
20.2609
-1.48678
20.4916
-1.53471
20.7259
-1.5826
20.9662
-1.63025
21.2047
-1.6782
21.4657
-1.72459
-1.77518
21.6739
48.3518
4.37336
-48.7785
47.9267
4.26837
47.5036
4.16189
47.0822
4.054
46.6625
3.94477
46.2446
3.83427
45.8282
3.72258
45.4133
3.60978
44.9997
3.49594
44.5874
3.38114
44.1762
3.26547
43.7658
3.14902
43.3561
3.03186
42.9469
2.91408
42.5378
2.79578
42.1286
2.67704
41.7188
2.55796
41.3082
2.43864
40.8963
2.31916
40.4826
2.19965
40.0665
2.08018
39.6474
1.96088
39.2247
1.84184
38.7974
1.7232
38.3647
1.60505
37.9254
1.48752
37.4784
1.37074
37.0223
1.25484
36.5552
1.13997
36.0752
1.02626
35.5798
0.913887
35.0661
0.803012
34.5304
0.693828
33.9678
0.586543
33.3719
0.481394
32.7344
0.378653
32.0446
0.278655
31.2863
0.181823
30.4216
0.088688
29.3585
0
27.9422
-0.0826919
26.0506
-0.156114
23.7772
-0.215857
21.4788
-0.260173
19.5505
-0.293199
18.1739
-0.322299
17.3004
-0.352926
16.7875
-0.387034
16.5044
-0.424475
16.362
-0.464489
16.3067
-0.506372
16.3073
-0.549625
16.3459
-0.593918
16.4116
-0.639044
16.4978
-0.684865
16.6
-0.731286
16.7154
-0.778239
16.8419
-0.82567
16.978
-0.873535
17.1226
-0.921794
17.2748
-0.970411
17.434
-1.01935
17.5996
-1.06859
17.7712
-1.11808
17.9485
-1.1678
18.1312
-1.21772
18.3189
-1.26781
18.5116
-1.31803
18.709
-1.36835
18.911
-1.41875
19.1175
-1.46918
19.3283
-1.51962
19.5433
-1.57003
19.7626
-1.62038
19.9854
-1.67068
20.214
-1.72071
20.4409
-1.77104
20.689
-1.81976
-1.87275
20.8879
46.7408
4.60431
-47.1539
46.3295
4.49373
45.9201
4.3816
45.5125
4.268
45.1067
4.15298
44.7025
4.03665
44.3
3.91906
43.8991
3.80031
43.4996
3.68048
43.1013
3.55965
42.7042
3.43791
42.3081
3.31534
41.9127
3.19204
41.5178
3.0681
41.1232
2.9436
40.7286
2.81865
40.3336
2.69335
39.9379
2.56779
39.5411
2.44208
39.1427
2.31631
38.7422
2.19061
38.3389
2.06507
37.9323
1.93982
37.5215
1.81497
37.1056
1.69064
36.6837
1.56696
36.2545
1.44407
35.8168
1.3221
35.3688
1.20119
34.9088
1.0815
34.4344
0.963206
33.9427
0.846476
33.4304
0.731508
32.8929
0.618521
32.3243
0.507758
31.7167
0.399503
31.0603
0.294099
30.3402
0.191981
29.5233
0.0936946
28.5284
0
27.2121
-0.0875807
25.4468
-0.165793
23.2923
-0.230006
21.0666
-0.277903
19.157
-0.313227
17.7668
-0.343655
16.8709
-0.375321
16.3381
-0.410639
16.0397
-0.449591
15.8853
-0.491384
15.8201
-0.535238
15.8118
-0.580588
15.842
-0.627064
15.8996
-0.674427
15.9776
-0.722524
16.0716
-0.771249
16.1787
-0.820525
16.2968
-0.870293
16.4243
-0.920506
16.5602
-0.971121
16.7035
-1.0221
16.8537
-1.07341
17.0102
-1.12501
17.1725
-1.17687
17.3403
-1.22896
17.5134
-1.28124
17.6914
-1.33368
17.8742
-1.38626
18.0616
-1.43892
18.2534
-1.49165
18.4495
-1.54441
18.6498
-1.59716
18.8542
-1.64988
19.0627
-1.70251
19.2746
-1.75508
19.492
-1.80737
19.708
-1.85993
19.9439
-1.91086
-1.9661
20.1338
45.1838
4.82631
-45.5835
44.7858
4.71037
44.3898
4.59281
43.9956
4.47371
43.6032
4.35315
43.2126
4.2312
42.8236
4.10796
42.4363
3.98351
42.0503
3.85792
41.6657
3.7313
41.2823
3.60373
40.9
3.4753
40.5184
3.34611
40.1375
3.21624
39.7569
3.0858
39.3765
2.9549
38.9958
2.82361
38.6145
2.69207
38.2323
2.56036
37.8487
2.4286
37.4631
2.29691
37.0751
2.16539
36.684
2.03416
36.289
1.90336
35.8894
1.7731
35.4841
1.64351
35.072
1.51474
34.652
1.38692
34.2224
1.26022
33.7815
1.13479
33.3271
1.01079
32.8565
0.88843
32.3666
0.767895
31.8531
0.649416
31.3105
0.533244
30.7315
0.419671
30.1067
0.30905
29.4229
0.201823
28.6508
0.098551
27.7189
-1.92456e-07
26.4956
-0.0923395
24.8506
-0.175258
22.8135
-0.243947
20.6638
-0.29552
18.7771
-0.333228
17.3756
-0.364966
16.4581
-0.397553
15.9054
-0.433924
15.5915
-0.474235
15.4253
-0.517669
15.3503
-0.56337
15.3336
-0.610705
15.3558
-0.659255
15.4055
-0.708752
15.4758
-0.759021
15.5621
-0.809945
15.6613
-0.861439
15.7714
-0.913439
15.8908
-0.965893
16.0184
-1.01875
16.1534
-1.07199
16.2951
-1.12555
16.4428
-1.1794
16.5964
-1.23351
16.7552
-1.28785
16.9192
-1.34238
17.088
-1.39706
17.2614
-1.45186
17.4392
-1.50675
17.6214
-1.5617
17.8077
-1.61666
17.9981
-1.6716
18.1923
-1.72649
18.3906
-1.78128
18.5922
-1.836
18.799
-1.89041
19.0046
-1.94508
19.2288
-1.99808
-2.05542
19.4103
43.6789
5.03967
-44.0656
43.294
4.91858
42.911
4.79581
42.5299
4.67144
42.1506
4.54555
41.7731
4.41823
41.3973
4.28956
41.023
4.15963
40.6503
4.02853
40.279
3.89635
39.9089
3.76318
39.5399
3.62913
39.1717
3.49428
38.8043
3.35873
38.4373
3.22259
38.0705
3.08596
37.7036
2.94895
37.3363
2.81165
36.9682
2.6742
36.5988
2.53669
36.2277
2.39924
35.8544
2.26197
35.4782
2.12501
35.0985
1.98849
34.7144
1.85253
34.3251
1.71727
33.9296
1.58285
33.5265
1.44942
33.1145
1.31714
32.692
1.18618
32.2567
1.05671
31.8064
0.928928
31.3378
0.803035
30.8472
0.679267
30.3294
0.557883
29.7775
0.439182
29.1829
0.323524
28.5334
0.21136
27.8033
0.103262
26.9299
0
25.7929
-0.096971
24.2618
-0.184505
22.3402
-0.257667
20.2693
-0.313013
18.4098
-0.353209
16.9997
-0.386258
16.0613
-0.41966
15.4888
-0.45693
15.1594
-0.498447
14.9814
-0.543384
14.8969
-0.59081
14.8718
-0.640018
14.8864
-0.690538
14.9287
-0.742066
14.9917
-0.794408
15.0706
-0.847431
15.1624
-0.901043
15.2649
-0.955173
15.3767
-1.00977
15.4965
-1.06477
15.6235
-1.12015
15.7571
-1.17586
15.8967
-1.23186
16.0418
-1.28811
16.1922
-1.34459
16.3475
-1.40125
16.5076
-1.45806
16.6721
-1.51498
16.8409
-1.57198
17.0139
-1.62901
17.1909
-1.68606
17.3718
-1.74307
17.5565
-1.80002
17.7451
-1.85686
17.9368
-1.91359
18.1335
-1.97001
18.3293
-2.02667
18.5424
-2.08163
-2.14094
18.7159
42.2245
5.2447
-42.5985
41.8523
5.11867
41.482
4.9909
41.1136
4.86148
40.7471
4.73048
40.3823
4.598
40.0193
4.46412
39.6578
4.32894
39.2979
4.19255
38.9394
4.05504
38.5822
3.9165
38.2261
3.77705
37.871
3.63677
37.5166
3.49578
37.1628
3.35417
36.8092
3.21205
36.4556
3.06953
36.1018
2.92672
35.7472
2.78375
35.3916
2.64071
35.0344
2.49774
34.6753
2.35496
34.3135
2.2125
33.9484
2.07048
33.5794
1.92905
33.2055
1.78833
32.8257
1.64849
32.439
1.50967
32.0439
1.37204
31.6388
1.23576
31.222
1.10102
30.7909
0.968023
30.3429
0.836972
29.8741
0.70811
29.3799
0.581703
28.8539
0.458056
28.288
0.337536
27.6709
0.220602
26.9803
0.107831
26.161
0
25.104
-0.101476
23.6806
-0.193535
21.8719
-0.271157
19.8824
-0.330368
18.0543
-0.37317
16.6385
-0.407554
15.6801
-0.441679
15.0878
-0.479699
14.7429
-0.522266
14.553
-0.568567
14.4591
-0.617595
14.426
-0.668567
14.4332
-0.720953
14.4685
-0.774415
14.5245
-0.828733
14.5964
-0.88376
14.6812
-0.939394
14.7766
-0.995558
14.8811
-1.05219
14.9935
-1.10924
15.113
-1.16667
15.2389
-1.22442
15.3707
-1.28246
15.508
-1.34076
15.6503
-1.39927
15.7975
-1.45796
15.9492
-1.51678
16.1053
-1.57572
16.2655
-1.63471
16.4298
-1.69374
16.598
-1.75276
16.77
-1.81173
16.9456
-1.87063
17.1249
-1.92939
17.3073
-1.98804
17.4945
-2.04635
17.6809
-2.10488
17.8836
-2.16169
-2.22283
18.0493
40.819
5.44171
-41.1807
40.4592
5.31094
40.1013
5.17838
39.7453
5.04411
39.3911
4.90821
39.0387
4.77078
38.688
4.63191
38.339
4.49169
37.9915
4.35022
37.6455
4.2076
37.3008
4.06392
36.9572
3.91929
36.6147
3.77381
36.2729
3.62758
35.9318
3.48072
35.591
3.33334
35.2503
3.18554
34.9094
3.03745
34.5679
2.88917
34.2256
2.74084
33.8818
2.59257
33.5363
2.4445
33.1884
2.29675
32.8374
2.14946
32.4828
2.00276
32.1237
1.85681
31.7591
1.71176
31.388
1.56776
31.0091
1.42498
30.6209
1.28359
30.2216
1.14379
29.8091
1.00577
29.3806
0.86975
28.9327
0.735982
28.461
0.604733
27.9596
0.476317
27.4209
0.351103
26.8346
0.229557
26.181
0.112263
25.4119
0
24.429
-0.105858
23.107
-0.202345
21.4084
-0.284406
19.5022
-0.34757
17.7097
-0.393109
16.2911
-0.428877
15.314
-0.463648
14.702
-0.502272
14.3413
-0.545733
14.1397
-0.593257
14.0365
-0.643764
13.9956
-0.69639
13.9957
-0.750543
14.0242
-0.805843
14.0736
-0.862044
14.1389
-0.918984
14.217
-0.976548
14.3056
-1.03465
14.4032
-1.09324
14.5087
-1.15224
14.6211
-1.21161
14.7398
-1.27132
14.8642
-1.33131
14.994
-1.39155
15.1287
-1.45199
15.2681
-1.5126
15.4119
-1.57335
15.56
-1.63419
15.7122
-1.69508
15.8682
-1.75599
16.028
-1.81688
16.1915
-1.87771
16.3585
-1.93845
16.529
-1.99903
16.7026
-2.05948
16.8807
-2.11958
17.0581
-2.17987
17.2509
-2.23842
-2.30129
17.4093
39.4609
5.63099
-39.8105
39.1131
5.49568
38.7672
5.35852
38.4232
5.2196
38.081
5.07901
37.7407
4.93684
37.402
4.79318
37.065
4.64813
36.7296
4.50179
36.3956
4.35427
36.063
4.20565
35.7316
4.05606
35.4012
3.90558
35.0716
3.75435
34.7427
3.60245
34.4143
3.45002
34.086
3.29715
33.7577
3.14398
33.4289
2.99063
33.0993
2.83721
32.7685
2.68386
32.4361
2.5307
32.1015
2.37788
31.7642
2.22552
31.4234
2.07378
31.0785
1.92281
30.7285
1.77274
30.3724
1.62376
30.009
1.47603
29.6369
1.32973
29.2545
1.18505
28.8596
1.0422
28.4498
0.901409
28.0218
0.762915
27.5716
0.627001
27.0937
0.493983
26.5809
0.364238
26.0237
0.238235
25.4049
0.116562
24.6824
0
23.7678
-0.110119
22.5411
-0.210936
20.9492
-0.297404
19.1279
-0.364602
17.3751
-0.41302
15.957
-0.450242
14.9624
-0.485601
14.3308
-0.52469
13.9543
-0.568888
13.7408
-0.617492
13.6285
-0.669355
13.5799
-0.723526
13.5732
-0.779348
13.5953
-0.836393
13.6384
-0.894387
13.6974
-0.953151
13.7692
-1.01256
13.8514
-1.07252
13.9425
-1.13296
14.0413
-1.19382
14.147
-1.25506
14.2588
-1.31662
14.3763
-1.37847
14.499
-1.44055
14.6265
-1.50284
14.7585
-1.56529
14.8949
-1.62786
15.0354
-1.69051
15.1798
-1.7532
15.328
-1.81589
15.4799
-1.87856
15.6353
-1.94114
15.7941
-2.00361
15.9564
-2.06592
16.1215
-2.12807
16.291
-2.18985
16.46
-2.25181
16.6433
-2.31201
-2.37647
16.7947
38.1486
5.81282
-38.4865
37.8124
5.67315
37.4782
5.5316
37.1459
5.38822
36.8154
5.24313
36.4867
5.09641
36.1597
4.94816
35.8344
4.79849
35.5106
4.64749
35.1883
4.49526
34.8674
4.34192
34.5477
4.18756
34.2291
4.0323
33.9113
3.87626
33.5943
3.71953
33.2778
3.56225
32.9615
3.40453
32.6452
3.2465
32.3286
3.08827
32.0113
2.92997
31.693
2.77174
31.3733
2.61371
31.0515
2.45601
30.7272
2.2988
30.3998
2.14221
30.0685
1.9864
29.7325
1.83153
29.3908
1.67776
29.0423
1.52527
28.6857
1.37425
28.3194
1.22488
27.9414
1.07739
27.5494
0.931989
27.1405
0.788944
26.7108
0.648532
26.2551
0.511076
25.7669
0.376956
25.2375
0.246644
24.6513
0.120733
23.972
-1.93175e-07
23.1206
-0.114261
21.983
-0.219308
20.4941
-0.310142
18.7587
-0.381445
17.0497
-0.432893
15.6354
-0.471664
14.6247
-0.507573
13.9738
-0.546994
13.5815
-0.591773
13.356
-0.641311
13.2345
-0.694405
13.1785
-0.750013
13.1651
-0.807405
13.1811
-0.866104
13.2182
-0.925806
13.2713
-0.986307
13.337
-1.04747
13.4132
-1.1092
13.4982
-1.17142
13.5907
-1.23406
13.69
-1.29707
13.7954
-1.36041
13.9062
-1.42402
14.0221
-1.48787
14.1428
-1.55191
14.2679
-1.6161
14.3972
-1.6804
14.5305
-1.74477
14.6676
-1.80917
14.8084
-1.87355
14.9527
-1.93789
15.1005
-2.00214
15.2515
-2.06626
15.4059
-2.13019
15.563
-2.19395
15.7243
-2.25732
15.8853
-2.32084
16.0597
-2.3826
-2.44856
16.2045
36.8805
5.98747
-37.2071
36.5558
5.84364
36.2329
5.69787
35.9119
5.55023
35.5927
5.40082
35.2753
5.24975
34.9596
5.09711
34.6456
4.943
34.3332
4.78752
34.0222
4.63079
33.7126
4.47291
33.4042
4.314
33.0969
4.15415
32.7906
3.9935
32.485
3.83215
32.18
3.67022
31.8753
3.50784
31.5707
3.34514
31.2658
3.18223
30.9604
3.01925
30.6541
2.85634
30.3465
2.69362
30.0371
2.53126
29.7254
2.36937
29.4108
2.20813
29.0926
2.04768
28.77
1.88819
28.4422
1.72983
28.1079
1.57277
27.7661
1.4172
27.4152
1.26333
27.0534
1.11136
26.6785
0.96153
26.2878
0.814099
25.8776
0.669352
25.4431
0.527615
24.9783
0.389271
24.4751
0.254793
23.9197
0.124778
23.2805
0
22.4874
-0.118287
21.4329
-0.227462
20.0431
-0.322611
18.3941
-0.398081
16.7324
-0.452714
15.3256
-0.493151
14.3005
-0.529593
13.6307
-0.569225
13.2223
-0.614428
12.9847
-0.664753
12.8541
-0.71895
12.7907
-0.775886
12.771
-0.834752
12.7811
-0.895017
12.8124
-0.95634
12.8599
-1.0185
12.92
-1.08134
12.9904
-1.14476
13.0695
-1.20867
13.1562
-1.27301
13.2494
-1.33772