/*--------------------------------*- C++ -*----------------------------------*\
| =========                 |                                                 |
| \\      /  F ield         | OpenFOAM: The Open Source CFD Toolbox           |
|  \\    /   O peration     | Version:  2312                                  |
|   \\  /    A nd           | Website:  www.openfoam.com                      |
|    \\/     M anipulation  |                                                 |
\*---------------------------------------------------------------------------*/
FoamFile
{
    version     2.0;
    format      ascii;
    arch        "LSB;label=32;scalar=64";
    class       volVectorField;
    location    "0.409";
    object      U;
}
// * * * * * * * * * * * * * * * * * * * * * * * * * * * * * * * * * * * * * //

dimensions      [0 1 -1 0 0 0 0];

internalField   nonuniform List<vector> 
31205
(
(212.178 0 0)
(209.35 0 0)
(206.432 0 0)
(203.419 0 0)
(200.303 0 0)
(197.079 0 0)
(193.736 0 0)
(190.266 0 0)
(186.658 0 0)
(182.899 0 0)
(178.976 0 0)
(174.873 0 0)
(170.571 0 0)
(166.05 0 0)
(161.289 0 0)
(156.267 0 0)
(150.967 0 0)
(145.389 0 0)
(139.572 0 0)
(133.621 0 0)
(127.723 0 0)
(122.127 0 0)
(117.086 0 0)
(112.794 0 0)
(109.338 0 0)
(106.709 0 0)
(104.826 0 0)
(103.579 0 0)
(102.851 0 0)
(102.538 0 0)
(102.554 0 0)
(102.829 0 0)
(103.307 0 0)
(103.947 0 0)
(104.716 0 0)
(105.587 0 0)
(106.542 0 0)
(107.565 0 0)
(108.643 0 0)
(109.767 0 0)
(110.928 0 0)
(112.119 0 0)
(113.336 0 0)
(114.575 0 0)
(115.831 0 0)
(117.101 0 0)
(118.383 0 0)
(119.675 0 0)
(120.975 0 0)
(122.281 0 0)
(123.591 0 0)
(124.906 0 0)
(126.223 0 0)
(127.542 0 0)
(128.862 0 0)
(130.182 0 0)
(131.502 0 0)
(132.821 0 0)
(134.139 0 0)
(135.455 0 0)
(136.769 0 0)
(138.081 0 0)
(139.39 0 0)
(140.697 0 0)
(142 0 0)
(143.301 0 0)
(144.597 0 0)
(145.891 0 0)
(147.18 0 0)
(148.466 0 0)
(149.747 0 0)
(151.025 0 0)
(152.299 0 0)
(153.567 0 0)
(154.836 0 0)
(156.082 0 0)
(157.384 0 0)
(158.496 0 0)
(160.172 0 0)
(209.62 0 0)
(206.79 0 0)
(203.87 0 0)
(200.854 0 0)
(197.735 0 0)
(194.506 0 0)
(191.158 0 0)
(187.681 0 0)
(184.065 0 0)
(180.296 0 0)
(176.362 0 0)
(172.244 0 0)
(167.926 0 0)
(163.388 0 0)
(158.609 0 0)
(153.571 0 0)
(148.265 0 0)
(142.703 0 0)
(136.945 0 0)
(131.123 0 0)
(125.438 0 0)
(120.136 0 0)
(115.443 0 0)
(111.508 0 0)
(108.384 0 0)
(106.035 0 0)
(104.374 0 0)
(103.293 0 0)
(102.684 0 0)
(102.452 0 0)
(102.52 0 0)
(102.824 0 0)
(103.315 0 0)
(103.956 0 0)
(104.717 0 0)
(105.574 0 0)
(106.51 0 0)
(107.509 0 0)
(108.561 0 0)
(109.655 0 0)
(110.786 0 0)
(111.947 0 0)
(113.132 0 0)
(114.337 0 0)
(115.56 0 0)
(116.796 0 0)
(118.045 0 0)
(119.302 0 0)
(120.568 0 0)
(121.84 0 0)
(123.116 0 0)
(124.397 0 0)
(125.68 0 0)
(126.965 0 0)
(128.251 0 0)
(129.538 0 0)
(130.824 0 0)
(132.11 0 0)
(133.395 0 0)
(134.679 0 0)
(135.96 0 0)
(137.24 0 0)
(138.517 0 0)
(139.791 0 0)
(141.063 0 0)
(142.331 0 0)
(143.597 0 0)
(144.858 0 0)
(146.117 0 0)
(147.371 0 0)
(148.622 0 0)
(149.869 0 0)
(151.112 0 0)
(152.349 0 0)
(153.589 0 0)
(154.805 0 0)
(156.075 0 0)
(157.164 0 0)
(158.79 0 0)
(206.928 0 0)
(204.094 0 0)
(201.17 0 0)
(198.148 0 0)
(195.023 0 0)
(191.786 0 0)
(188.429 0 0)
(184.941 0 0)
(181.312 0 0)
(177.529 0 0)
(173.577 0 0)
(169.441 0 0)
(165.101 0 0)
(160.54 0 0)
(155.739 0 0)
(150.685 0 0)
(145.377 0 0)
(139.846 0 0)
(134.177 0 0)
(128.524 0 0)
(123.1 0 0)
(118.135 0 0)
(113.818 0 0)
(110.257 0 0)
(107.468 0 0)
(105.398 0 0)
(103.955 0 0)
(103.036 0 0)
(102.542 0 0)
(102.389 0 0)
(102.507 0 0)
(102.841 0 0)
(103.346 0 0)
(103.989 0 0)
(104.742 0 0)
(105.585 0 0)
(106.502 0 0)
(107.479 0 0)
(108.505 0 0)
(109.573 0 0)
(110.674 0 0)
(111.804 0 0)
(112.958 0 0)
(114.131 0 0)
(115.322 0 0)
(116.525 0 0)
(117.741 0 0)
(118.965 0 0)
(120.198 0 0)
(121.436 0 0)
(122.679 0 0)
(123.927 0 0)
(125.177 0 0)
(126.429 0 0)
(127.682 0 0)
(128.936 0 0)
(130.19 0 0)
(131.444 0 0)
(132.697 0 0)
(133.948 0 0)
(135.198 0 0)
(136.446 0 0)
(137.692 0 0)
(138.935 0 0)
(140.175 0 0)
(141.413 0 0)
(142.647 0 0)
(143.878 0 0)
(145.106 0 0)
(146.33 0 0)
(147.551 0 0)
(148.768 0 0)
(149.981 0 0)
(151.189 0 0)
(152.399 0 0)
(153.586 0 0)
(154.825 0 0)
(155.89 0 0)
(157.469 0 0)
(204.175 0 0)
(201.334 0 0)
(198.403 0 0)
(195.373 0 0)
(192.238 0 0)
(188.991 0 0)
(185.621 0 0)
(182.119 0 0)
(178.473 0 0)
(174.671 0 0)
(170.698 0 0)
(166.537 0 0)
(162.172 0 0)
(157.584 0 0)
(152.759 0 0)
(147.69 0 0)
(142.39 0 0)
(136.911 0 0)
(131.364 0 0)
(125.921 0 0)
(120.796 0 0)
(116.195 0 0)
(112.267 0 0)
(109.077 0 0)
(106.614 0 0)
(104.81 0 0)
(103.574 0 0)
(102.808 0 0)
(102.424 0 0)
(102.346 0 0)
(102.513 0 0)
(102.875 0 0)
(103.393 0 0)
(104.038 0 0)
(104.786 0 0)
(105.616 0 0)
(106.516 0 0)
(107.471 0 0)
(108.473 0 0)
(109.515 0 0)
(110.589 0 0)
(111.69 0 0)
(112.813 0 0)
(113.956 0 0)
(115.115 0 0)
(116.287 0 0)
(117.47 0 0)
(118.663 0 0)
(119.863 0 0)
(121.069 0 0)
(122.281 0 0)
(123.496 0 0)
(124.714 0 0)
(125.934 0 0)
(127.155 0 0)
(128.377 0 0)
(129.6 0 0)
(130.822 0 0)
(132.043 0 0)
(133.264 0 0)
(134.482 0 0)
(135.699 0 0)
(136.914 0 0)
(138.127 0 0)
(139.337 0 0)
(140.544 0 0)
(141.749 0 0)
(142.95 0 0)
(144.148 0 0)
(145.343 0 0)
(146.534 0 0)
(147.721 0 0)
(148.906 0 0)
(150.084 0 0)
(151.265 0 0)
(152.424 0 0)
(153.633 0 0)
(154.675 0 0)
(156.21 0 0)
(201.396 0 0)
(198.548 0 0)
(195.608 0 0)
(192.568 0 0)
(189.422 0 0)
(186.162 0 0)
(182.777 0 0)
(179.258 0 0)
(175.593 0 0)
(171.769 0 0)
(167.771 0 0)
(163.584 0 0)
(159.19 0 0)
(154.575 0 0)
(149.729 0 0)
(144.653 0 0)
(139.379 0 0)
(133.98 0 0)
(128.592 0 0)
(123.398 0 0)
(118.602 0 0)
(114.379 0 0)
(110.835 0 0)
(108.002 0 0)
(105.843 0 0)
(104.286 0 0)
(103.238 0 0)
(102.613 0 0)
(102.329 0 0)
(102.319 0 0)
(102.531 0 0)
(102.919 0 0)
(103.45 0 0)
(104.097 0 0)
(104.838 0 0)
(105.657 0 0)
(106.539 0 0)
(107.475 0 0)
(108.454 0 0)
(109.47 0 0)
(110.517 0 0)
(111.59 0 0)
(112.685 0 0)
(113.798 0 0)
(114.927 0 0)
(116.069 0 0)
(117.221 0 0)
(118.383 0 0)
(119.552 0 0)
(120.727 0 0)
(121.907 0 0)
(123.091 0 0)
(124.277 0 0)
(125.466 0 0)
(126.657 0 0)
(127.848 0 0)
(129.04 0 0)
(130.231 0 0)
(131.422 0 0)
(132.612 0 0)
(133.8 0 0)
(134.987 0 0)
(136.172 0 0)
(137.355 0 0)
(138.535 0 0)
(139.713 0 0)
(140.888 0 0)
(142.06 0 0)
(143.229 0 0)
(144.395 0 0)
(145.557 0 0)
(146.716 0 0)
(147.872 0 0)
(149.022 0 0)
(150.174 0 0)
(151.306 0 0)
(152.484 0 0)
(153.503 0 0)
(154.997 0 0)
(198.608 0 0)
(195.752 0 0)
(192.802 0 0)
(189.751 0 0)
(186.593 0 0)
(183.318 0 0)
(179.917 0 0)
(176.379 0 0)
(172.693 0 0)
(168.845 0 0)
(164.821 0 0)
(160.605 0 0)
(156.184 0 0)
(151.544 0 0)
(146.683 0 0)
(141.615 0 0)
(136.39 0 0)
(131.106 0 0)
(125.916 0 0)
(121.005 0 0)
(116.559 0 0)
(112.715 0 0)
(109.542 0 0)
(107.042 0 0)
(105.163 0 0)
(103.828 0 0)
(102.951 0 0)
(102.45 0 0)
(102.256 0 0)
(102.308 0 0)
(102.558 0 0)
(102.97 0 0)
(103.511 0 0)
(104.159 0 0)
(104.894 0 0)
(105.701 0 0)
(106.567 0 0)
(107.483 0 0)
(108.44 0 0)
(109.432 0 0)
(110.453 0 0)
(111.499 0 0)
(112.566 0 0)
(113.651 0 0)
(114.751 0 0)
(115.863 0 0)
(116.985 0 0)
(118.117 0 0)
(119.256 0 0)
(120.4 0 0)
(121.55 0 0)
(122.704 0 0)
(123.86 0 0)
(125.019 0 0)
(126.179 0 0)
(127.34 0 0)
(128.502 0 0)
(129.664 0 0)
(130.825 0 0)
(131.985 0 0)
(133.144 0 0)
(134.301 0 0)
(135.457 0 0)
(136.611 0 0)
(137.762 0 0)
(138.911 0 0)
(140.057 0 0)
(141.201 0 0)
(142.341 0 0)
(143.478 0 0)
(144.613 0 0)
(145.743 0 0)
(146.871 0 0)
(147.994 0 0)
(149.118 0 0)
(150.222 0 0)
(151.372 0 0)
(152.367 0 0)
(153.822 0 0)
(195.819 0 0)
(192.953 0 0)
(189.993 0 0)
(186.93 0 0)
(183.758 0 0)
(180.467 0 0)
(177.048 0 0)
(173.49 0 0)
(169.782 0 0)
(165.909 0 0)
(161.858 0 0)
(157.614 0 0)
(153.167 0 0)
(148.507 0 0)
(143.642 0 0)
(138.601 0 0)
(133.456 0 0)
(128.324 0 0)
(123.369 0 0)
(118.77 0 0)
(114.684 0 0)
(111.212 0 0)
(108.39 0 0)
(106.196 0 0)
(104.57 0 0)
(103.434 0 0)
(102.708 0 0)
(102.318 0 0)
(102.203 0 0)
(102.309 0 0)
(102.594 0 0)
(103.025 0 0)
(103.576 0 0)
(104.223 0 0)
(104.951 0 0)
(105.746 0 0)
(106.596 0 0)
(107.493 0 0)
(108.428 0 0)
(109.397 0 0)
(110.393 0 0)
(111.413 0 0)
(112.453 0 0)
(113.51 0 0)
(114.582 0 0)
(115.665 0 0)
(116.759 0 0)
(117.861 0 0)
(118.971 0 0)
(120.086 0 0)
(121.206 0 0)
(122.33 0 0)
(123.458 0 0)
(124.587 0 0)
(125.718 0 0)
(126.85 0 0)
(127.982 0 0)
(129.115 0 0)
(130.247 0 0)
(131.378 0 0)
(132.509 0 0)
(133.637 0 0)
(134.765 0 0)
(135.89 0 0)
(137.013 0 0)
(138.134 0 0)
(139.252 0 0)
(140.367 0 0)
(141.48 0 0)
(142.59 0 0)
(143.696 0 0)
(144.8 0 0)
(145.9 0 0)
(146.995 0 0)
(148.092 0 0)
(149.17 0 0)
(150.292 0 0)
(151.263 0 0)
(152.681 0 0)
(193.029 0 0)
(190.154 0 0)
(187.182 0 0)
(184.107 0 0)
(180.92 0 0)
(177.612 0 0)
(174.174 0 0)
(170.595 0 0)
(166.863 0 0)
(162.964 0 0)
(158.886 0 0)
(154.617 0 0)
(150.147 0 0)
(145.476 0 0)
(140.623 0 0)
(135.634 0 0)
(130.602 0 0)
(125.66 0 0)
(120.974 0 0)
(116.705 0 0)
(112.98 0 0)
(109.867 0 0)
(107.372 0 0)
(105.457 0 0)
(104.058 0 0)
(103.099 0 0)
(102.506 0 0)
(102.215 0 0)
(102.169 0 0)
(102.322 0 0)
(102.637 0 0)
(103.085 0 0)
(103.641 0 0)
(104.288 0 0)
(105.008 0 0)
(105.791 0 0)
(106.625 0 0)
(107.503 0 0)
(108.418 0 0)
(109.364 0 0)
(110.336 0 0)
(111.331 0 0)
(112.345 0 0)
(113.375 0 0)
(114.419 0 0)
(115.475 0 0)
(116.54 0 0)
(117.614 0 0)
(118.696 0 0)
(119.782 0 0)
(120.874 0 0)
(121.97 0 0)
(123.068 0 0)
(124.169 0 0)
(125.271 0 0)
(126.375 0 0)
(127.479 0 0)
(128.583 0 0)
(129.687 0 0)
(130.79 0 0)
(131.893 0 0)
(132.994 0 0)
(134.093 0 0)
(135.191 0 0)
(136.286 0 0)
(137.38 0 0)
(138.47 0 0)
(139.559 0 0)
(140.644 0 0)
(141.727 0 0)
(142.806 0 0)
(143.883 0 0)
(144.957 0 0)
(146.025 0 0)
(147.095 0 0)
(148.147 0 0)
(149.241 0 0)
(150.19 0 0)
(151.571 0 0)
(190.239 0 0)
(187.353 0 0)
(184.37 0 0)
(181.281 0 0)
(178.078 0 0)
(174.753 0 0)
(171.295 0 0)
(167.693 0 0)
(163.937 0 0)
(160.012 0 0)
(155.909 0 0)
(151.616 0 0)
(147.131 0 0)
(142.461 0 0)
(137.64 0 0)
(132.734 0 0)
(127.85 0 0)
(123.134 0 0)
(118.743 0 0)
(114.816 0 0)
(111.447 0 0)
(108.672 0 0)
(106.478 0 0)
(104.816 0 0)
(103.619 0 0)
(102.817 0 0)
(102.342 0 0)
(102.136 0 0)
(102.151 0 0)
(102.345 0 0)
(102.686 0 0)
(103.148 0 0)
(103.709 0 0)
(104.353 0 0)
(105.065 0 0)
(105.835 0 0)
(106.654 0 0)
(107.514 0 0)
(108.408 0 0)
(109.332 0 0)
(110.281 0 0)
(111.251 0 0)
(112.24 0 0)
(113.244 0 0)
(114.261 0 0)
(115.29 0 0)
(116.329 0 0)
(117.376 0 0)
(118.429 0 0)
(119.488 0 0)
(120.552 0 0)
(121.62 0 0)
(122.691 0 0)
(123.764 0 0)
(124.839 0 0)
(125.915 0 0)
(126.991 0 0)
(128.068 0 0)
(129.144 0 0)
(130.22 0 0)
(131.295 0 0)
(132.369 0 0)
(133.441 0 0)
(134.512 0 0)
(135.581 0 0)
(136.647 0 0)
(137.711 0 0)
(138.773 0 0)
(139.832 0 0)
(140.888 0 0)
(141.942 0 0)
(142.992 0 0)
(144.04 0 0)
(145.082 0 0)
(146.126 0 0)
(147.153 0 0)
(148.22 0 0)
(149.147 0 0)
(150.491 0 0)
(187.449 0 0)
(184.552 0 0)
(181.555 0 0)
(178.451 0 0)
(175.232 0 0)
(171.888 0 0)
(168.409 0 0)
(164.785 0 0)
(161.004 0 0)
(157.055 0 0)
(152.928 0 0)
(148.617 0 0)
(144.125 0 0)
(139.474 0 0)
(134.71 0 0)
(129.918 0 0)
(125.221 0 0)
(120.762 0 0)
(116.685 0 0)
(113.102 0 0)
(110.075 0 0)
(107.617 0 0)
(105.697 0 0)
(104.262 0 0)
(103.245 0 0)
(102.581 0 0)
(102.21 0 0)
(102.08 0 0)
(102.147 0 0)
(102.377 0 0)
(102.74 0 0)
(103.213 0 0)
(103.777 0 0)
(104.418 0 0)
(105.122 0 0)
(105.88 0 0)
(106.683 0 0)
(107.525 0 0)
(108.399 0 0)
(109.301 0 0)
(110.227 0 0)
(111.174 0 0)
(112.138 0 0)
(113.117 0 0)
(114.109 0 0)
(115.112 0 0)
(116.124 0 0)
(117.144 0 0)
(118.171 0 0)
(119.203 0 0)
(120.24 0 0)
(121.281 0 0)
(122.325 0 0)
(123.371 0 0)
(124.419 0 0)
(125.468 0 0)
(126.518 0 0)
(127.568 0 0)
(128.618 0 0)
(129.667 0 0)
(130.715 0 0)
(131.763 0 0)
(132.809 0 0)
(133.853 0 0)
(134.896 0 0)
(135.936 0 0)
(136.974 0 0)
(138.01 0 0)
(139.043 0 0)
(140.074 0 0)
(141.102 0 0)
(142.126 0 0)
(143.148 0 0)
(144.166 0 0)
(145.184 0 0)
(146.186 0 0)
(147.227 0 0)
(148.132 0 0)
(149.441 0 0)
(184.657 0 0)
(181.748 0 0)
(178.738 0 0)
(175.618 0 0)
(172.381 0 0)
(169.018 0 0)
(165.518 0 0)
(161.87 0 0)
(158.065 0 0)
(154.093 0 0)
(149.946 0 0)
(145.625 0 0)
(141.141 0 0)
(136.528 0 0)
(131.851 0 0)
(127.209 0 0)
(122.73 0 0)
(118.554 0 0)
(114.801 0 0)
(111.557 0 0)
(108.856 0 0)
(106.69 0 0)
(105.019 0 0)
(103.786 0 0)
(102.929 0 0)
(102.387 0 0)
(102.107 0 0)
(102.043 0 0)
(102.157 0 0)
(102.417 0 0)
(102.799 0 0)
(103.281 0 0)
(103.847 0 0)
(104.483 0 0)
(105.178 0 0)
(105.924 0 0)
(106.712 0 0)
(107.535 0 0)
(108.39 0 0)
(109.272 0 0)
(110.176 0 0)
(111.099 0 0)
(112.039 0 0)
(112.994 0 0)
(113.961 0 0)
(114.939 0 0)
(115.926 0 0)
(116.92 0 0)
(117.921 0 0)
(118.927 0 0)
(119.938 0 0)
(120.953 0 0)
(121.971 0 0)
(122.991 0 0)
(124.012 0 0)
(125.035 0 0)
(126.059 0 0)
(127.083 0 0)
(128.107 0 0)
(129.13 0 0)
(130.153 0 0)
(131.175 0 0)
(132.195 0 0)
(133.214 0 0)
(134.231 0 0)
(135.246 0 0)
(136.259 0 0)
(137.269 0 0)
(138.277 0 0)
(139.283 0 0)
(140.285 0 0)
(141.285 0 0)
(142.282 0 0)
(143.275 0 0)
(144.269 0 0)
(145.246 0 0)
(146.261 0 0)
(147.145 0 0)
(148.42 0 0)
(181.863 0 0)
(178.941 0 0)
(175.917 0 0)
(172.781 0 0)
(169.526 0 0)
(166.142 0 0)
(162.62 0 0)
(158.95 0 0)
(155.122 0 0)
(151.129 0 0)
(146.969 0 0)
(142.648 0 0)
(138.189 0 0)
(133.64 0 0)
(129.081 0 0)
(124.623 0 0)
(120.393 0 0)
(116.516 0 0)
(113.091 0 0)
(110.175 0 0)
(107.778 0 0)
(105.88 0 0)
(104.433 0 0)
(103.38 0 0)
(102.664 0 0)
(102.23 0 0)
(102.029 0 0)
(102.023 0 0)
(102.177 0 0)
(102.464 0 0)
(102.861 0 0)
(103.35 0 0)
(103.917 0 0)
(104.548 0 0)
(105.234 0 0)
(105.967 0 0)
(106.74 0 0)
(107.547 0 0)
(108.382 0 0)
(109.243 0 0)
(110.126 0 0)
(111.027 0 0)
(111.944 0 0)
(112.875 0 0)
(113.818 0 0)
(114.772 0 0)
(115.734 0 0)
(116.703 0 0)
(117.679 0 0)
(118.66 0 0)
(119.646 0 0)
(120.635 0 0)
(121.627 0 0)
(122.622 0 0)
(123.618 0 0)
(124.616 0 0)
(125.614 0 0)
(126.613 0 0)
(127.611 0 0)
(128.61 0 0)
(129.607 0 0)
(130.604 0 0)
(131.599 0 0)
(132.593 0 0)
(133.585 0 0)
(134.575 0 0)
(135.564 0 0)
(136.55 0 0)
(137.533 0 0)
(138.514 0 0)
(139.492 0 0)
(140.468 0 0)
(141.441 0 0)
(142.409 0 0)
(143.379 0 0)
(144.332 0 0)
(145.323 0 0)
(146.186 0 0)
(147.427 0 0)
(179.067 0 0)
(176.132 0 0)
(173.092 0 0)
(169.939 0 0)
(166.664 0 0)
(163.26 0 0)
(159.716 0 0)
(156.024 0 0)
(152.176 0 0)
(148.168 0 0)
(144.003 0 0)
(139.697 0 0)
(135.284 0 0)
(130.828 0 0)
(126.421 0 0)
(122.178 0 0)
(118.22 0 0)
(114.653 0 0)
(111.551 0 0)
(108.945 0 0)
(106.831 0 0)
(105.175 0 0)
(103.928 0 0)
(103.035 0 0)
(102.443 0 0)
(102.104 0 0)
(101.974 0 0)
(102.018 0 0)
(102.207 0 0)
(102.517 0 0)
(102.927 0 0)
(103.421 0 0)
(103.987 0 0)
(104.613 0 0)
(105.29 0 0)
(106.01 0 0)
(106.768 0 0)
(107.558 0 0)
(108.375 0 0)
(109.216 0 0)
(110.078 0 0)
(110.958 0 0)
(111.852 0 0)
(112.761 0 0)
(113.68 0 0)
(114.61 0 0)
(115.548 0 0)
(116.493 0 0)
(117.444 0 0)
(118.401 0 0)
(119.362 0 0)
(120.327 0 0)
(121.295 0 0)
(122.264 0 0)
(123.236 0 0)
(124.209 0 0)
(125.183 0 0)
(126.157 0 0)
(127.131 0 0)
(128.105 0 0)
(129.078 0 0)
(130.05 0 0)
(131.021 0 0)
(131.991 0 0)
(132.959 0 0)
(133.925 0 0)
(134.889 0 0)
(135.851 0 0)
(136.811 0 0)
(137.768 0 0)
(138.722 0 0)
(139.674 0 0)
(140.623 0 0)
(141.568 0 0)
(142.514 0 0)
(143.445 0 0)
(144.41 0 0)
(145.254 0 0)
(146.462 0 0)
(176.269 0 0)
(173.319 0 0)
(170.262 0 0)
(167.091 0 0)
(163.798 0 0)
(160.373 0 0)
(156.808 0 0)
(153.096 0 0)
(149.231 0 0)
(145.215 0 0)
(141.057 0 0)
(136.784 0 0)
(132.443 0 0)
(128.111 0 0)
(123.888 0 0)
(119.887 0 0)
(116.217 0 0)
(112.962 0 0)
(110.172 0 0)
(107.858 0 0)
(106.002 0 0)
(104.564 0 0)
(103.495 0 0)
(102.744 0 0)
(102.262 0 0)
(102.006 0 0)
(101.938 0 0)
(102.026 0 0)
(102.246 0 0)
(102.575 0 0)
(102.995 0 0)
(103.494 0 0)
(104.058 0 0)
(104.677 0 0)
(105.345 0 0)
(106.053 0 0)
(106.796 0 0)
(107.569 0 0)
(108.369 0 0)
(109.19 0 0)
(110.032 0 0)
(110.89 0 0)
(111.764 0 0)
(112.65 0 0)
(113.547 0 0)
(114.453 0 0)
(115.368 0 0)
(116.29 0 0)
(117.217 0 0)
(118.15 0 0)
(119.088 0 0)
(120.028 0 0)
(120.972 0 0)
(121.918 0 0)
(122.866 0 0)
(123.815 0 0)
(124.765 0 0)
(125.715 0 0)
(126.665 0 0)
(127.615 0 0)
(128.564 0 0)
(129.513 0 0)
(130.46 0 0)
(131.406 0 0)
(132.351 0 0)
(133.294 0 0)
(134.234 0 0)
(135.173 0 0)
(136.109 0 0)
(137.043 0 0)
(137.975 0 0)
(138.903 0 0)
(139.829 0 0)
(140.751 0 0)
(141.674 0 0)
(142.582 0 0)
(143.524 0 0)
(144.347 0 0)
(145.523 0 0)
(173.466 0 0)
(170.501 0 0)
(167.428 0 0)
(164.239 0 0)
(160.926 0 0)
(157.48 0 0)
(153.896 0 0)
(150.167 0 0)
(146.293 0 0)
(142.278 0 0)
(138.143 0 0)
(133.925 0 0)
(129.684 0 0)
(125.508 0 0)
(121.498 0 0)
(117.76 0 0)
(114.386 0 0)
(111.438 0 0)
(108.945 0 0)
(106.901 0 0)
(105.28 0 0)
(104.037 0 0)
(103.127 0 0)
(102.501 0 0)
(102.116 0 0)
(101.933 0 0)
(101.918 0 0)
(102.045 0 0)
(102.291 0 0)
(102.636 0 0)
(103.066 0 0)
(103.567 0 0)
(104.128 0 0)
(104.742 0 0)
(105.399 0 0)
(106.095 0 0)
(106.824 0 0)
(107.581 0 0)
(108.362 0 0)
(109.166 0 0)
(109.988 0 0)
(110.826 0 0)
(111.678 0 0)
(112.542 0 0)
(113.417 0 0)
(114.301 0 0)
(115.194 0 0)
(116.093 0 0)
(116.998 0 0)
(117.908 0 0)
(118.822 0 0)
(119.739 0 0)
(120.66 0 0)
(121.583 0 0)
(122.507 0 0)
(123.433 0 0)
(124.359 0 0)
(125.286 0 0)
(126.213 0 0)
(127.14 0 0)
(128.067 0 0)
(128.992 0 0)
(129.916 0 0)
(130.84 0 0)
(131.761 0 0)
(132.681 0 0)
(133.599 0 0)
(134.515 0 0)
(135.428 0 0)
(136.34 0 0)
(137.249 0 0)
(138.155 0 0)
(139.058 0 0)
(139.958 0 0)
(140.858 0 0)
(141.744 0 0)
(142.662 0 0)
(143.467 0 0)
(144.612 0 0)
(170.661 0 0)
(167.68 0 0)
(164.589 0 0)
(161.382 0 0)
(158.049 0 0)
(154.585 0 0)
(150.984 0 0)
(147.243 0 0)
(143.367 0 0)
(139.368 0 0)
(135.275 0 0)
(131.137 0 0)
(127.027 0 0)
(123.036 0 0)
(119.263 0 0)
(115.803 0 0)
(112.726 0 0)
(110.075 0 0)
(107.86 0 0)
(106.064 0 0)
(104.653 0 0)
(103.586 0 0)
(102.816 0 0)
(102.3 0 0)
(102 0 0)
(101.881 0 0)
(101.913 0 0)
(102.074 0 0)
(102.342 0 0)
(102.702 0 0)
(103.138 0 0)
(103.64 0 0)
(104.199 0 0)
(104.805 0 0)
(105.453 0 0)
(106.136 0 0)
(106.851 0 0)
(107.592 0 0)
(108.357 0 0)
(109.142 0 0)
(109.945 0 0)
(110.763 0 0)
(111.595 0 0)
(112.438 0 0)
(113.292 0 0)
(114.155 0 0)
(115.025 0 0)
(115.902 0 0)
(116.785 0 0)
(117.673 0 0)
(118.564 0 0)
(119.459 0 0)
(120.357 0 0)
(121.258 0 0)
(122.159 0 0)
(123.063 0 0)
(123.967 0 0)
(124.871 0 0)
(125.776 0 0)
(126.68 0 0)
(127.584 0 0)
(128.487 0 0)
(129.389 0 0)
(130.29 0 0)
(131.189 0 0)
(132.086 0 0)
(132.982 0 0)
(133.876 0 0)
(134.767 0 0)
(135.657 0 0)
(136.543 0 0)
(137.428 0 0)
(138.309 0 0)
(139.187 0 0)
(140.066 0 0)
(140.93 0 0)
(141.826 0 0)
(142.611 0 0)
(143.725 0 0)
(167.851 0 0)
(164.854 0 0)
(161.746 0 0)
(158.52 0 0)
(155.17 0 0)
(151.689 0 0)
(148.076 0 0)
(144.33 0 0)
(140.463 0 0)
(136.496 0 0)
(132.468 0 0)
(128.44 0 0)
(124.49 0 0)
(120.711 0 0)
(117.194 0 0)
(114.017 0 0)
(111.232 0 0)
(108.863 0 0)
(106.905 0 0)
(105.333 0 0)
(104.112 0 0)
(103.2 0 0)
(102.554 0 0)
(102.136 0 0)
(101.91 0 0)
(101.847 0 0)
(101.921 0 0)
(102.111 0 0)
(102.399 0 0)
(102.77 0 0)
(103.212 0 0)
(103.714 0 0)
(104.269 0 0)
(104.868 0 0)
(105.506 0 0)
(106.177 0 0)
(106.878 0 0)
(107.604 0 0)
(108.352 0 0)
(109.119 0 0)
(109.903 0 0)
(110.702 0 0)
(111.514 0 0)
(112.338 0 0)
(113.171 0 0)
(114.013 0 0)
(114.862 0 0)
(115.718 0 0)
(116.579 0 0)
(117.445 0 0)
(118.315 0 0)
(119.188 0 0)
(120.064 0 0)
(120.943 0 0)
(121.823 0 0)
(122.704 0 0)
(123.586 0 0)
(124.468 0 0)
(125.351 0 0)
(126.233 0 0)
(127.115 0 0)
(127.997 0 0)
(128.877 0 0)
(129.756 0 0)
(130.634 0 0)
(131.51 0 0)
(132.384 0 0)
(133.256 0 0)
(134.126 0 0)
(134.994 0 0)
(135.859 0 0)
(136.722 0 0)
(137.582 0 0)
(138.439 0 0)
(139.296 0 0)
(140.139 0 0)
(141.013 0 0)
(141.78 0 0)
(142.864 0 0)
(165.038 0 0)
(162.024 0 0)
(158.899 0 0)
(155.656 0 0)
(152.29 0 0)
(148.796 0 0)
(145.176 0 0)
(141.436 0 0)
(137.593 0 0)
(133.679 0 0)
(129.742 0 0)
(125.851 0 0)
(122.088 0 0)
(118.543 0 0)
(115.293 0 0)
(112.4 0 0)
(109.896 0 0)
(107.791 0 0)
(106.068 0 0)
(104.699 0 0)
(103.647 0 0)
(102.873 0 0)
(102.336 0 0)
(102.004 0 0)
(101.844 0 0)
(101.83 0 0)
(101.94 0 0)
(102.156 0 0)
(102.46 0 0)
(102.841 0 0)
(103.287 0 0)
(103.788 0 0)
(104.338 0 0)
(104.93 0 0)
(105.558 0 0)
(106.217 0 0)
(106.904 0 0)
(107.615 0 0)
(108.347 0 0)
(109.097 0 0)
(109.864 0 0)
(110.644 0 0)
(111.437 0 0)
(112.241 0 0)
(113.054 0 0)
(113.875 0 0)
(114.704 0 0)
(115.539 0 0)
(116.38 0 0)
(117.225 0 0)
(118.073 0 0)
(118.926 0 0)
(119.78 0 0)
(120.637 0 0)
(121.496 0 0)
(122.356 0 0)
(123.217 0 0)
(124.078 0 0)
(124.939 0 0)
(125.801 0 0)
(126.661 0 0)
(127.522 0 0)
(128.381 0 0)
(129.239 0 0)
(130.095 0 0)
(130.95 0 0)
(131.803 0 0)
(132.654 0 0)
(133.503 0 0)
(134.35 0 0)
(135.195 0 0)
(136.036 0 0)
(136.876 0 0)
(137.712 0 0)
(138.548 0 0)
(139.371 0 0)
(140.223 0 0)
(140.972 0 0)
(142.028 0 0)
(162.221 0 0)
(159.191 0 0)
(156.05 0 0)
(152.791 0 0)
(149.412 0 0)
(145.911 0 0)
(142.293 0 0)
(138.571 0 0)
(134.771 0 0)
(130.932 0 0)
(127.113 0 0)
(123.387 0 0)
(119.837 0 0)
(116.54 0 0)
(113.562 0 0)
(110.946 0 0)
(108.709 0 0)
(106.847 0 0)
(105.338 0 0)
(104.151 0 0)
(103.25 0 0)
(102.597 0 0)
(102.157 0 0)
(101.9 0 0)
(101.798 0 0)
(101.827 0 0)
(101.969 0 0)
(102.206 0 0)
(102.525 0 0)
(102.913 0 0)
(103.362 0 0)
(103.862 0 0)
(104.407 0 0)
(104.992 0 0)
(105.61 0 0)
(106.257 0 0)
(106.931 0 0)
(107.627 0 0)
(108.343 0 0)
(109.076 0 0)
(109.825 0 0)
(110.588 0 0)
(111.362 0 0)
(112.147 0 0)
(112.941 0 0)
(113.743 0 0)
(114.551 0 0)
(115.366 0 0)
(116.186 0 0)
(117.011 0 0)
(117.84 0 0)
(118.671 0 0)
(119.505 0 0)
(120.342 0 0)
(121.18 0 0)
(122.019 0 0)
(122.859 0 0)
(123.7 0 0)
(124.541 0 0)
(125.381 0 0)
(126.221 0 0)
(127.061 0 0)
(127.899 0 0)
(128.737 0 0)
(129.573 0 0)
(130.407 0 0)
(131.24 0 0)
(132.07 0 0)
(132.899 0 0)
(133.726 0 0)
(134.55 0 0)
(135.371 0 0)
(136.191 0 0)
(137.006 0 0)
(137.822 0 0)
(138.625 0 0)
(139.456 0 0)
(140.188 0 0)
(141.215 0 0)
(159.401 0 0)
(156.356 0 0)
(153.199 0 0)
(149.928 0 0)
(146.541 0 0)
(143.04 0 0)
(139.436 0 0)
(135.749 0 0)
(132.011 0 0)
(128.274 0 0)
(124.6 0 0)
(121.065 0 0)
(117.744 0 0)
(114.705 0 0)
(111.997 0 0)
(109.647 0 0)
(107.659 0 0)
(106.02 0 0)
(104.705 0 0)
(103.68 0 0)
(102.912 0 0)
(102.366 0 0)
(102.012 0 0)
(101.821 0 0)
(101.769 0 0)
(101.837 0 0)
(102.006 0 0)
(102.262 0 0)
(102.593 0 0)
(102.987 0 0)
(103.438 0 0)
(103.936 0 0)
(104.476 0 0)
(105.052 0 0)
(105.66 0 0)
(106.296 0 0)
(106.956 0 0)
(107.638 0 0)
(108.339 0 0)
(109.056 0 0)
(109.788 0 0)
(110.533 0 0)
(111.289 0 0)
(112.056 0 0)
(112.831 0 0)
(113.614 0 0)
(114.403 0 0)
(115.199 0 0)
(116 0 0)
(116.804 0 0)
(117.613 0 0)
(118.425 0 0)
(119.239 0 0)
(120.055 0 0)
(120.873 0 0)
(121.693 0 0)
(122.513 0 0)
(123.333 0 0)
(124.154 0 0)
(124.974 0 0)
(125.795 0 0)
(126.614 0 0)
(127.432 0 0)
(128.25 0 0)
(129.066 0 0)
(129.88 0 0)
(130.693 0 0)
(131.504 0 0)
(132.313 0 0)
(133.119 0 0)
(133.924 0 0)
(134.725 0 0)
(135.525 0 0)
(136.321 0 0)
(137.117 0 0)
(137.901 0 0)
(138.711 0 0)
(139.426 0 0)
(140.425 0 0)
(156.579 0 0)
(153.519 0 0)
(150.351 0 0)
(147.071 0 0)
(143.683 0 0)
(140.192 0 0)
(136.616 0 0)
(132.982 0 0)
(129.332 0 0)
(125.722 0 0)
(122.219 0 0)
(118.895 0 0)
(115.816 0 0)
(113.037 0 0)
(110.592 0 0)
(108.493 0 0)
(106.735 0 0)
(105.299 0 0)
(104.156 0 0)
(103.276 0 0)
(102.626 0 0)
(102.175 0 0)
(101.896 0 0)
(101.763 0 0)
(101.756 0 0)
(101.857 0 0)
(102.05 0 0)
(102.322 0 0)
(102.663 0 0)
(103.063 0 0)
(103.514 0 0)
(104.009 0 0)
(104.543 0 0)
(105.112 0 0)
(105.71 0 0)
(106.334 0 0)
(106.982 0 0)
(107.65 0 0)
(108.335 0 0)
(109.037 0 0)
(109.752 0 0)
(110.48 0 0)
(111.219 0 0)
(111.968 0 0)
(112.725 0 0)
(113.489 0 0)
(114.26 0 0)
(115.037 0 0)
(115.819 0 0)
(116.604 0 0)
(117.394 0 0)
(118.186 0 0)
(118.981 0 0)
(119.778 0 0)
(120.577 0 0)
(121.376 0 0)
(122.177 0 0)
(122.978 0 0)
(123.779 0 0)
(124.58 0 0)
(125.381 0 0)
(126.181 0 0)
(126.98 0 0)
(127.778 0 0)
(128.574 0 0)
(129.369 0 0)
(130.163 0 0)
(130.954 0 0)
(131.744 0 0)
(132.531 0 0)
(133.316 0 0)
(134.099 0 0)
(134.879 0 0)
(135.656 0 0)
(136.432 0 0)
(137.197 0 0)
(137.988 0 0)
(138.686 0 0)
(139.659 0 0)
(153.756 0 0)
(150.685 0 0)
(147.508 0 0)
(144.227 0 0)
(140.845 0 0)
(137.378 0 0)
(133.848 0 0)
(130.289 0 0)
(126.751 0 0)
(123.294 0 0)
(119.983 0 0)
(116.885 0 0)
(114.055 0 0)
(111.533 0 0)
(109.338 0 0)
(107.473 0 0)
(105.925 0 0)
(104.672 0 0)
(103.684 0 0)
(102.933 0 0)
(102.387 0 0)
(102.019 0 0)
(101.806 0 0)
(101.725 0 0)
(101.757 0 0)
(101.886 0 0)
(102.1 0 0)
(102.386 0 0)
(102.735 0 0)
(103.138 0 0)
(103.589 0 0)
(104.082 0 0)
(104.61 0 0)
(105.17 0 0)
(105.759 0 0)
(106.372 0 0)
(107.007 0 0)
(107.661 0 0)
(108.332 0 0)
(109.018 0 0)
(109.718 0 0)
(110.43 0 0)
(111.152 0 0)
(111.883 0 0)
(112.622 0 0)
(113.369 0 0)
(114.122 0 0)
(114.88 0 0)
(115.643 0 0)
(116.411 0 0)
(117.181 0 0)
(117.955 0 0)
(118.731 0 0)
(119.509 0 0)
(120.289 0 0)
(121.07 0 0)
(121.851 0 0)
(122.634 0 0)
(123.416 0 0)
(124.198 0 0)
(124.98 0 0)
(125.761 0 0)
(126.541 0 0)
(127.32 0 0)
(128.098 0 0)
(128.874 0 0)
(129.648 0 0)
(130.421 0 0)
(131.192 0 0)
(131.96 0 0)
(132.727 0 0)
(133.49 0 0)
(134.252 0 0)
(135.01 0 0)
(135.768 0 0)
(136.514 0 0)
(137.285 0 0)
(137.968 0 0)
(138.914 0 0)
(150.936 0 0)
(147.856 0 0)
(144.677 0 0)
(141.401 0 0)
(138.039 0 0)
(134.611 0 0)
(131.146 0 0)
(127.686 0 0)
(124.285 0 0)
(121.003 0 0)
(117.903 0 0)
(115.041 0 0)
(112.459 0 0)
(110.184 0 0)
(108.225 0 0)
(106.576 0 0)
(105.219 0 0)
(104.129 0 0)
(103.28 0 0)
(102.641 0 0)
(102.188 0 0)
(101.894 0 0)
(101.739 0 0)
(101.702 0 0)
(101.769 0 0)
(101.924 0 0)
(102.155 0 0)
(102.453 0 0)
(102.809 0 0)
(103.215 0 0)
(103.665 0 0)
(104.153 0 0)
(104.676 0 0)
(105.228 0 0)
(105.807 0 0)
(106.409 0 0)
(107.031 0 0)
(107.672 0 0)
(108.329 0 0)
(109.001 0 0)
(109.685 0 0)
(110.38 0 0)
(111.086 0 0)
(111.801 0 0)
(112.523 0 0)
(113.252 0 0)
(113.988 0 0)
(114.728 0 0)
(115.474 0 0)
(116.223 0 0)
(116.976 0 0)
(117.731 0 0)
(118.489 0 0)
(119.249 0 0)
(120.01 0 0)
(120.773 0 0)
(121.536 0 0)
(122.3 0 0)
(123.064 0 0)
(123.827 0 0)
(124.591 0 0)
(125.353 0 0)
(126.115 0 0)
(126.876 0 0)
(127.635 0 0)
(128.393 0 0)
(129.149 0 0)
(129.904 0 0)
(130.656 0 0)
(131.407 0 0)
(132.155 0 0)
(132.9 0 0)
(133.643 0 0)
(134.383 0 0)
(135.123 0 0)
(135.852 0 0)
(136.603 0 0)
(137.27 0 0)
(138.191 0 0)
(148.12 0 0)
(145.038 0 0)
(141.864 0 0)
(138.604 0 0)
(135.277 0 0)
(131.906 0 0)
(128.529 0 0)
(125.191 0 0)
(121.95 0 0)
(118.862 0 0)
(115.984 0 0)
(113.36 0 0)
(111.021 0 0)
(108.982 0 0)
(107.243 0 0)
(105.79 0 0)
(104.605 0 0)
(103.662 0 0)
(102.934 0 0)
(102.396 0 0)
(102.024 0 0)
(101.795 0 0)
(101.691 0 0)
(101.694 0 0)
(101.791 0 0)
(101.968 0 0)
(102.215 0 0)
(102.523 0 0)
(102.884 0 0)
(103.292 0 0)
(103.74 0 0)
(104.225 0 0)
(104.741 0 0)
(105.285 0 0)
(105.854 0 0)
(106.445 0 0)
(107.056 0 0)
(107.683 0 0)
(108.327 0 0)
(108.984 0 0)
(109.653 0 0)
(110.333 0 0)
(111.023 0 0)
(111.721 0 0)
(112.427 0 0)
(113.139 0 0)
(113.858 0 0)
(114.581 0 0)
(115.309 0 0)
(116.041 0 0)
(116.776 0 0)
(117.514 0 0)
(118.255 0 0)
(118.997 0 0)
(119.74 0 0)
(120.485 0 0)
(121.231 0 0)
(121.976 0 0)
(122.723 0 0)
(123.468 0 0)
(124.214 0 0)
(124.959 0 0)
(125.703 0 0)
(126.445 0 0)
(127.187 0 0)
(127.927 0 0)
(128.666 0 0)
(129.402 0 0)
(130.137 0 0)
(130.869 0 0)
(131.6 0 0)
(132.327 0 0)
(133.053 0 0)
(133.775 0 0)
(134.497 0 0)
(135.208 0 0)
(135.941 0 0)
(136.593 0 0)
(137.488 0 0)
(145.316 0 0)
(142.237 0 0)
(139.077 0 0)
(135.848 0 0)
(132.571 0 0)
(129.279 0 0)
(126.012 0 0)
(122.82 0 0)
(119.758 0 0)
(116.879 0 0)
(114.228 0 0)
(111.841 0 0)
(109.735 0 0)
(107.917 0 0)
(106.379 0 0)
(105.105 0 0)
(104.074 0 0)
(103.261 0 0)
(102.641 0 0)
(102.192 0 0)
(101.892 0 0)
(101.72 0 0)
(101.661 0 0)
(101.699 0 0)
(101.822 0 0)
(102.018 0 0)
(102.278 0 0)
(102.594 0 0)
(102.96 0 0)
(103.368 0 0)
(103.815 0 0)
(104.295 0 0)
(104.805 0 0)
(105.341 0 0)
(105.9 0 0)
(106.48 0 0)
(107.079 0 0)
(107.694 0 0)
(108.324 0 0)
(108.967 0 0)
(109.622 0 0)
(110.287 0 0)
(110.961 0 0)
(111.644 0 0)
(112.334 0 0)
(113.03 0 0)
(113.732 0 0)
(114.439 0 0)
(115.15 0 0)
(115.865 0 0)
(116.584 0 0)
(117.304 0 0)
(118.028 0 0)
(118.753 0 0)
(119.479 0 0)
(120.206 0 0)
(120.935 0 0)
(121.663 0 0)
(122.392 0 0)
(123.12 0 0)
(123.848 0 0)
(124.576 0 0)
(125.303 0 0)
(126.028 0 0)
(126.752 0 0)
(127.475 0 0)
(128.196 0 0)
(128.915 0 0)
(129.633 0 0)
(130.348 0 0)
(131.061 0 0)
(131.772 0 0)
(132.48 0 0)
(133.185 0 0)
(133.889 0 0)
(134.583 0 0)
(135.299 0 0)
(135.935 0 0)
(136.807 0 0)
(142.528 0 0)
(139.462 0 0)
(136.329 0 0)
(133.145 0 0)
(129.939 0 0)
(126.746 0 0)
(123.612 0 0)
(120.586 0 0)
(117.719 0 0)
(115.056 0 0)
(112.634 0 0)
(110.476 0 0)
(108.591 0 0)
(106.977 0 0)
(105.622 0 0)
(104.509 0 0)
(103.615 0 0)
(102.918 0 0)
(102.394 0 0)
(102.024 0 0)
(101.786 0 0)
(101.665 0 0)
(101.646 0 0)
(101.714 0 0)
(101.86 0 0)
(102.073 0 0)
(102.344 0 0)
(102.667 0 0)
(103.036 0 0)
(103.445 0 0)
(103.889 0 0)
(104.364 0 0)
(104.867 0 0)
(105.395 0 0)
(105.946 0 0)
(106.515 0 0)
(107.102 0 0)
(107.705 0 0)
(108.322 0 0)
(108.952 0 0)
(109.592 0 0)
(110.243 0 0)
(110.902 0 0)
(111.57 0 0)
(112.244 0 0)
(112.925 0 0)
(113.611 0 0)
(114.301 0 0)
(114.996 0 0)
(115.695 0 0)
(116.397 0 0)
(117.101 0 0)
(117.808 0 0)
(118.516 0 0)
(119.226 0 0)
(119.936 0 0)
(120.648 0 0)
(121.359 0 0)
(122.071 0 0)
(122.783 0 0)
(123.494 0 0)
(124.205 0 0)
(124.915 0 0)
(125.623 0 0)
(126.331 0 0)
(127.037 0 0)
(127.741 0 0)
(128.443 0 0)
(129.144 0 0)
(129.842 0 0)
(130.539 0 0)
(131.232 0 0)
(131.924 0 0)
(132.612 0 0)
(133.3 0 0)
(133.977 0 0)
(134.675 0 0)
(135.297 0 0)
(136.145 0 0)
(139.764 0 0)
(136.723 0 0)
(133.631 0 0)
(130.511 0 0)
(127.396 0 0)
(124.325 0 0)
(121.343 0 0)
(118.5 0 0)
(115.838 0 0)
(113.395 0 0)
(111.196 0 0)
(109.257 0 0)
(107.577 0 0)
(106.151 0 0)
(104.962 0 0)
(103.993 0 0)
(103.222 0 0)
(102.627 0 0)
(102.188 0 0)
(101.886 0 0)
(101.705 0 0)
(101.629 0 0)
(101.644 0 0)
(101.739 0 0)
(101.905 0 0)
(102.132 0 0)
(102.413 0 0)
(102.742 0 0)
(103.113 0 0)
(103.521 0 0)
(103.962 0 0)
(104.433 0 0)
(104.929 0 0)
(105.449 0 0)
(105.99 0 0)
(106.549 0 0)
(107.125 0 0)
(107.716 0 0)
(108.32 0 0)
(108.937 0 0)
(109.564 0 0)
(110.2 0 0)