/*--------------------------------*- C++ -*----------------------------------*\
| =========                 |                                                 |
| \\      /  F ield         | OpenFOAM: The Open Source CFD Toolbox           |
|  \\    /   O peration     | Version:  2312                                  |
|   \\  /    A nd           | Website:  www.openfoam.com                      |
|    \\/     M anipulation  |                                                 |
\*---------------------------------------------------------------------------*/
FoamFile
{
    version     2.0;
    format      ascii;
    arch        "LSB;label=32;scalar=64";
    class       volScalarField;
    location    "0.9";
    object      wave;
}
// * * * * * * * * * * * * * * * * * * * * * * * * * * * * * * * * * * * * * //

dimensions      [0 0 0 0 0 0 0];

internalField   nonuniform List<scalar> 
100
(
0.830126
0.907796
0.962661
0.993341
0.999067
0.979694
0.935708
0.868216
0.778912
0.67004
0.544335
0.404956
0.255403
0.0994331
-0.0590343
-0.216019
-0.367576
-0.509899
-0.639412
-0.752862
-0.847399
-0.920646
-0.970765
-0.996497
-0.997194
-0.972839
-0.924044
-0.852036
-0.758622
-0.64615
-0.517446
-0.375742
-0.224598
-0.0678124
0.0906771
0.246889
0.396898
0.536936
0.663485
0.773366
0.863818
0.932569
0.977892
0.998648
0.994316
0.965005
0.91145
0.834998
0.737569
0.62161
0.490035
0.34615
0.193568
0.0361234
-0.122229
-0.27751
-0.42582
-0.563432
-0.686889
-0.793091
-0.879368
-0.943553
-0.984035
-0.999795
-0.990438
-0.956199
-0.897938
-0.817119
-0.715772
-0.596444
-0.462131
-0.316209
-0.162343
-0.00439807
0.153657
0.307852
0.454313
0.589361
0.709602
0.812017
0.894032
0.953587
0.989186
0.999934
0.985562
0.94643
0.883522
0.798418
0.693255
0.570677
0.433762
0.28595
0.130954
-0.0273317
-0.184931
-0.337884
-0.482349
-0.614696
-0.7316
-0.830126
)
;

boundaryField
{
    movingWall
    {
        type            calculated;
        value           uniform 0;
    }
    fixedWalls
    {
        type            calculated;
        value           uniform 0;
    }
    frontAndBack
    {
        type            empty;
    }
}


// ************************************************************************* //
