/*--------------------------------*- C++ -*----------------------------------*\
| =========                 |                                                 |
| \\      /  F ield         | OpenFOAM: The Open Source CFD Toolbox           |
|  \\    /   O peration     | Version:  2312                                  |
|   \\  /    A nd           | Website:  www.openfoam.com                      |
|    \\/     M anipulation  |                                                 |
\*---------------------------------------------------------------------------*/
FoamFile
{
    version     2.0;
    format      ascii;
    arch        "LSB;label=32;scalar=64";
    class       surfaceScalarField;
    location    "0.416";
    object      phi;
}
// * * * * * * * * * * * * * * * * * * * * * * * * * * * * * * * * * * * * * //

dimensions      [0 3 -1 0 0 0 0];

oriented        oriented;

internalField   nonuniform List<scalar> 
62015
(
72.6071
0.141574
-73.4047
71.7946
0.137404
70.9664
0.133195
70.1215
0.128949
69.2588
0.124671
68.377
0.120364
67.4746
0.116031
66.55
0.111675
65.6013
0.1073
64.6264
0.102909
63.6229
0.098506
62.5879
0.0940942
61.5182
0.0896771
60.41
0.0852578
59.2587
0.0808399
58.0589
0.0764263
56.8041
0.0720205
55.4864
0.0676249
54.096
0.0632419
52.6205
0.0588738
51.0445
0.0545221
49.3481
0.0501872
47.5068
0.0458695
45.4972
0.0415712
43.3146
0.0373081
41.0004
0.033127
38.66
0.0291163
36.4452
0.0253894
34.5024
0.0220387
32.9215
0.019097
31.7203
0.0165323
30.862
0.014273
30.2855
0.0122373
29.9277
0.0103529
29.735
0.00856422
29.6657
0.00683051
29.6888
0.00512388
29.7818
0.00342485
29.9285
0.00171984
30.117
0
30.3386
-0.00174118
30.5868
-0.00350825
30.8567
-0.00530387
31.1445
-0.00713033
31.4473
-0.00898901
31.7628
-0.0108803
32.0893
-0.012805
32.4252
-0.0147628
32.7693
-0.0167537
33.1208
-0.0187774
33.4788
-0.020833
33.8426
-0.0229199
34.2117
-0.0250374
34.5857
-0.0271846
34.9641
-0.0293602
35.3467
-0.0315635
35.7331
-0.0337931
36.1231
-0.0360479
36.5166
-0.0383267
36.9133
-0.040628
37.3132
-0.0429508
37.7161
-0.0452936
38.1218
-0.0476548
38.5303
-0.0500331
38.9415
-0.0524273
39.3554
-0.0548356
39.7719
-0.0572565
40.1909
-0.0596886
40.6123
-0.0621304
41.0363
-0.0645802
41.4626
-0.0670365
41.8913
-0.0694975
42.3222
-0.0719623
42.7561
-0.0744275
43.1903
-0.0768961
43.6326
-0.079353
44.0595
-0.0818378
44.5429
-0.0842205
-0.0869013
44.8624
69.7429
0.276113
-70.5158
68.9553
0.26795
68.1528
0.259713
67.3341
0.251406
66.4983
0.243036
65.644
0.23461
64.7698
0.226134
63.8741
0.217615
62.955
0.209059
62.0105
0.200473
61.0381
0.191864
60.035
0.183238
58.998
0.174601
57.9234
0.16596
56.8065
0.157322
55.642
0.148692
54.4234
0.140076
53.1427
0.131479
51.7901
0.122906
50.3534
0.114359
48.8171
0.105843
47.1614
0.0973566
45.3636
0.0889021
43.4057
0.0804903
41.2936
0.0721673
39.0815
0.0640468
36.8807
0.0563159
34.8341
0.0491868
33.0666
0.0428093
31.6452
0.0372133
30.5731
0.0323148
29.8101
0.02797
29.2985
0.0240263
28.9819
0.0203533
28.8126
0.0168504
28.7541
0.0134457
28.779
0.0100882
28.8676
0.00674307
29.0053
0.00338597
29.1816
0
29.3886
-0.00342659
29.6205
-0.00690195
29.8726
-0.0104318
30.1417
-0.01402
30.425
-0.0176688
30.7205
-0.0213799
31.0263
-0.0251536
31.3412
-0.0289906
31.664
-0.0328901
31.9939
-0.0368514
32.33
-0.0408733
32.6719
-0.0449548
33.0189
-0.0490939
33.3706
-0.0532892
33.7267
-0.0575385
34.0868
-0.0618399
34.4507
-0.0661912
34.8181
-0.07059
35.1889
-0.075034
35.563
-0.0795208
35.94
-0.0840477
36.32
-0.0886121
36.7029
-0.0932114
37.0885
-0.0978427
37.4767
-0.102503
37.8676
-0.10719
38.261
-0.111901
38.6568
-0.116632
39.0551
-0.121381
39.4558
-0.126144
39.8589
-0.130919
40.2643
-0.135702
40.6718
-0.140491
41.0822
-0.145281
41.4931
-0.150075
41.9115
-0.154847
42.3158
-0.15967
42.7727
-0.1643
-0.16949
43.0784
66.9503
0.403719
-67.6999
66.1865
0.391737
65.4082
0.379646
64.6143
0.367456
63.8038
0.355175
62.9754
0.342812
62.1277
0.330378
61.259
0.317881
60.3675
0.305331
59.4512
0.292738
58.5076
0.280111
57.534
0.267459
56.5271
0.254793
55.483
0.24212
54.3974
0.22945
53.2647
0.216791
52.0785
0.204152
50.8306
0.191538
49.5112
0.178956
48.108
0.16641
46.6053
0.153904
44.984
0.141438
43.224
0.129019
41.3148
0.116677
39.275
0.104508
37.1718
0.0927142
35.1197
0.0815832
33.2489
0.0714009
31.6607
0.0623333
30.3997
0.0543716
29.4562
0.0473669
28.7878
0.0411068
28.3411
0.0353804
28.066
0.0300122
27.921
0.0248685
27.8744
0.0198536
27.9026
0.0148999
27.9881
0.00995986
28.1184
0.00500094
28.2839
0
28.4778
-0.00505914
28.6947
-0.0101878
28.9306
-0.015394
29.1824
-0.0206828
29.4476
-0.0260579
29.7242
-0.0315214
30.0108
-0.037074
30.306
-0.0427162
30.6088
-0.0484471
30.9184
-0.054266
31.2341
-0.060171
31.5552
-0.0661603
31.8814
-0.0722315
32.2122
-0.0783822
32.5471
-0.0846097
32.8861
-0.0909109
33.2287
-0.0972828
33.5748
-0.103722
33.9242
-0.110225
34.2768
-0.116788
34.6323
-0.123408
34.9907
-0.130081
35.3519
-0.136803
35.7158
-0.14357
36.0823
-0.150377
36.4514
-0.157222
36.8229
-0.164098
37.1969
-0.171004
37.5733
-0.177933
37.952
-0.184882
38.333
-0.191846
38.7163
-0.198821
39.1017
-0.205803
39.4899
-0.212785
39.8786
-0.219772
40.2745
-0.226725
40.6573
-0.233749
41.0889
-0.240497
-0.248038
41.3806
64.2474
0.524602
-64.9746
63.5063
0.508968
62.7513
0.493194
61.9811
0.477292
61.1948
0.461274
60.3911
0.445151
59.5685
0.428935
58.7254
0.412639
57.8601
0.396276
56.9704
0.379855
56.0539
0.363392
55.1079
0.346896
54.1291
0.330381
53.1136
0.313857
52.0568
0.297335
50.9534
0.280826
49.7967
0.26434
48.5785
0.247883
47.2889
0.231464
45.9153
0.215087
44.4422
0.198756
42.8515
0.182474
41.127
0.166257
39.2676
0.150173
37.3055
0.134393
35.3189
0.119216
33.4214
0.105024
31.7271
0.0921395
30.3133
0.0807032
29.2047
0.0706426
28.3819
0.0617379
27.8019
0.0537159
27.4159
0.0463207
27.18
0.0393438
27.0583
0.0326284
27.0236
0.0260618
27.0555
0.0195638
27.1389
0.0130787
27.2627
0.00656665
27.4187
0
27.6007
-0.00664097
27.804
-0.0133702
28.025
-0.0201973
28.2607
-0.0271288
28.5091
-0.0341696
28.7683
-0.0413215
29.037
-0.0485862
29.3138
-0.0559638
29.5979
-0.0634535
29.8886
-0.071054
30.185
-0.0787633
30.4868
-0.0865786
30.7934
-0.0944975
31.1044
-0.102517
31.4196
-0.110632
31.7386
-0.118841
32.0612
-0.127138
32.3872
-0.13552
32.7164
-0.143982
33.0487
-0.152519
33.3839
-0.161128
33.7219
-0.169802
34.0627
-0.178538
34.4061
-0.187329
34.7521
-0.196171
35.1005
-0.205058
35.4514
-0.213986
35.8047
-0.222947
36.1603
-0.231938
36.5182
-0.240952
36.8783
-0.249984
37.2407
-0.259028
37.6052
-0.268079
37.9723
-0.277127
38.34
-0.286181
38.7145
-0.29519
39.0769
-0.304285
39.4849
-0.313031
-0.322776
39.7624
61.6398
0.639
-62.3454
60.9208
0.619876
60.1883
0.600584
59.441
0.581136
58.6781
0.561548
57.8981
0.541834
57.0996
0.522009
56.2812
0.502086
55.4409
0.482081
54.5766
0.462008
53.686
0.441881
52.7663
0.421716
51.814
0.401525
50.8255
0.381322
49.796
0.36112
48.7201
0.340931
47.5909
0.320766
46.4003
0.300632
45.1381
0.280539
43.7916
0.26049
42.3457
0.24049
40.784
0.220549
39.0962
0.200706
37.2916
0.181085
35.4154
0.161951
33.5535
0.143708
31.8134
0.126802
30.2909
0.111552
29.041
0.0980399
28.072
0.0861148
27.358
0.0754877
26.8571
0.0658366
26.5255
0.0568723
26.3247
0.0483644
26.224
0.0401407
26.2
0.0320771
26.2352
0.0240852
26.3166
0.0161024
26.4346
0.00808448
26.5818
0
26.7528
-0.00817354
26.9435
-0.0164522
27.1506
-0.024847
27.3716
-0.0333656
27.6043
-0.0420132
27.8473
-0.0507928
28.0991
-0.0597057
28.3588
-0.0687519
28.6255
-0.0779308
28.8983
-0.0872407
29.1767
-0.0966791
29.4603
-0.106243
29.7485
-0.115929
30.041
-0.125733
30.3375
-0.135652
30.6378
-0.14568
30.9415
-0.155812
31.2485
-0.166044
31.5587
-0.17637
31.8719
-0.186785
32.188
-0.197283
32.5068
-0.207858
32.8282
-0.218504
33.1523
-0.229215
33.4788
-0.239984
33.8078
-0.250807
34.1391
-0.261674
34.4728
-0.272582
34.8087
-0.283521
35.147
-0.294487
35.4873
-0.305472
35.83
-0.316468
36.1746
-0.327471
36.5217
-0.338467
36.8696
-0.349468
37.2238
-0.360413
37.5668
-0.371459
37.9527
-0.382085
-0.3939
38.216
59.1277
0.747142
-59.8121
58.4302
0.724686
57.7195
0.702035
56.9945
0.679203
56.254
0.656208
55.497
0.633067
54.7219
0.609796
53.9272
0.586412
53.1109
0.562932
52.2711
0.539372
51.4053
0.51575
50.5107
0.49208
49.5839
0.46838
48.621
0.444664
47.6174
0.420945
46.5674
0.397238
45.4642
0.373553
44.2994
0.3499
43.0627
0.326286
41.7416
0.302717
40.3216
0.279199
38.7894
0.255756
37.1416
0.232468
35.399
0.209539
33.618
0.187337
31.8873
0.166362
30.3045
0.147086
28.9457
0.129786
27.8466
0.114458
27.0031
0.10087
26.3854
0.0886721
25.954
0.0775052
25.6698
0.067059
25.4998
0.0570897
25.4174
0.047416
25.4027
0.0379067
25.4406
0.0284684
25.5199
0.0190341
25.6322
0.00955602
25.7712
0
25.9321
-0.00965852
26.111
-0.0194371
26.3052
-0.029348
26.5122
-0.0394
26.7304
-0.0495983
26.9581
-0.0599466
27.1943
-0.0704463
27.4379
-0.0810974
27.6881
-0.0918991
27.9443
-0.102849
28.2058
-0.113945
28.4722
-0.125184
28.7432
-0.136561
29.0183
-0.148071
29.2972
-0.159711
29.5798
-0.171475
29.8658
-0.183356
30.1549
-0.19535
30.4472
-0.207451
30.7423
-0.219651
31.0403
-0.231944
31.3409
-0.244323
31.6442
-0.256783
31.9499
-0.269314
32.2581
-0.281911
32.5687
-0.294565
32.8815
-0.30727
33.1967
-0.320017
33.5141
-0.332799
33.8337
-0.345608
34.1554
-0.358436
34.4792
-0.371275
34.805
-0.384118
35.1333
-0.396952
35.4623
-0.409788
35.7973
-0.422556
36.1219
-0.435437
36.4869
-0.447835
-0.461588
36.7367
56.7088
0.84925
-57.3727
56.0322
0.823613
55.3426
0.797756
54.6392
0.771696
53.9206
0.745451
53.1858
0.71904
52.4332
0.692483
51.6613
0.665797
50.8683
0.639001
50.052
0.612115
49.21
0.585156
48.3394
0.558143
47.4369
0.531091
46.4985
0.504019
45.5194
0.47694
44.494
0.449868
43.4153
0.422815
42.2748
0.395791
41.0621
0.368803
39.7651
0.341857
38.3706
0.314969
36.8696
0.288187
35.2671
0.261654
33.5951
0.235671
31.9181
0.210716
30.3229
0.187352
28.8942
0.16604
27.6892
0.146976
26.727
0.13006
25.9949
0.11498
25.4616
0.101339
25.0907
0.0887539
24.8478
0.076902
24.7042
0.0655337
24.6376
0.0544639
24.6307
0.0435575
24.6707
0.0327184
24.7478
0.0218768
24.8547
0.0109827
24.9859
0
25.1372
-0.0110974
25.3051
-0.0223281
25.4872
-0.0337055
25.6812
-0.0452387
25.8857
-0.0569339
26.0992
-0.0687945
26.3207
-0.0808221
26.5492
-0.0930173
26.784
-0.105378
27.0245
-0.117903
27.2701
-0.130588
27.5205
-0.143431
27.7752
-0.156425
28.0339
-0.169567
28.2963
-0.182851
28.5622
-0.196271
28.8314
-0.209821
29.1038
-0.223493
29.3791
-0.237282
29.6573
-0.25118
29.9381
-0.26518
30.2216
-0.279273
30.5077
-0.293453
30.7961
-0.307711
31.087
-0.322039
31.3802
-0.336428
31.6756
-0.350871
31.9732
-0.365358
32.2731
-0.379882
32.575
-0.394432
32.879
-0.409001
33.1852
-0.423579
33.4932
-0.438159
33.8036
-0.452724
34.1147
-0.467287
34.4316
-0.481773
34.7388
-0.496379
35.0838
-0.510446
-0.526015
35.3209
54.38
0.945531
-55.024
53.7237
0.916861
53.0547
0.887947
52.3721
0.858808
51.6747
0.829464
50.9613
0.799935
50.2305
0.770243
49.4807
0.740408
48.71
0.710451
47.9163
0.680391
47.0971
0.650248
46.2495
0.620043
45.3702
0.589792
44.4551
0.559512
43.4994
0.529221
42.4972
0.498931
41.4416
0.468654
40.324
0.438399
39.134
0.408175
37.8602
0.377992
36.4917
0.347883
35.0251
0.317938
33.4748
0.288385
31.8822
0.259634
30.3165
0.23226
28.8587
0.206853
27.5786
0.183815
26.5159
0.163242
25.6768
0.144931
25.0429
0.128504
24.5833
0.113529
24.2648
0.0996098
24.0575
0.08642
23.9369
0.0737097
23.8837
0.0612934
23.8834
0.049036
23.9248
0.0368395
23.9995
0.0246332
24.1012
0.0123658
24.2251
0
24.3673
-0.0124915
24.5249
-0.0251282
24.6956
-0.0379242
24.8775
-0.0508889
25.0691
-0.0640289
25.2693
-0.0773477
25.477
-0.0908474
25.6913
-0.104527
25.9117
-0.118387
26.1375
-0.132423
26.3682
-0.146633
26.6034
-0.161012
26.8428
-0.175555
27.0861
-0.190257
27.3329
-0.205112
27.5832
-0.220113
27.8366
-0.235253
28.0931
-0.250525
28.3525
-0.265922
28.6146
-0.281435
28.8794
-0.297057
29.1467
-0.312778
29.4165
-0.328591
29.6886
-0.344486
29.9631
-0.360454
30.2399
-0.376488
30.5188
-0.392576
30.7999
-0.408709
31.0831
-0.424879
31.3684
-0.441074
31.6557
-0.457286
31.945
-0.473504
32.2362
-0.489721
32.5297
-0.505918
32.8239
-0.522109
33.1236
-0.538211
33.4142
-0.55444
33.7405
-0.570077
-0.587347
33.9654
52.1383
1.03618
-52.7628
51.5016
1.00462
50.8525
0.972796
50.1901
0.940722
49.5132
0.908424
48.8205
0.875924
48.1107
0.843243
47.3821
0.810406
46.6328
0.777433
45.8608
0.744346
45.0634
0.711166
44.2379
0.677913
43.3807
0.644605
42.4877
0.611262
41.5541
0.577897
40.5739
0.544527
39.5401
0.51116
38.444
0.477809
37.2757
0.444482
36.0247
0.411201
34.6839
0.378027
33.2565
0.345116
31.7659
0.312798
30.2613
0.281594
28.8124
0.252148
27.4913
0.225031
26.3521
0.200552
25.4195
0.17869
24.6903
0.159149
24.1426
0.141495
23.747
0.125278
23.4738
0.110097
23.2973
0.0956295
23.1964
0.0816291
23.1547
0.0679131
23.1598
0.0543479
23.202
0.040836
23.2743
0.0273064
23.371
0.013707
23.4878
0
23.6215
-0.0138425
23.7694
-0.0278407
23.9295
-0.0420088
24.1
-0.056357
24.2797
-0.0708918
24.4673
-0.0856172
24.6621
-0.100535
24.8631
-0.115644
25.0699
-0.130944
25.2819
-0.146432
25.4986
-0.162104
25.7196
-0.177956
25.9446
-0.193982
26.1733
-0.210176
26.4055
-0.226532
26.641
-0.243042
26.8796
-0.2597
27.1212
-0.276496
27.3655
-0.293424
27.6125
-0.310474
27.8621
-0.327637
28.1141
-0.344905
28.3686
-0.362268
28.6253
-0.379716
28.8843
-0.39724
29.1455
-0.41483
29.4089
-0.432475
29.6743
-0.450166
29.9418
-0.467891
30.2114
-0.485641
30.4828
-0.503404
30.7563
-0.52117
31.0315
-0.538929
31.309
-0.556664
31.5873
-0.574387
31.8707
-0.592012
32.1457
-0.609766
32.4542
-0.626882
-0.645742
32.6675
49.9803
1.1214
-50.586
49.3626
1.08709
48.7329
1.05248
48.0899
1.01761
47.4328
0.982501
46.7601
0.947169
46.0705
0.911641
45.3623
0.875941
44.6336
0.840093
43.8823
0.804118
43.1059
0.768039
42.3013
0.731876
41.4651
0.695648
40.5932
0.659375
39.6805
0.623071
38.721
0.586749
37.7076
0.550422
36.632
0.514101
35.4846
0.477802
34.2572
0.441564
32.9469
0.405497
31.5645
0.369845
30.1417
0.335049
28.7327
0.301732
27.4039
0.270562
26.216
0.242047
25.2086
0.216378
24.394
0.193413
23.7619
0.172776
23.2895
0.153998
22.9493
0.136616
22.7154
0.120237
22.5654
0.104545
22.4814
0.0893024
22.4495
0.0743307
22.459
0.0594992
22.5017
0.044712
22.5714
0.0298987
22.6632
0.0150074
22.7735
0
22.8991
-0.0151517
23.038
-0.0304682
23.188
-0.0459641
23.3479
-0.0616494
23.5163
-0.0775312
23.6922
-0.0936131
23.8748
-0.109897
24.0635
-0.126382
24.2575
-0.143068
24.4565
-0.15995
24.66
-0.177026
24.8676
-0.194289
25.0791
-0.211735
25.2942
-0.229357
25.5127
-0.247147
25.7343
-0.265099
25.9589
-0.283204
26.1863
-0.301454
26.4164
-0.31984
26.6492
-0.338353
26.8844
-0.356982
27.1221
-0.375719
27.362
-0.394554
27.6043
-0.413476
27.8487
-0.432474
28.0952
-0.451538
28.3438
-0.470658
28.5945
-0.489821
28.8471
-0.509017
29.1017
-0.528235
29.3583
-0.547463
29.6167
-0.566688
29.8769
-0.585903
30.1392
-0.605086
30.4023
-0.624252
30.6703
-0.643308
30.9305
-0.662496
31.2222
-0.681004
-0.701351
31.4245
47.9031
1.20137
-48.4906
47.3039
1.16443
46.6927
1.12719
46.0687
1.08965
45.4305
1.05186
44.7771
1.01383
44.1069
0.975586
43.4182
0.937158
42.7093
0.898567
41.9779
0.859837
41.2214
0.820991
40.4368
0.782049
39.6206
0.743031
38.7685
0.703954
37.8755
0.664835
36.9356
0.625686
35.9416
0.58652
34.8854
0.547352
33.7588
0.50821
32.5564
0.469169
31.2808
0.430406
29.9503
0.39227
28.6035
0.355316
27.296
0.320238
26.088
0.287682
25.0279
0.258052
24.1421
0.231406
23.4331
0.207492
22.8866
0.18587
22.4797
0.166049
22.1875
0.14757
21.9874
0.130047
21.8602
0.113181
21.7907
0.0967397
21.7671
0.0805534
21.7802
0.0644951
21.823
0.0484713
21.8901
0.032413
21.9773
0.0162685
22.0813
0
22.1994
-0.0164205
22.3297
-0.0330137
22.4704
-0.0497941
22.6203
-0.0667723
22.7781
-0.0839549
22.943
-0.101346
23.1143
-0.118946
23.2913
-0.136757
23.4734
-0.154775
23.6601
-0.172997
23.8513
-0.191419
24.0463
-0.210037
24.2451
-0.228843
24.4474
-0.247831
24.6528
-0.266993
24.8614
-0.286322
25.0728
-0.305809
25.2869
-0.325444
25.5037
-0.34522
25.723
-0.365124
25.9447
-0.385149
26.1688
-0.405282
26.3951
-0.425515
26.6236
-0.445834
26.8542
-0.46623
27.0869
-0.486692
27.3216
-0.507207
27.5583
-0.527763
27.7969
-0.54835
28.0374
-0.568954
28.2798
-0.589564
28.524
-0.610167
28.7699
-0.630753
29.0179
-0.651301
29.2668
-0.671824
29.5202
-0.692229
29.7663
-0.712763
30.042
-0.732581
-0.754318
30.234
45.9038
1.27627
-46.4737
45.3223
1.23683
44.7292
1.19707
44.1233
1.157
43.5035
1.11665
42.8685
1.07605
42.2169
1.03522
41.5471
0.994193
40.857
0.952987
40.1445
0.911628
39.407
0.870139
38.6414
0.828541
37.8441
0.786854
37.0108
0.745094
36.1364
0.703277
35.2148
0.661417
34.2392
0.619529
33.202
0.577635
32.0969
0.535789
30.9221
0.494116
29.6865
0.452884
28.4154
0.412558
27.1518
0.373794
25.9498
0.337307
24.8609
0.303679
23.9214
0.273181
23.1463
0.245736
22.5312
0.220996
22.0596
0.198479
21.7096
0.177683
21.4588
0.158162
21.2878
0.139546
21.1803
0.121548
21.1233
0.10395
21.1067
0.0865882
21.1227
0.069341
21.1653
0.0521178
21.2298
0.0348513
21.3125
0.0174912
21.4105
0
21.5215
-0.0176502
21.6438
-0.0354798
21.7758
-0.0535034
21.9163
-0.0717315
22.0642
-0.0901707
22.2189
-0.108824
22.3795
-0.127695
22.5454
-0.146781
22.7163
-0.166081
22.8917
-0.185591
23.0712
-0.205306
23.2545
-0.225222
23.4413
-0.245332
23.6314
-0.265628
23.8247
-0.286103
24.0209
-0.306747
24.2199
-0.327553
24.4216
-0.34851
24.6257
-0.369609
24.8324
-0.39084
25.0413
-0.412191
25.2526
-0.433652
25.466
-0.455211
25.6815
-0.476858
25.8991
-0.49858
26.1187
-0.520365
26.3403
-0.542201
26.5638
-0.564075
26.7891
-0.585976
27.0163
-0.60789
27.2453
-0.629805
27.4761
-0.651707
27.7086
-0.673586
27.943
-0.695419
28.1783
-0.717221
28.4179
-0.738893
28.6507
-0.760693
28.9114
-0.781742
-0.804779
29.0935
43.9794
1.34626
-44.5323
43.4152
1.30445
42.8394
1.26229
42.2509
1.21981
41.6487
1.17703
41.0315
1.13398
40.3978
1.09068
39.7459
1.04718
39.0739
1.00347
38.3795
0.959606
37.66
0.915592
36.9124
0.871455
36.1329
0.827212
35.3173
0.782882
34.4604
0.73848
33.5562
0.69402
32.5983
0.649524
31.5802
0.60503
30.498
0.560631
29.3547
0.516526
28.1654
0.47309
26.9612
0.430903
25.7868
0.390687
24.6919
0.353134
23.7181
0.318716
22.8906
0.287557
22.2153
0.259454
21.6832
0.233986
21.2768
0.210643
20.9759
0.188929
20.7609
0.168413
20.6151
0.148747
20.5244
0.129658
20.4781
0.110942
20.4674
0.0924414
20.4857
0.0740415
20.5278
0.055655
20.5896
0.0372165
20.668
0.018677
20.7604
0
20.8648
-0.018842
20.9796
-0.0378692
21.1033
-0.057096
21.235
-0.0765326
21.3738
-0.0961855
21.5187
-0.116058
21.6693
-0.136153
21.8251
-0.156468
21.9854
-0.177001
22.15
-0.197749
22.3186
-0.218707
22.4908
-0.239869
22.6664
-0.261228
22.8452
-0.282777
23.027
-0.304507
23.2116
-0.326409
23.3989
-0.348474
23.5887
-0.370693
23.7811
-0.393054
23.9758
-0.415547
24.1727
-0.438161
24.3718
-0.460883
24.5731
-0.483704
24.7764
-0.50661
24.9817
-0.529588
25.189
-0.552628
25.3981
-0.575715
25.6091
-0.598837
25.822
-0.62198
26.0366
-0.645131
26.2529
-0.668278
26.471
-0.691405
26.6907
-0.714502
26.9123
-0.737546
27.1348
-0.760551
27.3613
-0.783415
27.5816
-0.806404
27.828
-0.828613
-0.852861
28.0008
42.1273
1.41152
-42.6638
41.5796
1.36744
41.0205
1.323
40.4489
1.27822
39.8636
1.23313
39.2634
1.18774
38.6468
1.1421
38.012
1.09623
37.3572
1.05014
36.6799
1.00388
35.9775
0.957452
35.2469
0.910885
34.4843
0.864195
33.6854
0.817401
32.845
0.770519
31.9575
0.723567
31.0169
0.676578
30.0187
0.629622
28.9621
0.582845
27.8552
0.536544
26.7191
0.491208
25.5886
0.447514
24.5076
0.406206
23.519
0.367904
22.6547
0.332937
21.9297
0.301283
21.3434
0.272633
20.8841
0.24651
20.5343
0.222396
20.2759
0.19981
20.0917
0.178342
19.9675
0.157664
19.8913
0.137522
19.8541
0.117723
19.8483
0.0981193
19.8684
0.0786016
19.9098
0.0590861
19.9691
0.0395104
20.0433
0.019827
20.1305
0
20.2286
-0.0199972
20.3363
-0.0401843
20.4524
-0.0605756
20.5758
-0.0811809
20.7059
-0.102007
20.8418
-0.123057
20.9831
-0.144331
21.1291
-0.165831
21.2796
-0.187551
21.4342
-0.20949
21.5925
-0.231641
21.7542
-0.253999
21.9193
-0.276556
22.0874
-0.299304
22.2584
-0.322236
22.4321
-0.345341
22.6084
-0.368609
22.7871
-0.392031
22.9683
-0.415595
23.1517
-0.439291
23.3373
-0.463106
23.5251
-0.487029
23.7148
-0.511048
23.9066
-0.535149
24.1003
-0.55932
24.2959
-0.583548
24.4933
-0.60782
24.6926
-0.632122
24.8936
-0.65644
25.0963
-0.680761
25.3007
-0.70507
25.5068
-0.729353
25.7144
-0.753598
25.9239
-0.777783
26.1342
-0.801919
26.3484
-0.825905
26.5568
-0.850009
26.7897
-0.873308
-0.898688
26.9536
40.3448
1.47218
-40.8654
39.813
1.42596
39.2699
1.37935
38.7144
1.33238
38.1453
1.28508
37.5614
1.23748
36.9611
1.18959
36.3427
1.14146
35.7042
1.09311
35.0432
1.04455
34.357
0.995813
33.6425
0.946919
32.8957
0.897884
32.1125
0.848727
31.2879
0.799466
30.4165
0.750131
29.4936
0.700774
28.5168
0.651508
27.4895
0.602563
26.425
0.554341
25.349
0.507446
24.2979
0.462613
23.3124
0.420559
22.4273
0.381786
21.665
0.346469
21.0329
0.31445
20.5254
0.285332
20.1295
0.25861
19.8288
0.233769
19.6069
0.210348
19.4493
0.187963
19.3436
0.166309
19.2799
0.145149
19.2504
0.124301
19.2488
0.103628
19.2702
0.0830254
19.3108
0.0624149
19.3674
0.0417355
19.4378
0.0209422
19.5199
0
19.6121
-0.0211169
19.7132
-0.0424276
19.8221
-0.0639461
19.9378
-0.0856819
20.0598
-0.107641
20.1872
-0.129827
20.3197
-0.152241
20.4567
-0.174881
20.598
-0.197745
20.7431
-0.220829
20.8917
-0.244127
21.0437
-0.267632
21.1988
-0.291338
21.3569
-0.315237
21.5177
-0.339318
21.6811
-0.363573
21.8471
-0.387991
22.0154
-0.412562
22.186
-0.437274
22.3588
-0.462116
22.5338
-0.487075
22.7107
-0.51214
22.8897
-0.537297
23.0706
-0.562533
23.2534
-0.587836
23.4379
-0.613191
23.6243
-0.638584
23.8124
-0.664003
24.0022
-0.689432
24.1937
-0.714857
24.3868
-0.740264
24.5815
-0.765637
24.7778
-0.790964
24.9758
-0.816222
25.1746
-0.841424
25.3772
-0.866463
25.5743
-0.891616
25.7944
-0.91594
-0.942376
25.9499
38.6291
1.52841
-39.1345
38.1126
1.48014
37.5849
1.43147
37.0449
1.38242
36.4914
1.33302
35.923
1.28329
35.3383
1.23327
34.7354
1.18299
34.1124
1.13246
33.4668
1.08171
32.796
1.03076
32.0965
0.979638
31.3648
0.928354
30.5965
0.876931
29.787
0.825394
28.9317
0.773787
28.0274
0.722201
27.0747
0.670811
26.0815
0.619945
25.0656
0.570122
24.0561
0.522032
23.0886
0.476427
22.1982
0.433942
21.4119
0.394935
20.7436
0.359422
20.1945
0.32713
19.7563
0.297603
19.4155
0.270321
19.157
0.244786
18.9667
0.220562
18.8319
0.197293
18.7422
0.174694
18.6892
0.152547
18.6663
0.130682
18.6681
0.108972
18.6904
0.0873176
18.73
0.0656439
18.7842
0.0438939
18.8508
0.0220237
18.9281
0
19.0148
-0.0222022
19.1097
-0.0446013
19.2118
-0.067211
19.3204
-0.0900404
19.4347
-0.113095
19.5542
-0.136378
19.6784
-0.159891
19.807
-0.183631
19.9396
-0.207596
20.0758
-0.231781
20.2154
-0.256181
20.3582
-0.28079
20.504
-0.305598
20.6526
-0.330598
20.8039
-0.355781
20.9576
-0.381136
21.1138
-0.406653
21.2723
-0.432321
21.433
-0.458128
21.5958
-0.484062
21.7607
-0.510111
21.9275
-0.536261
22.0963
-0.562501
22.2669
-0.588815
22.4393
-0.615191
22.6135
-0.641615
22.7894
-0.668072
22.967
-0.694547
23.1463
-0.721026
23.3271
-0.747495
23.5096
-0.773938
23.6936
-0.800339
23.8791
-0.826687
24.0662
-0.852955
24.2542
-0.879159
24.4457
-0.90519
24.6322
-0.931325
24.8402
-0.956614
-0.984033
24.9878
36.9778
1.58034
-37.4686
36.4761
1.53013
35.9631
1.47949
35.4379
1.42845
34.8991
1.37705
34.3456
1.3253
33.7757
1.27325
33.1876
1.2209
32.5793
1.16829
31.9483
1.11545
31.2918
1.06238
30.6067
1.00912
29.8891
0.955676
29.1351
0.902082
28.3404
0.848373
27.5017
0.794622
26.6179
0.740969
25.6931
0.687678
24.7394
0.635186
23.7787
0.584114
22.8408
0.535207
21.9589
0.489176
21.1616
0.446535
20.4678
0.40748
19.8848
0.371885
19.4093
0.339384
19.0316
0.309485
18.7384
0.281671
18.5165
0.255468
18.3532
0.230468
18.238
0.206342
18.162
0.182828
18.1182
0.159724
18.1009
0.136874
18.1055
0.114158
18.1284
0.0914819
18.1669
0.0687768
18.2186
0.0459876
18.2817
0.0230726
18.3546
0
18.4361
-0.0232543
18.5251
-0.046708
18.6209
-0.0703739
18.7227
-0.0942612
18.8299
-0.118375
18.942
-0.142718
19.0585
-0.16729
19.1791
-0.192091
19.3035
-0.217117
19.4314
-0.242362
19.5625
-0.267822
19.6967
-0.293489
19.8337
-0.319356
19.9735
-0.345412
20.1157
-0.37165
20.2604
-0.398058
20.4074
-0.424625
20.5567
-0.451341
20.708
-0.478193
20.8614
-0.505169
21.0168
-0.532255
21.1741
-0.55944
21.3332
-0.586708
21.4941
-0.614047
21.6568
-0.641442
21.8212
-0.668879
21.9873
-0.696342
22.1549
-0.723818
22.3242
-0.751291
22.495
-0.778746
22.6674
-0.806167
22.8413
-0.833538
23.0165
-0.860846
23.1935
-0.888067
23.3712
-0.915213
23.5522
-0.942176
23.7286
-0.969234
23.9252
-0.995429
-1.02376
24.0652
35.3884
1.62811
-35.8652
34.9008
1.57604
34.4019
1.52353
33.8908
1.4706
33.3662
1.41729
32.8268
1.36362
32.271
1.30961
31.6969
1.2553
31.1025
1.2007
30.4852
1.14584
29.8424
1.09074
29.1707
1.03543
28.4667
0.979918
27.7265
0.924251
26.9469
0.868485
26.126
0.812736
25.2655
0.757217
24.3732
0.702292
23.465
0.648508
22.5651
0.596567
21.7027
0.547212
20.9063
0.501069
20.198
0.458497
19.5896
0.419533
19.0831
0.383932
18.6724
0.35126
18.3472
0.321012
18.0952
0.292685
17.9045
0.265833
17.7646
0.24008
17.6662
0.215123
17.6021
0.190722
17.5661
0.16669
17.5534
0.142883
17.5604
0.119189
17.5837
0.0955227
17.621
0.0718162
17.6703
0.0480185
17.73
0.0240899
17.7986
0
17.8752
-0.0242741
17.9588
-0.0487494
18.0487
-0.0734382
18.1441
-0.0983488
18.2446
-0.123486
18.3498
-0.148853
18.4591
-0.174449
18.5723
-0.200272
18.689
-0.22632
18.8091
-0.252586
18.9322
-0.279065
19.0583
-0.30575
19.1871
-0.332632
19.3185
-0.359702
19.4523
-0.38695
19.5885
-0.414366
19.7268
-0.441938
19.8673
-0.469655
20.0099
-0.497505
20.1544
-0.525473
20.3009
-0.553549
20.4491
-0.581717
20.5992
-0.609965
20.751
-0.638277
20.9045
-0.666639
21.0596
-0.695036
21.2163
-0.723454
21.3747
-0.751877
21.5345
-0.78029
21.6959
-0.808676
21.8587
-0.837021
22.023
-0.865307
22.1886
-0.893521
22.3558
-0.921638
22.5239
-0.94967
22.695
-0.977509
22.8619
-1.00543
23.0477
-1.03248
-1.06167
23.1806
33.8586
1.67182
-34.3218
33.3844
1.618
32.899
1.5637
32.4014
1.50898
31.8903
1.45384
31.3643
1.39832
30.8218
1.34246
30.2609
1.28626
29.6796
1.22975
29.0753
1.17296
28.4453
1.11592
27.7865
1.05863
27.0955
1.00115
26.3693
0.943514
25.6055
0.885825
24.8046
0.828257
23.9711
0.771115
23.1165
0.714871
22.2596
0.660166
21.4253
0.607739
20.6402
0.558282
19.9275
0.51229
19.3027
0.46996
18.7719
0.431183
18.3333
0.395619
17.9792
0.362797
17.6994
0.33221
17.4829
0.303383
17.3191
0.275898
17.1992
0.249411
17.1153
0.223646
17.0613
0.198382
17.032
0.17345
17.0234
0.148714
17.0321
0.124072
17.0556
0.0994435
17.0917
0.0747651
17.1387
0.0499887
17.1951
0.0250765
17.2598
0
17.3318
-0.0252627
17.4102
-0.050728
17.4945
-0.076407
17.584
-0.102308
17.6783
-0.128435
17.7769
-0.154791
17.8794
-0.181375
17.9856
-0.208184
18.0952
-0.235217
18.208
-0.262466
18.3237
-0.289925
18.4421
-0.317588
18.5632
-0.345445
18.6867
-0.373487
18.8126
-0.401704
18.9407
-0.430085
19.0709
-0.458619
19.2032
-0.487293
19.3375
-0.516095
19.4737
-0.545011
19.6117
-0.574029
19.7515
-0.603135
19.893
-0.632313
20.0362
-0.66155
20.181
-0.690831
20.3274
-0.72014
20.4753
-0.749462
20.6248
-0.778782
20.7757
-0.808084
20.9281
-0.837351
21.082
-0.866567
21.2372
-0.895716
21.3938
-0.924784
21.5518
-0.953744
21.7107
-0.98261
21.8725
-1.01127
22.0304
-1.04001
22.2059
-1.06786
-1.09784
22.332
32.3859
1.71162
-32.8362
31.9245
1.65611
31.452
1.60012
30.9673
1.54367
30.4689
1.48679
29.9557
1.42952
29.4258
1.37186
28.8774
1.31386
28.3085
1.25552
27.7164
1.19689
27.0987
1.13797
26.4522
1.0788
25.7741
1.01944
25.0623
0.959961
24.316
0.90051
23.5379
0.841345
22.736
0.782871
21.9246
0.725665
21.1243
0.670429
20.3587
0.617886
19.6509
0.56863
19.0182
0.523
18.4705
0.481033
18.0093
0.4425
17.6304
0.406993
17.3256
0.374024
17.085
0.343102
16.8989
0.313779
16.7583
0.285675
16.6556
0.258473
16.5842
0.231921
16.5388
0.205819
16.5152
0.180011
16.5099
0.154374
16.5202
0.128811
16.5436
0.103248
16.5784
0.0776262
16.6231
0.0518998
16.6765
0.0260335
16.7374
0
16.8051
-0.0262212
16.8787
-0.0526454
16.9578
-0.0792835
17.0418
-0.106143
17.1302
-0.133227
17.2227
-0.160539
17.3189
-0.188076
17.4185
-0.215838
17.5214
-0.243819
17.6273
-0.272015
17.7359
-0.300418
17.8472
-0.329021
17.961
-0.357814
18.0772
-0.38679
18.1956
-0.415935
18.3161
-0.445241
18.4388
-0.474694
18.5633
-0.504284
18.6898
-0.533995
18.8181
-0.563816
18.9482
-0.593733
19.0799
-0.62373
19.2134
-0.653795
19.3484
-0.683911
19.4851
-0.714065
19.6232
-0.744239
19.7629
-0.774418
19.904
-0.804588
20.0466
-0.83473
20.1905
-0.864829
20.3359
-0.894869
20.4825
-0.924832
20.6305
-0.954704
20.7799
-0.984459
20.9301
-1.01411
21.0831
-1.04354
21.2324
-1.07304
21.3984
-1.10164
-1.13236
21.518
30.9681
1.74759
-31.4062
30.519
1.69048
30.0588
1.63287
29.5862
1.57478
29.1
1.51624
28.5988
1.45727
28.0808
1.39791
27.5443
1.33817
26.987
1.27808
26.4066
1.21767
25.8005
1.15696
25.1662
1.09601
24.5014
1.03488
23.805
0.973702
23.0785
0.912692
22.3272
0.8522
21.5619
0.792735
20.799
0.734953
20.0592
0.679574
19.3639
0.627253
18.7314
0.578447
18.1738
0.533332
17.6961
0.491802
17.2968
0.453536
16.9702
0.418085
16.7079
0.384963
16.5011
0.353703
16.3411
0.32389
16.2204
0.295176
16.1324
0.267274
16.0717
0.239956
16.0338
0.213039
16.0151
0.18638
16.0126
0.159867
16.0239
0.13341
16.0472
0.10694
16.0807
0.0804022
16.1233
0.0537537
16.1737
0.0269616
16.2311
0
16.2946
-0.0271504
16.3638
-0.054504
16.438
-0.0820707
16.5168
-0.109857
16.5997
-0.137868
16.6864
-0.166103
16.7767
-0.194561
16.8702
-0.223241
16.9668
-0.252138
17.0662
-0.281245
17.1683
-0.310556
17.2729
-0.340063
17.3799
-0.369757
17.4891
-0.399628
17.6005
-0.429665
17.7139
-0.459856
17.8293
-0.49019
17.9466
-0.520654
18.0658
-0.551235
18.1867
-0.58192
18.3092
-0.612693
18.4335
-0.643541
18.5593
-0.674449
18.6867
-0.705402
18.8156
-0.736384
18.946
-0.767379
19.0779
-0.798372
19.2111
-0.829346
19.3457
-0.860284
19.4817
-0.89117
19.619
-0.921988
19.7576
-0.952718
19.8975
-0.983349
20.0387
-1.01385
20.1807
-1.04424
20.3253
-1.0744
20.4666
-1.10461
20.6234
-1.13392
-1.16533
20.737
29.603
1.77983
-30.0294
29.1657
1.7212
28.7171
1.66204
28.256
1.60238
27.7813
1.54225
27.2915
1.48166
26.7848
1.42066
26.2594
1.35926
25.7132
1.29748