/*--------------------------------*- C++ -*----------------------------------*\
| =========                 |                                                 |
| \\      /  F ield         | OpenFOAM: The Open Source CFD Toolbox           |
|  \\    /   O peration     | Version:  2312                                  |
|   \\  /    A nd           | Website:  www.openfoam.com                      |
|    \\/     M anipulation  |                                                 |
\*---------------------------------------------------------------------------*/
FoamFile
{
    version     2.0;
    format      ascii;
    arch        "LSB;label=32;scalar=64";
    class       volVectorField;
    location    "2.8";
    object      flux;
}
// * * * * * * * * * * * * * * * * * * * * * * * * * * * * * * * * * * * * * //

dimensions      [0 1 -1 1 0 0 0];

internalField   nonuniform List<vector> 
100
(
(3.51008 0 0)
(3.61017 0 0)
(3.69475 0 0)
(3.76466 0 0)
(3.82075 0 0)
(3.86383 0 0)
(3.89468 0 0)
(3.91406 0 0)
(3.92271 0 0)
(3.92135 0 0)
(3.91067 0 0)
(3.89133 0 0)
(3.86396 0 0)
(3.8292 0 0)
(3.78762 0 0)
(3.7398 0 0)
(3.68629 0 0)
(3.6276 0 0)
(3.56423 0 0)
(3.49666 0 0)
(3.42534 0 0)
(3.3507 0 0)
(3.27316 0 0)
(3.1931 0 0)
(3.1109 0 0)
(3.0269 0 0)
(2.94143 0 0)
(2.8548 0 0)
(2.76732 0 0)
(2.67924 0 0)
(2.59084 0 0)
(2.50235 0 0)
(2.41399 0 0)
(2.32599 0 0)
(2.23852 0 0)
(2.15178 0 0)
(2.06593 0 0)
(1.98112 0 0)
(1.89749 0 0)
(1.81518 0 0)
(1.7343 0 0)
(1.65495 0 0)
(1.57723 0 0)
(1.50122 0 0)
(1.427 0 0)
(1.35463 0 0)
(1.28418 0 0)
(1.21568 0 0)
(1.14919 0 0)
(1.08473 0 0)
(1.02233 0 0)
(0.962004 0 0)
(0.903774 0 0)
(0.847645 0 0)
(0.793619 0 0)
(0.741692 0 0)
(0.691856 0 0)
(0.6441 0 0)
(0.598407 0 0)
(0.554756 0 0)
(0.513123 0 0)
(0.473482 0 0)
(0.435802 0 0)
(0.40005 0 0)
(0.366191 0 0)
(0.334186 0 0)
(0.303995 0 0)
(0.275576 0 0)
(0.248886 0 0)
(0.223878 0 0)
(0.200507 0 0)
(0.178724 0 0)
(0.158479 0 0)
(0.139724 0 0)
(0.122406 0 0)
(0.106474 0 0)
(0.0918753 0 0)
(0.0785571 0 0)
(0.066466 0 0)
(0.0555481 0 0)
(0.0457492 0 0)
(0.037015 0 0)
(0.0292909 0 0)
(0.0225223 0 0)
(0.0166542 0 0)
(0.0116319 0 0)
(0.00740044 0 0)
(0.00390494 0 0)
(0.00109056 0 0)
(-0.00109753 0 0)
(-0.0027141 0 0)
(-0.00381385 0 0)
(-0.00445144 0 0)
(-0.00468143 0 0)
(-0.00455832 0 0)
(-0.00413656 0 0)
(-0.00347054 0 0)
(-0.00261458 0 0)
(-0.001623 0 0)
(-0.000550039 0 0)
)
;

boundaryField
{
    movingWall
    {
        type            calculated;
        value           uniform (3.45605 0 0);
    }
    fixedWalls
    {
        type            calculated;
        value           nonuniform List<vector> 
201
(
(3.51008 0 0)
(3.61017 0 0)
(3.69475 0 0)
(3.76466 0 0)
(3.82075 0 0)
(3.86383 0 0)
(3.89468 0 0)
(3.91406 0 0)
(3.92271 0 0)
(3.92135 0 0)
(3.91067 0 0)
(3.89133 0 0)
(3.86396 0 0)
(3.8292 0 0)
(3.78762 0 0)
(3.7398 0 0)
(3.68629 0 0)
(3.6276 0 0)
(3.56423 0 0)
(3.49666 0 0)
(3.42534 0 0)
(3.3507 0 0)
(3.27316 0 0)
(3.1931 0 0)
(3.1109 0 0)
(3.0269 0 0)
(2.94143 0 0)
(2.8548 0 0)
(2.76732 0 0)
(2.67924 0 0)
(2.59084 0 0)
(2.50235 0 0)
(2.41399 0 0)
(2.32599 0 0)
(2.23852 0 0)
(2.15178 0 0)
(2.06593 0 0)
(1.98112 0 0)
(1.89749 0 0)
(1.81518 0 0)
(1.7343 0 0)
(1.65495 0 0)
(1.57723 0 0)
(1.50122 0 0)
(1.427 0 0)
(1.35463 0 0)
(1.28418 0 0)
(1.21568 0 0)
(1.14919 0 0)
(1.08473 0 0)
(1.02233 0 0)
(0.962004 0 0)
(0.903774 0 0)
(0.847645 0 0)
(0.793619 0 0)
(0.741692 0 0)
(0.691856 0 0)
(0.6441 0 0)
(0.598407 0 0)
(0.554756 0 0)
(0.513123 0 0)
(0.473482 0 0)
(0.435802 0 0)
(0.40005 0 0)
(0.366191 0 0)
(0.334186 0 0)
(0.303995 0 0)
(0.275576 0 0)
(0.248886 0 0)
(0.223878 0 0)
(0.200507 0 0)
(0.178724 0 0)
(0.158479 0 0)
(0.139724 0 0)
(0.122406 0 0)
(0.106474 0 0)
(0.0918753 0 0)
(0.0785571 0 0)
(0.066466 0 0)
(0.0555481 0 0)
(0.0457492 0 0)
(0.037015 0 0)
(0.0292909 0 0)
(0.0225223 0 0)
(0.0166542 0 0)
(0.0116319 0 0)
(0.00740044 0 0)
(0.00390494 0 0)
(0.00109056 0 0)
(-0.00109753 0 0)
(-0.0027141 0 0)
(-0.00381385 0 0)
(-0.00445144 0 0)
(-0.00468143 0 0)
(-0.00455832 0 0)
(-0.00413656 0 0)
(-0.00347054 0 0)
(-0.00261458 0 0)
(-0.001623 0 0)
(-0.000550039 0 0)
(0 0 0)
(3.51008 0 0)
(3.61017 0 0)
(3.69475 0 0)
(3.76466 0 0)
(3.82075 0 0)
(3.86383 0 0)
(3.89468 0 0)
(3.91406 0 0)
(3.92271 0 0)
(3.92135 0 0)
(3.91067 0 0)
(3.89133 0 0)
(3.86396 0 0)
(3.8292 0 0)
(3.78762 0 0)
(3.7398 0 0)
(3.68629 0 0)
(3.6276 0 0)
(3.56423 0 0)
(3.49666 0 0)
(3.42534 0 0)
(3.3507 0 0)
(3.27316 0 0)
(3.1931 0 0)
(3.1109 0 0)
(3.0269 0 0)
(2.94143 0 0)
(2.8548 0 0)
(2.76732 0 0)
(2.67924 0 0)
(2.59084 0 0)
(2.50235 0 0)
(2.41399 0 0)
(2.32599 0 0)
(2.23852 0 0)
(2.15178 0 0)
(2.06593 0 0)
(1.98112 0 0)
(1.89749 0 0)
(1.81518 0 0)
(1.7343 0 0)
(1.65495 0 0)
(1.57723 0 0)
(1.50122 0 0)
(1.427 0 0)
(1.35463 0 0)
(1.28418 0 0)
(1.21568 0 0)
(1.14919 0 0)
(1.08473 0 0)
(1.02233 0 0)
(0.962004 0 0)
(0.903774 0 0)
(0.847645 0 0)
(0.793619 0 0)
(0.741692 0 0)
(0.691856 0 0)
(0.6441 0 0)
(0.598407 0 0)
(0.554756 0 0)
(0.513123 0 0)
(0.473482 0 0)
(0.435802 0 0)
(0.40005 0 0)
(0.366191 0 0)
(0.334186 0 0)
(0.303995 0 0)
(0.275576 0 0)
(0.248886 0 0)
(0.223878 0 0)
(0.200507 0 0)
(0.178724 0 0)
(0.158479 0 0)
(0.139724 0 0)
(0.122406 0 0)
(0.106474 0 0)
(0.0918753 0 0)
(0.0785571 0 0)
(0.066466 0 0)
(0.0555481 0 0)
(0.0457492 0 0)
(0.037015 0 0)
(0.0292909 0 0)
(0.0225223 0 0)
(0.0166542 0 0)
(0.0116319 0 0)
(0.00740044 0 0)
(0.00390494 0 0)
(0.00109056 0 0)
(-0.00109753 0 0)
(-0.0027141 0 0)
(-0.00381385 0 0)
(-0.00445144 0 0)
(-0.00468143 0 0)
(-0.00455832 0 0)
(-0.00413656 0 0)
(-0.00347054 0 0)
(-0.00261458 0 0)
(-0.001623 0 0)
(-0.000550039 0 0)
)
;
    }
    frontAndBack
    {
        type            empty;
    }
}


// ************************************************************************* //
