/*--------------------------------*- C++ -*----------------------------------*\
| =========                 |                                                 |
| \\      /  F ield         | OpenFOAM: The Open Source CFD Toolbox           |
|  \\    /   O peration     | Version:  2312                                  |
|   \\  /    A nd           | Website:  www.openfoam.com                      |
|    \\/     M anipulation  |                                                 |
\*---------------------------------------------------------------------------*/
FoamFile
{
    version     2.0;
    format      ascii;
    arch        "LSB;label=32;scalar=64";
    class       volScalarField;
    location    "2.8";
    object      gradTx;
}
// * * * * * * * * * * * * * * * * * * * * * * * * * * * * * * * * * * * * * //

dimensions      [0 -1 0 1 0 0 0];

internalField   nonuniform List<scalar> 
100
(
3.51008
3.61017
3.69475
3.76466
3.82075
3.86383
3.89468
3.91406
3.92271
3.92135
3.91067
3.89133
3.86396
3.8292
3.78762
3.7398
3.68629
3.6276
3.56423
3.49666
3.42534
3.3507
3.27316
3.1931
3.1109
3.0269
2.94143
2.8548
2.76732
2.67924
2.59084
2.50235
2.41399
2.32599
2.23852
2.15178
2.06593
1.98112
1.89749
1.81518
1.7343
1.65495
1.57723
1.50122
1.427
1.35463
1.28418
1.21568
1.14919
1.08473
1.02233
0.962004
0.903774
0.847645
0.793619
0.741692
0.691856
0.6441
0.598407
0.554756
0.513123
0.473482
0.435802
0.40005
0.366191
0.334186
0.303995
0.275576
0.248886
0.223878
0.200507
0.178724
0.158479
0.139724
0.122406
0.106474
0.0918753
0.0785571
0.066466
0.0555481
0.0457492
0.037015
0.0292909
0.0225223
0.0166542
0.0116319
0.00740044
0.00390494
0.00109056
-0.00109753
-0.0027141
-0.00381385
-0.00445144
-0.00468143
-0.00455832
-0.00413656
-0.00347054
-0.00261458
-0.001623
-0.000550039
)
;

boundaryField
{
    movingWall
    {
        type            calculated;
        value           uniform 3.45605;
    }
    fixedWalls
    {
        type            calculated;
        value           nonuniform List<scalar> 
201
(
3.51008
3.61017
3.69475
3.76466
3.82075
3.86383
3.89468
3.91406
3.92271
3.92135
3.91067
3.89133
3.86396
3.8292
3.78762
3.7398
3.68629
3.6276
3.56423
3.49666
3.42534
3.3507
3.27316
3.1931
3.1109
3.0269
2.94143
2.8548
2.76732
2.67924
2.59084
2.50235
2.41399
2.32599
2.23852
2.15178
2.06593
1.98112
1.89749
1.81518
1.7343
1.65495
1.57723
1.50122
1.427
1.35463
1.28418
1.21568
1.14919
1.08473
1.02233
0.962004
0.903774
0.847645
0.793619
0.741692
0.691856
0.6441
0.598407
0.554756
0.513123
0.473482
0.435802
0.40005
0.366191
0.334186
0.303995
0.275576
0.248886
0.223878
0.200507
0.178724
0.158479
0.139724
0.122406
0.106474
0.0918753
0.0785571
0.066466
0.0555481
0.0457492
0.037015
0.0292909
0.0225223
0.0166542
0.0116319
0.00740044
0.00390494
0.00109056
-0.00109753
-0.0027141
-0.00381385
-0.00445144
-0.00468143
-0.00455832
-0.00413656
-0.00347054
-0.00261458
-0.001623
-0.000550039
0
3.51008
3.61017
3.69475
3.76466
3.82075
3.86383
3.89468
3.91406
3.92271
3.92135
3.91067
3.89133
3.86396
3.8292
3.78762
3.7398
3.68629
3.6276
3.56423
3.49666
3.42534
3.3507
3.27316
3.1931
3.1109
3.0269
2.94143
2.8548
2.76732
2.67924
2.59084
2.50235
2.41399
2.32599
2.23852
2.15178
2.06593
1.98112
1.89749
1.81518
1.7343
1.65495
1.57723
1.50122
1.427
1.35463
1.28418
1.21568
1.14919
1.08473
1.02233
0.962004
0.903774
0.847645
0.793619
0.741692
0.691856
0.6441
0.598407
0.554756
0.513123
0.473482
0.435802
0.40005
0.366191
0.334186
0.303995
0.275576
0.248886
0.223878
0.200507
0.178724
0.158479
0.139724
0.122406
0.106474
0.0918753
0.0785571
0.066466
0.0555481
0.0457492
0.037015
0.0292909
0.0225223
0.0166542
0.0116319
0.00740044
0.00390494
0.00109056
-0.00109753
-0.0027141
-0.00381385
-0.00445144
-0.00468143
-0.00455832
-0.00413656
-0.00347054
-0.00261458
-0.001623
-0.000550039
)
;
    }
    frontAndBack
    {
        type            empty;
    }
}


// ************************************************************************* //
