/*--------------------------------*- C++ -*----------------------------------*\
| =========                 |                                                 |
| \\      /  F ield         | OpenFOAM: The Open Source CFD Toolbox           |
|  \\    /   O peration     | Version:  2312                                  |
|   \\  /    A nd           | Website:  www.openfoam.com                      |
|    \\/     M anipulation  |                                                 |
\*---------------------------------------------------------------------------*/
FoamFile
{
    version     2.0;
    format      ascii;
    arch        "LSB;label=32;scalar=64";
    class       volVectorField;
    location    "0.766";
    object      U;
}
// * * * * * * * * * * * * * * * * * * * * * * * * * * * * * * * * * * * * * //

dimensions      [0 1 -1 0 0 0 0];

internalField   nonuniform List<vector> 
31205
(
(117.48 0 0)
(120.199 0 0)
(122.948 0 0)
(125.709 0 0)
(128.471 0 0)
(131.225 0 0)
(133.962 0 0)
(136.678 0 0)
(139.368 0 0)
(142.03 0 0)
(144.662 0 0)
(147.262 0 0)
(149.829 0 0)
(152.363 0 0)
(154.864 0 0)
(157.331 0 0)
(159.766 0 0)
(162.167 0 0)
(164.536 0 0)
(166.873 0 0)
(169.178 0 0)
(171.452 0 0)
(173.695 0 0)
(175.909 0 0)
(178.093 0 0)
(180.249 0 0)
(182.376 0 0)
(184.476 0 0)
(186.548 0 0)
(188.594 0 0)
(190.614 0 0)
(192.608 0 0)
(194.577 0 0)
(196.521 0 0)
(198.442 0 0)
(200.338 0 0)
(202.211 0 0)
(204.062 0 0)
(205.89 0 0)
(207.695 0 0)
(209.479 0 0)
(211.242 0 0)
(212.983 0 0)
(214.704 0 0)
(216.404 0 0)
(218.085 0 0)
(219.745 0 0)
(221.385 0 0)
(223.007 0 0)
(224.609 0 0)
(226.193 0 0)
(227.757 0 0)
(229.304 0 0)
(230.832 0 0)
(232.342 0 0)
(233.835 0 0)
(235.31 0 0)
(236.768 0 0)
(238.208 0 0)
(239.631 0 0)
(241.037 0 0)
(242.427 0 0)
(243.8 0 0)
(245.156 0 0)
(246.496 0 0)
(247.819 0 0)
(249.127 0 0)
(250.418 0 0)
(251.693 0 0)
(252.953 0 0)
(254.196 0 0)
(255.424 0 0)
(256.637 0 0)
(257.832 0 0)
(259.017 0 0)
(260.17 0 0)
(261.36 0 0)
(262.373 0 0)
(263.866 0 0)
(120.374 0 0)
(123.04 0 0)
(125.718 0 0)
(128.397 0 0)
(131.067 0 0)
(133.724 0 0)
(136.36 0 0)
(138.973 0 0)
(141.56 0 0)
(144.119 0 0)
(146.648 0 0)
(149.147 0 0)
(151.615 0 0)
(154.052 0 0)
(156.457 0 0)
(158.831 0 0)
(161.174 0 0)
(163.486 0 0)
(165.768 0 0)
(168.019 0 0)
(170.242 0 0)
(172.435 0 0)
(174.6 0 0)
(176.737 0 0)
(178.847 0 0)
(180.93 0 0)
(182.986 0 0)
(185.016 0 0)
(187.021 0 0)
(189.001 0 0)
(190.957 0 0)
(192.888 0 0)
(194.796 0 0)
(196.681 0 0)
(198.543 0 0)
(200.383 0 0)
(202.201 0 0)
(203.997 0 0)
(205.772 0 0)
(207.526 0 0)
(209.26 0 0)
(210.973 0 0)
(212.667 0 0)
(214.341 0 0)
(215.996 0 0)
(217.631 0 0)
(219.248 0 0)
(220.846 0 0)
(222.426 0 0)
(223.988 0 0)
(225.532 0 0)
(227.058 0 0)
(228.567 0 0)
(230.059 0 0)
(231.533 0 0)
(232.991 0 0)
(234.432 0 0)
(235.857 0 0)
(237.265 0 0)
(238.657 0 0)
(240.033 0 0)
(241.393 0 0)
(242.737 0 0)
(244.065 0 0)
(245.378 0 0)
(246.675 0 0)
(247.957 0 0)
(249.224 0 0)
(250.476 0 0)
(251.712 0 0)
(252.934 0 0)
(254.14 0 0)
(255.332 0 0)
(256.508 0 0)
(257.674 0 0)
(258.81 0 0)
(259.981 0 0)
(260.982 0 0)
(262.447 0 0)
(123.349 0 0)
(125.944 0 0)
(128.539 0 0)
(131.127 0 0)
(133.701 0 0)
(136.257 0 0)
(138.791 0 0)
(141.302 0 0)
(143.786 0 0)
(146.242 0 0)
(148.671 0 0)
(151.07 0 0)
(153.44 0 0)
(155.781 0 0)
(158.092 0 0)
(160.374 0 0)
(162.628 0 0)
(164.852 0 0)
(167.049 0 0)
(169.217 0 0)
(171.359 0 0)
(173.473 0 0)
(175.561 0 0)
(177.622 0 0)
(179.658 0 0)
(181.669 0 0)
(183.656 0 0)
(185.618 0 0)
(187.557 0 0)
(189.472 0 0)
(191.364 0 0)
(193.234 0 0)
(195.081 0 0)
(196.907 0 0)
(198.712 0 0)
(200.496 0 0)
(202.259 0 0)
(204.002 0 0)
(205.724 0 0)
(207.427 0 0)
(209.111 0 0)
(210.776 0 0)
(212.422 0 0)
(214.049 0 0)
(215.658 0 0)
(217.25 0 0)
(218.823 0 0)
(220.379 0 0)
(221.917 0 0)
(223.439 0 0)
(224.943 0 0)
(226.431 0 0)
(227.903 0 0)
(229.358 0 0)
(230.796 0 0)
(232.219 0 0)
(233.626 0 0)
(235.018 0 0)
(236.393 0 0)
(237.754 0 0)
(239.099 0 0)
(240.429 0 0)
(241.744 0 0)
(243.044 0 0)
(244.329 0 0)
(245.6 0 0)
(246.856 0 0)
(248.098 0 0)
(249.325 0 0)
(250.538 0 0)
(251.737 0 0)
(252.921 0 0)
(254.092 0 0)
(255.247 0 0)
(256.394 0 0)
(257.51 0 0)
(258.662 0 0)
(259.649 0 0)
(261.086 0 0)
(126.299 0 0)
(128.813 0 0)
(131.319 0 0)
(133.813 0 0)
(136.29 0 0)
(138.746 0 0)
(141.18 0 0)
(143.59 0 0)
(145.974 0 0)
(148.332 0 0)
(150.663 0 0)
(152.967 0 0)
(155.243 0 0)
(157.491 0 0)
(159.712 0 0)
(161.906 0 0)
(164.073 0 0)
(166.214 0 0)
(168.328 0 0)
(170.416 0 0)
(172.479 0 0)
(174.517 0 0)
(176.53 0 0)
(178.519 0 0)
(180.484 0 0)
(182.426 0 0)
(184.344 0 0)
(186.241 0 0)
(188.115 0 0)
(189.967 0 0)
(191.797 0 0)
(193.607 0 0)
(195.396 0 0)
(197.165 0 0)
(198.913 0 0)
(200.642 0 0)
(202.352 0 0)
(204.042 0 0)
(205.714 0 0)
(207.367 0 0)
(209.002 0 0)
(210.619 0 0)
(212.218 0 0)
(213.8 0 0)
(215.364 0 0)
(216.912 0 0)
(218.443 0 0)
(219.957 0 0)
(221.454 0 0)
(222.936 0 0)
(224.402 0 0)
(225.851 0 0)
(227.285 0 0)
(228.704 0 0)
(230.107 0 0)
(231.496 0 0)
(232.869 0 0)
(234.227 0 0)
(235.571 0 0)
(236.9 0 0)
(238.214 0 0)
(239.514 0 0)
(240.8 0 0)
(242.072 0 0)
(243.33 0 0)
(244.573 0 0)
(245.803 0 0)
(247.02 0 0)
(248.222 0 0)
(249.411 0 0)
(250.587 0 0)
(251.749 0 0)
(252.898 0 0)
(254.032 0 0)
(255.158 0 0)
(256.255 0 0)
(257.387 0 0)
(258.359 0 0)
(259.77 0 0)
(129.176 0 0)
(131.603 0 0)
(134.018 0 0)
(136.417 0 0)
(138.797 0 0)
(141.156 0 0)
(143.493 0 0)
(145.806 0 0)
(148.094 0 0)
(150.357 0 0)
(152.594 0 0)
(154.806 0 0)
(156.992 0 0)
(159.152 0 0)
(161.287 0 0)
(163.397 0 0)
(165.481 0 0)
(167.541 0 0)
(169.577 0 0)
(171.588 0 0)
(173.576 0 0)
(175.54 0 0)
(177.481 0 0)
(179.4 0 0)
(181.297 0 0)
(183.172 0 0)
(185.025 0 0)
(186.858 0 0)
(188.669 0 0)
(190.461 0 0)
(192.232 0 0)
(193.983 0 0)
(195.716 0 0)
(197.429 0 0)
(199.123 0 0)
(200.799 0 0)
(202.456 0 0)
(204.096 0 0)
(205.718 0 0)
(207.322 0 0)
(208.909 0 0)
(210.48 0 0)
(212.033 0 0)
(213.571 0 0)
(215.091 0 0)
(216.596 0 0)
(218.085 0 0)
(219.559 0 0)
(221.016 0 0)
(222.459 0 0)
(223.886 0 0)
(225.299 0 0)
(226.696 0 0)
(228.079 0 0)
(229.447 0 0)
(230.801 0 0)
(232.141 0 0)
(233.467 0 0)
(234.779 0 0)
(236.076 0 0)
(237.36 0 0)
(238.631 0 0)
(239.888 0 0)
(241.131 0 0)
(242.362 0 0)
(243.579 0 0)
(244.782 0 0)
(245.973 0 0)
(247.151 0 0)
(248.316 0 0)
(249.468 0 0)
(250.608 0 0)
(251.735 0 0)
(252.848 0 0)
(253.953 0 0)
(255.03 0 0)
(256.142 0 0)
(257.098 0 0)
(258.484 0 0)
(131.959 0 0)
(134.297 0 0)
(136.62 0 0)
(138.925 0 0)
(141.211 0 0)
(143.476 0 0)
(145.718 0 0)
(147.938 0 0)
(150.134 0 0)
(152.306 0 0)
(154.454 0 0)
(156.578 0 0)
(158.678 0 0)
(160.755 0 0)
(162.807 0 0)
(164.836 0 0)
(166.842 0 0)
(168.824 0 0)
(170.784 0 0)
(172.722 0 0)
(174.638 0 0)
(176.532 0 0)
(178.404 0 0)
(180.256 0 0)
(182.087 0 0)
(183.898 0 0)
(185.688 0 0)
(187.459 0 0)
(189.211 0 0)
(190.943 0 0)
(192.657 0 0)
(194.352 0 0)
(196.03 0 0)
(197.689 0 0)
(199.33 0 0)
(200.955 0 0)
(202.562 0 0)
(204.152 0 0)
(205.726 0 0)
(207.283 0 0)
(208.824 0 0)
(210.349 0 0)
(211.858 0 0)
(213.352 0 0)
(214.831 0 0)
(216.294 0 0)
(217.742 0 0)
(219.175 0 0)
(220.594 0 0)
(221.998 0 0)
(223.388 0 0)
(224.764 0 0)
(226.126 0 0)
(227.474 0 0)
(228.808 0 0)
(230.128 0 0)
(231.435 0 0)
(232.729 0 0)
(234.009 0 0)
(235.276 0 0)
(236.53 0 0)
(237.771 0 0)
(238.999 0 0)
(240.215 0 0)
(241.418 0 0)
(242.608 0 0)
(243.786 0 0)
(244.952 0 0)
(246.105 0 0)
(247.246 0 0)
(248.375 0 0)
(249.491 0 0)
(250.596 0 0)
(251.688 0 0)
(252.772 0 0)
(253.83 0 0)
(254.921 0 0)
(255.86 0 0)
(257.221 0 0)
(134.642 0 0)
(136.891 0 0)
(139.123 0 0)
(141.336 0 0)
(143.53 0 0)
(145.704 0 0)
(147.856 0 0)
(149.986 0 0)
(152.093 0 0)
(154.179 0 0)
(156.242 0 0)
(158.282 0 0)
(160.3 0 0)
(162.296 0 0)
(164.27 0 0)
(166.222 0 0)
(168.152 0 0)
(170.061 0 0)
(171.949 0 0)
(173.816 0 0)
(175.662 0 0)
(177.489 0 0)
(179.296 0 0)
(181.083 0 0)
(182.851 0 0)
(184.599 0 0)
(186.33 0 0)
(188.041 0 0)
(189.735 0 0)
(191.411 0 0)
(193.07 0 0)
(194.711 0 0)
(196.335 0 0)
(197.942 0 0)
(199.533 0 0)
(201.107 0 0)
(202.665 0 0)
(204.208 0 0)
(205.735 0 0)
(207.246 0 0)
(208.742 0 0)
(210.223 0 0)
(211.689 0 0)
(213.141 0 0)
(214.578 0 0)
(216.001 0 0)
(217.409 0 0)
(218.804 0 0)
(220.184 0 0)
(221.551 0 0)
(222.904 0 0)
(224.244 0 0)
(225.571 0 0)
(226.884 0 0)
(228.185 0 0)
(229.472 0 0)
(230.747 0 0)
(232.009 0 0)
(233.258 0 0)
(234.495 0 0)
(235.72 0 0)
(236.932 0 0)
(238.132 0 0)
(239.32 0 0)
(240.496 0 0)
(241.66 0 0)
(242.812 0 0)
(243.952 0 0)
(245.081 0 0)
(246.198 0 0)
(247.303 0 0)
(248.397 0 0)
(249.48 0 0)
(250.55 0 0)
(251.613 0 0)
(252.651 0 0)
(253.722 0 0)
(254.644 0 0)
(255.98 0 0)
(137.223 0 0)
(139.384 0 0)
(141.527 0 0)
(143.651 0 0)
(145.757 0 0)
(147.842 0 0)
(149.907 0 0)
(151.952 0 0)
(153.975 0 0)
(155.978 0 0)
(157.959 0 0)
(159.92 0 0)
(161.859 0 0)
(163.778 0 0)
(165.677 0 0)
(167.555 0 0)
(169.413 0 0)
(171.252 0 0)
(173.071 0 0)
(174.87 0 0)
(176.651 0 0)
(178.412 0 0)
(180.156 0 0)
(181.881 0 0)
(183.588 0 0)
(185.277 0 0)
(186.95 0 0)
(188.604 0 0)
(190.242 0 0)
(191.864 0 0)
(193.469 0 0)
(195.057 0 0)
(196.63 0 0)
(198.187 0 0)
(199.729 0 0)
(201.255 0 0)
(202.766 0 0)
(204.262 0 0)
(205.743 0 0)
(207.21 0 0)
(208.663 0 0)
(210.101 0 0)
(211.525 0 0)
(212.936 0 0)
(214.332 0 0)
(215.716 0 0)
(217.085 0 0)
(218.442 0 0)
(219.785 0 0)
(221.116 0 0)
(222.433 0 0)
(223.738 0 0)
(225.031 0 0)
(226.31 0 0)
(227.578 0 0)
(228.833 0 0)
(230.076 0 0)
(231.307 0 0)
(232.526 0 0)
(233.733 0 0)
(234.928 0 0)
(236.112 0 0)
(237.284 0 0)
(238.445 0 0)
(239.594 0 0)
(240.732 0 0)
(241.858 0 0)
(242.974 0 0)
(244.078 0 0)
(245.171 0 0)
(246.253 0 0)
(247.325 0 0)
(248.385 0 0)
(249.434 0 0)
(250.476 0 0)
(251.493 0 0)
(252.544 0 0)
(253.449 0 0)
(254.759 0 0)
(139.705 0 0)
(141.779 0 0)
(143.835 0 0)
(145.874 0 0)
(147.894 0 0)
(149.896 0 0)
(151.877 0 0)
(153.84 0 0)
(155.783 0 0)
(157.706 0 0)
(159.61 0 0)
(161.494 0 0)
(163.359 0 0)
(165.204 0 0)
(167.031 0 0)
(168.839 0 0)
(170.628 0 0)
(172.399 0 0)
(174.152 0 0)
(175.886 0 0)
(177.603 0 0)
(179.303 0 0)
(180.986 0 0)
(182.651 0 0)
(184.3 0 0)
(185.932 0 0)
(187.548 0 0)
(189.149 0 0)
(190.733 0 0)
(192.302 0 0)
(193.855 0 0)
(195.393 0 0)
(196.916 0 0)
(198.425 0 0)
(199.918 0 0)
(201.398 0 0)
(202.863 0 0)
(204.314 0 0)
(205.752 0 0)
(207.175 0 0)
(208.586 0 0)
(209.982 0 0)
(211.366 0 0)
(212.736 0 0)
(214.094 0 0)
(215.439 0 0)
(216.771 0 0)
(218.09 0 0)
(219.397 0 0)
(220.692 0 0)
(221.975 0 0)
(223.245 0 0)
(224.504 0 0)
(225.751 0 0)
(226.986 0 0)
(228.209 0 0)
(229.421 0 0)
(230.622 0 0)
(231.811 0 0)
(232.989 0 0)
(234.156 0 0)
(235.311 0 0)
(236.456 0 0)
(237.589 0 0)
(238.712 0 0)
(239.824 0 0)
(240.926 0 0)
(242.016 0 0)
(243.096 0 0)
(244.166 0 0)
(245.225 0 0)
(246.274 0 0)
(247.312 0 0)
(248.339 0 0)
(249.361 0 0)
(250.358 0 0)
(251.388 0 0)
(252.275 0 0)
(253.56 0 0)
(142.088 0 0)
(144.079 0 0)
(146.052 0 0)
(148.008 0 0)
(149.947 0 0)
(151.867 0 0)
(153.769 0 0)
(155.653 0 0)
(157.519 0 0)
(159.367 0 0)
(161.196 0 0)
(163.008 0 0)
(164.801 0 0)
(166.576 0 0)
(168.334 0 0)
(170.075 0 0)
(171.798 0 0)
(173.504 0 0)
(175.194 0 0)
(176.866 0 0)
(178.523 0 0)
(180.163 0 0)
(181.787 0 0)
(183.395 0 0)
(184.988 0 0)
(186.565 0 0)
(188.127 0 0)
(189.675 0 0)
(191.207 0 0)
(192.725 0 0)
(194.229 0 0)
(195.718 0 0)
(197.193 0 0)
(198.655 0 0)
(200.102 0 0)
(201.537 0 0)
(202.957 0 0)
(204.365 0 0)
(205.76 0 0)
(207.142 0 0)
(208.511 0 0)
(209.867 0 0)
(211.211 0 0)
(212.543 0 0)
(213.862 0 0)
(215.169 0 0)
(216.464 0 0)
(217.748 0 0)
(219.02 0 0)
(220.28 0 0)
(221.528 0 0)
(222.765 0 0)
(223.991 0 0)
(225.206 0 0)
(226.409 0 0)
(227.602 0 0)
(228.783 0 0)
(229.954 0 0)
(231.114 0 0)
(232.263 0 0)
(233.401 0 0)
(234.529 0 0)
(235.647 0 0)
(236.754 0 0)
(237.851 0 0)
(238.937 0 0)
(240.013 0 0)
(241.08 0 0)
(242.136 0 0)
(243.182 0 0)
(244.218 0 0)
(245.244 0 0)
(246.261 0 0)
(247.267 0 0)
(248.267 0 0)
(249.244 0 0)
(250.253 0 0)
(251.123 0 0)
(252.382 0 0)
(144.377 0 0)
(146.287 0 0)
(148.18 0 0)
(150.057 0 0)
(151.917 0 0)
(153.76 0 0)
(155.587 0 0)
(157.396 0 0)
(159.188 0 0)
(160.963 0 0)
(162.722 0 0)
(164.464 0 0)
(166.189 0 0)
(167.897 0 0)
(169.589 0 0)
(171.265 0 0)
(172.925 0 0)
(174.57 0 0)
(176.198 0 0)
(177.812 0 0)
(179.409 0 0)
(180.992 0 0)
(182.56 0 0)
(184.114 0 0)
(185.652 0 0)
(187.177 0 0)
(188.687 0 0)
(190.183 0 0)
(191.666 0 0)
(193.135 0 0)
(194.59 0 0)
(196.032 0 0)
(197.461 0 0)
(198.877 0 0)
(200.281 0 0)
(201.671 0 0)
(203.049 0 0)
(204.414 0 0)
(205.768 0 0)
(207.109 0 0)
(208.438 0 0)
(209.755 0 0)
(211.061 0 0)
(212.354 0 0)
(213.637 0 0)
(214.907 0 0)
(216.167 0 0)
(217.415 0 0)
(218.652 0 0)
(219.878 0 0)
(221.094 0 0)
(222.298 0 0)
(223.492 0 0)
(224.675 0 0)
(225.847 0 0)
(227.009 0 0)
(228.161 0 0)
(229.302 0 0)
(230.433 0 0)
(231.554 0 0)
(232.665 0 0)
(233.766 0 0)
(234.857 0 0)
(235.937 0 0)
(237.009 0 0)
(238.07 0 0)
(239.122 0 0)
(240.164 0 0)
(241.196 0 0)
(242.219 0 0)
(243.232 0 0)
(244.236 0 0)
(245.231 0 0)
(246.215 0 0)
(247.195 0 0)
(248.151 0 0)
(249.14 0 0)
(249.993 0 0)
(251.226 0 0)
(146.575 0 0)
(148.407 0 0)
(150.224 0 0)
(152.024 0 0)
(153.81 0 0)
(155.579 0 0)
(157.333 0 0)
(159.07 0 0)
(160.792 0 0)
(162.499 0 0)
(164.189 0 0)
(165.864 0 0)
(167.524 0 0)
(169.169 0 0)
(170.798 0 0)
(172.412 0 0)
(174.012 0 0)
(175.597 0 0)
(177.167 0 0)
(178.723 0 0)
(180.265 0 0)
(181.793 0 0)
(183.307 0 0)
(184.808 0 0)
(186.294 0 0)
(187.768 0 0)
(189.228 0 0)
(190.675 0 0)
(192.11 0 0)
(193.531 0 0)
(194.94 0 0)
(196.337 0 0)
(197.721 0 0)
(199.093 0 0)
(200.453 0 0)
(201.801 0 0)
(203.138 0 0)
(204.462 0 0)
(205.775 0 0)
(207.077 0 0)
(208.367 0 0)
(209.647 0 0)
(210.915 0 0)
(212.172 0 0)
(213.418 0 0)
(214.653 0 0)
(215.878 0 0)
(217.092 0 0)
(218.295 0 0)
(219.488 0 0)
(220.671 0 0)
(221.843 0 0)
(223.006 0 0)
(224.158 0 0)
(225.3 0 0)
(226.432 0 0)
(227.555 0 0)
(228.667 0 0)
(229.77 0 0)
(230.863 0 0)
(231.947 0 0)
(233.021 0 0)
(234.085 0 0)
(235.14 0 0)
(236.186 0 0)
(237.223 0 0)
(238.25 0 0)
(239.268 0 0)
(240.277 0 0)
(241.277 0 0)
(242.268 0 0)
(243.25 0 0)
(244.223 0 0)
(245.186 0 0)
(246.144 0 0)
(247.081 0 0)
(248.049 0 0)
(248.885 0 0)
(250.091 0 0)
(148.686 0 0)
(150.443 0 0)
(152.186 0 0)
(153.914 0 0)
(155.627 0 0)
(157.326 0 0)
(159.01 0 0)
(160.68 0 0)
(162.335 0 0)
(163.975 0 0)
(165.601 0 0)
(167.213 0 0)
(168.81 0 0)
(170.393 0 0)
(171.962 0 0)
(173.518 0 0)
(175.059 0 0)
(176.587 0 0)
(178.102 0 0)
(179.603 0 0)
(181.091 0 0)
(182.566 0 0)
(184.029 0 0)
(185.478 0 0)
(186.915 0 0)
(188.339 0 0)
(189.752 0 0)
(191.151 0 0)
(192.539 0 0)
(193.915 0 0)
(195.28 0 0)
(196.632 0 0)
(197.973 0 0)
(199.303 0 0)
(200.621 0 0)
(201.928 0 0)
(203.224 0 0)
(204.509 0 0)
(205.783 0 0)
(207.046 0 0)
(208.299 0 0)
(209.541 0 0)
(210.773 0 0)
(211.994 0 0)
(213.205 0 0)
(214.406 0 0)
(215.597 0 0)
(216.777 0 0)
(217.948 0 0)
(219.109 0 0)
(220.26 0 0)
(221.401 0 0)
(222.532 0 0)
(223.654 0 0)
(224.767 0 0)
(225.87 0 0)
(226.964 0 0)
(228.048 0 0)
(229.123 0 0)
(230.189 0 0)
(231.246 0 0)
(232.294 0 0)
(233.332 0 0)
(234.362 0 0)
(235.383 0 0)
(236.395 0 0)
(237.398 0 0)
(238.393 0 0)
(239.379 0 0)
(240.356 0 0)
(241.324 0 0)
(242.284 0 0)
(243.236 0 0)
(244.178 0 0)
(245.115 0 0)
(246.032 0 0)
(246.979 0 0)
(247.798 0 0)
(248.979 0 0)
(150.712 0 0)
(152.398 0 0)
(154.07 0 0)
(155.729 0 0)
(157.374 0 0)
(159.005 0 0)
(160.623 0 0)
(162.228 0 0)
(163.819 0 0)
(165.396 0 0)
(166.96 0 0)
(168.511 0 0)
(170.048 0 0)
(171.573 0 0)
(173.084 0 0)
(174.583 0 0)
(176.069 0 0)
(177.543 0 0)
(179.004 0 0)
(180.452 0 0)
(181.889 0 0)
(183.313 0 0)
(184.725 0 0)
(186.126 0 0)
(187.515 0 0)
(188.892 0 0)
(190.258 0 0)
(191.612 0 0)
(192.955 0 0)
(194.287 0 0)
(195.608 0 0)
(196.918 0 0)
(198.217 0 0)
(199.505 0 0)
(200.783 0 0)
(202.051 0 0)
(203.308 0 0)
(204.554 0 0)
(205.79 0 0)
(207.017 0 0)
(208.233 0 0)
(209.439 0 0)
(210.635 0 0)
(211.822 0 0)
(212.999 0 0)
(214.166 0 0)
(215.323 0 0)
(216.471 0 0)
(217.61 0 0)
(218.739 0 0)
(219.859 0 0)
(220.97 0 0)
(222.072 0 0)
(223.164 0 0)
(224.248 0 0)
(225.322 0 0)
(226.388 0 0)
(227.445 0 0)
(228.493 0 0)
(229.532 0 0)
(230.563 0 0)
(231.584 0 0)
(232.598 0 0)
(233.603 0 0)
(234.599 0 0)
(235.587 0 0)
(236.566 0 0)
(237.538 0 0)
(238.5 0 0)
(239.455 0 0)
(240.402 0 0)
(241.34 0 0)
(242.27 0 0)
(243.191 0 0)
(244.108 0 0)
(245.005 0 0)
(245.932 0 0)
(246.733 0 0)
(247.888 0 0)
(152.658 0 0)
(154.275 0 0)
(155.88 0 0)
(157.473 0 0)
(159.052 0 0)
(160.62 0 0)
(162.174 0 0)
(163.716 0 0)
(165.246 0 0)
(166.763 0 0)
(168.268 0 0)
(169.761 0 0)
(171.241 0 0)
(172.709 0 0)
(174.166 0 0)
(175.61 0 0)
(177.043 0 0)
(178.464 0 0)
(179.874 0 0)
(181.272 0 0)
(182.659 0 0)
(184.034 0 0)
(185.399 0 0)
(186.752 0 0)
(188.095 0 0)
(189.426 0 0)
(190.747 0 0)
(192.057 0 0)
(193.357 0 0)
(194.647 0 0)
(195.926 0 0)
(197.195 0 0)
(198.453 0 0)
(199.702 0 0)
(200.941 0 0)
(202.17 0 0)
(203.389 0 0)
(204.598 0 0)
(205.798 0 0)
(206.988 0 0)
(208.169 0 0)
(209.34 0 0)
(210.502 0 0)
(211.655 0 0)
(212.798 0 0)
(213.933 0 0)
(215.058 0 0)
(216.174 0 0)
(217.282 0 0)
(218.38 0 0)
(219.47 0 0)
(220.551 0 0)
(221.623 0 0)
(222.687 0 0)
(223.742 0 0)
(224.789 0 0)
(225.827 0 0)
(226.857 0 0)
(227.878 0 0)
(228.891 0 0)
(229.896 0 0)
(230.893 0 0)
(231.881 0 0)
(232.861 0 0)
(233.834 0 0)
(234.798 0 0)
(235.754 0 0)
(236.702 0 0)
(237.642 0 0)
(238.575 0 0)
(239.499 0 0)
(240.416 0 0)
(241.325 0 0)
(242.226 0 0)
(243.122 0 0)
(243.999 0 0)
(244.906 0 0)
(245.69 0 0)
(246.819 0 0)
(154.526 0 0)
(156.079 0 0)
(157.619 0 0)
(159.148 0 0)
(160.666 0 0)
(162.171 0 0)
(163.666 0 0)
(165.148 0 0)
(166.619 0 0)
(168.079 0 0)
(169.527 0 0)
(170.964 0 0)
(172.39 0 0)
(173.805 0 0)
(175.208 0 0)
(176.601 0 0)
(177.982 0 0)
(179.353 0 0)
(180.714 0 0)
(182.063 0 0)
(183.402 0 0)
(184.731 0 0)
(186.049 0 0)
(187.357 0 0)
(188.655 0 0)
(189.943 0 0)
(191.221 0 0)
(192.489 0 0)
(193.747 0 0)
(194.995 0 0)
(196.234 0 0)
(197.463 0 0)
(198.682 0 0)
(199.893 0 0)
(201.094 0 0)
(202.285 0 0)
(203.467 0 0)
(204.641 0 0)
(205.805 0 0)
(206.96 0 0)
(208.106 0 0)
(209.244 0 0)
(210.372 0 0)
(211.492 0 0)
(212.603 0 0)
(213.706 0 0)
(214.8 0 0)
(215.885 0 0)
(216.963 0 0)
(218.031 0 0)
(219.091 0 0)
(220.143 0 0)
(221.187 0 0)
(222.223 0 0)
(223.25 0 0)
(224.27 0 0)
(225.281 0 0)
(226.284 0 0)
(227.279 0 0)
(228.267 0 0)
(229.246 0 0)
(230.218 0 0)
(231.182 0 0)
(232.138 0 0)
(233.086 0 0)
(234.027 0 0)
(234.96 0 0)
(235.886 0 0)
(236.804 0 0)
(237.715 0 0)
(238.618 0 0)
(239.513 0 0)
(240.402 0 0)
(241.281 0 0)
(242.158 0 0)
(243.015 0 0)
(243.901 0 0)
(244.669 0 0)
(245.772 0 0)
(156.321 0 0)
(157.811 0 0)
(159.291 0 0)
(160.759 0 0)
(162.217 0 0)
(163.664 0 0)
(165.1 0 0)
(166.526 0 0)
(167.941 0 0)
(169.346 0 0)
(170.74 0 0)
(172.124 0 0)
(173.497 0 0)
(174.86 0 0)
(176.213 0 0)
(177.556 0 0)
(178.889 0 0)
(180.211 0 0)
(181.524 0 0)
(182.827 0 0)
(184.12 0 0)
(185.404 0 0)
(186.678 0 0)
(187.942 0 0)
(189.197 0 0)
(190.443 0 0)
(191.679 0 0)
(192.906 0 0)
(194.124 0 0)
(195.332 0 0)
(196.532 0 0)
(197.723 0 0)
(198.904 0 0)
(200.077 0 0)
(201.242 0 0)
(202.397 0 0)
(203.544 0 0)
(204.682 0 0)
(205.812 0 0)
(206.933 0 0)
(208.046 0 0)
(209.151 0 0)
(210.247 0 0)
(211.335 0 0)
(212.414 0 0)
(213.486 0 0)
(214.549 0 0)
(215.605 0 0)
(216.652 0 0)
(217.692 0 0)
(218.723 0 0)
(219.747 0 0)
(220.763 0 0)
(221.771 0 0)
(222.771 0 0)
(223.764 0 0)
(224.749 0 0)
(225.726 0 0)
(226.696 0 0)
(227.658 0 0)
(228.613 0 0)
(229.56 0 0)
(230.5 0 0)
(231.432 0 0)
(232.358 0 0)
(233.275 0 0)
(234.186 0 0)
(235.089 0 0)
(235.985 0 0)
(236.874 0 0)
(237.756 0 0)
(238.63 0 0)
(239.498 0 0)
(240.358 0 0)
(241.214 0 0)
(242.052 0 0)
(242.918 0 0)
(243.669 0 0)
(244.747 0 0)
(158.046 0 0)
(159.477 0 0)
(160.897 0 0)
(162.308 0 0)
(163.709 0 0)
(165.1 0 0)
(166.481 0 0)
(167.852 0 0)
(169.214 0 0)
(170.566 0 0)
(171.908 0 0)
(173.241 0 0)
(174.564 0 0)
(175.878 0 0)
(177.182 0 0)
(178.477 0 0)
(179.763 0 0)
(181.039 0 0)
(182.307 0 0)
(183.565 0 0)
(184.814 0 0)
(186.054 0 0)
(187.285 0 0)
(188.508 0 0)
(189.721 0 0)
(190.926 0 0)
(192.122 0 0)
(193.309 0 0)
(194.488 0 0)
(195.659 0 0)
(196.821 0 0)
(197.974 0 0)
(199.12 0 0)
(200.256 0 0)
(201.385 0 0)
(202.506 0 0)
(203.618 0 0)
(204.722 0 0)
(205.819 0 0)
(206.907 0 0)
(207.988 0 0)
(209.06 0 0)
(210.125 0 0)
(211.182 0 0)
(212.231 0 0)
(213.272 0 0)
(214.306 0 0)
(215.332 0 0)
(216.351 0 0)
(217.362 0 0)
(218.365 0 0)
(219.361 0 0)
(220.35 0 0)
(221.331 0 0)
(222.305 0 0)
(223.271 0 0)
(224.231 0 0)
(225.183 0 0)
(226.127 0 0)
(227.065 0 0)
(227.995 0 0)
(228.919 0 0)
(229.835 0 0)
(230.744 0 0)
(231.646 0 0)
(232.542 0 0)
(233.43 0 0)
(234.311 0 0)
(235.186 0 0)
(236.053 0 0)
(236.914 0 0)
(237.768 0 0)
(238.615 0 0)
(239.455 0 0)
(240.291 0 0)
(241.11 0 0)
(241.956 0 0)
(242.691 0 0)
(243.743 0 0)
(159.704 0 0)
(161.077 0 0)
(162.442 0 0)
(163.797 0 0)
(165.144 0 0)
(166.481 0 0)
(167.81 0 0)
(169.129 0 0)
(170.44 0 0)
(171.741 0 0)
(173.034 0 0)
(174.318 0 0)
(175.593 0 0)
(176.859 0 0)
(178.117 0 0)
(179.366 0 0)
(180.607 0 0)
(181.839 0 0)
(183.062 0 0)
(184.277 0 0)
(185.484 0 0)
(186.682 0 0)
(187.872 0 0)
(189.054 0 0)
(190.228 0 0)
(191.393 0 0)
(192.551 0 0)
(193.7 0 0)
(194.841 0 0)
(195.975 0 0)
(197.1 0 0)
(198.218 0 0)
(199.328 0 0)
(200.43 0 0)
(201.524 0 0)
(202.611 0 0)
(203.69 0 0)
(204.762 0 0)
(205.826 0 0)
(206.882 0 0)
(207.931 0 0)
(208.972 0 0)
(210.006 0 0)
(211.033 0 0)
(212.052 0 0)
(213.065 0 0)
(214.069 0 0)
(215.067 0 0)
(216.057 0 0)
(217.041 0 0)
(218.017 0 0)
(218.986 0 0)
(219.948 0 0)
(220.903 0 0)
(221.851 0 0)
(222.792 0 0)
(223.726 0 0)
(224.653 0 0)
(225.574 0 0)
(226.487 0 0)
(227.394 0 0)
(228.294 0 0)
(229.187 0 0)
(230.073 0 0)
(230.953 0 0)
(231.826 0 0)
(232.692 0 0)
(233.552 0 0)
(234.405 0 0)
(235.252 0 0)
(236.092 0 0)
(236.925 0 0)
(237.753 0 0)
(238.572 0 0)
(239.389 0 0)
(240.189 0 0)
(241.015 0 0)
(241.733 0 0)
(242.76 0 0)
(161.297 0 0)
(162.617 0 0)
(163.928 0 0)
(165.23 0 0)
(166.525 0 0)
(167.811 0 0)
(169.089 0 0)
(170.359 0 0)
(171.62 0 0)
(172.874 0 0)
(174.119 0 0)
(175.356 0 0)
(176.585 0 0)
(177.806 0 0)
(179.019 0 0)
(180.224 0 0)
(181.421 0 0)
(182.611 0 0)
(183.792 0 0)
(184.966 0 0)
(186.131 0 0)
(187.29 0 0)
(188.44 0 0)
(189.583 0 0)
(190.718 0 0)
(191.846 0 0)
(192.966 0 0)
(194.078 0 0)
(195.183 0 0)
(196.281 0 0)
(197.371 0 0)
(198.454 0 0)
(199.53 0 0)
(200.598 0 0)
(201.659 0 0)
(202.713 0 0)
(203.76 0 0)
(204.8 0 0)
(205.832 0 0)
(206.858 0 0)
(207.876 0 0)
(208.887 0 0)
(209.892 0 0)
(210.889 0 0)
(211.879 0 0)
(212.863 0 0)
(213.84 0 0)
(214.81 0 0)
(215.773 0 0)
(216.729 0 0)
(217.678 0 0)
(218.621 0 0)
(219.557 0 0)
(220.487 0 0)
(221.409 0 0)
(222.325 0 0)
(223.235 0 0)
(224.138 0 0)
(225.034 0 0)
(225.924 0 0)
(226.807 0 0)
(227.684 0 0)
(228.555 0 0)
(229.419 0 0)
(230.276 0 0)
(231.128 0 0)
(231.972 0 0)
(232.811 0 0)
(233.643 0 0)
(234.469 0 0)
(235.289 0 0)
(236.102 0 0)
(236.91 0 0)
(237.71 0 0)
(238.507 0 0)
(239.288 0 0)
(240.095 0 0)
(240.797 0 0)
(241.799 0 0)
(162.829 0 0)
(164.097 0 0)
(165.357 0 0)
(166.609 0 0)
(167.854 0 0)
(169.091 0 0)
(170.321 0 0)
(171.543 0 0)
(172.757 0 0)
(173.965 0 0)
(175.164 0 0)
(176.357 0 0)
(177.542 0 0)
(178.719 0 0)
(179.889 0 0)
(181.052 0 0)
(182.208 0 0)
(183.356 0 0)
(184.497 0 0)
(185.63 0 0)
(186.757 0 0)
(187.876 0 0)
(188.989 0 0)
(190.094 0 0)
(191.192 0 0)
(192.283 0 0)
(193.367 0 0)
(194.444 0 0)
(195.514 0 0)
(196.577 0 0)
(197.634 0 0)
(198.683 0 0)
(199.726 0 0)
(200.761 0 0)
(201.79 0 0)
(202.812 0 0)
(203.828 0 0)
(204.837 0 0)
(205.839 0 0)
(206.834 0 0)
(207.823 0 0)
(208.805 0 0)
(209.78 0 0)
(210.749 0 0)
(211.711 0 0)
(212.667 0 0)
(213.616 0 0)
(214.559 0 0)
(215.496 0 0)
(216.426 0 0)
(217.349 0 0)
(218.266 0 0)
(219.177 0 0)
(220.081 0 0)
(220.98 0 0)
(221.871 0 0)
(222.757 0 0)
(223.636 0 0)
(224.509 0 0)
(225.376 0 0)
(226.236 0 0)
(227.091 0 0)
(227.939 0 0)
(228.781 0 0)
(229.617 0 0)
(230.447 0 0)
(231.27 0 0)
(232.088 0 0)
(232.9 0 0)
(233.705 0 0)
(234.505 0 0)
(235.299 0 0)
(236.087 0 0)
(236.868 0 0)
(237.646 0 0)
(238.408 0 0)
(239.196 0 0)
(239.882 0 0)
(240.859 0 0)
(164.303 0 0)
(165.521 0 0)
(166.732 0 0)
(167.936 0 0)
(169.133 0 0)
(170.324 0 0)
(171.507 0 0)
(172.684 0 0)
(173.854 0 0)
(175.016 0 0)
(176.173 0 0)
(177.322 0 0)
(178.464 0 0)
(179.6 0 0)
(180.729 0 0)
(181.851 0 0)
(182.967 0 0)
(184.075 0 0)
(185.178 0 0)
(186.273 0 0)
(187.362 0 0)
(188.444 0 0)
(189.519 0 0)
(190.588 0 0)
(191.651 0 0)
(192.706 0 0)
(193.756 0 0)
(194.799 0 0)
(195.835 0 0)
(196.865 0 0)
(197.888 0 0)
(198.905 0 0)
(199.915 0 0)
(200.92 0 0)
(201.917 0 0)
(202.909 0 0)
(203.894 0 0)
(204.872 0 0)
(205.845 0 0)
(206.811 0 0)
(207.771 0 0)
(208.725 0 0)
(209.672 0 0)
(210.613 0 0)
(211.548 0 0)
(212.477 0 0)
(213.4 0 0)
(214.316 0 0)
(215.227 0 0)
(216.131 0 0)
(217.029 0 0)
(217.921 0 0)
(218.807 0 0)
(219.687 0 0)
(220.561 0 0)
(221.429 0 0)
(222.291 0 0)
(223.147 0 0)
(223.997 0 0)
(224.842 0 0)
(225.68 0 0)
(226.512 0 0)
(227.339 0 0)
(228.159 0 0)
(228.974 0 0)
(229.783 0 0)
(230.586 0 0)
(231.383 0 0)
(232.174 0 0)
(232.96 0 0)
(233.74 0 0)
(234.514 0 0)
(235.283 0 0)
(236.045 0 0)
(236.804 0 0)
(237.548 0 0)
(238.317 0 0)
(238.987 0 0)
(239.94 0 0)
(165.721 0 0)
(166.891 0 0)
(168.056 0 0)
(169.214 0 0)
(170.365 0 0)
(171.511 0 0)
(172.65 0 0)
(173.783 0 0)
(174.91 0 0)
(176.03 0 0)
(177.145 0 0)
(178.253 0 0)
(179.355 0 0)
(180.45 0 0)
(181.54 0 0)
(182.623 0 0)
(183.7 0 0)
(184.771 0 0)
(185.835 0 0)
(186.894 0 0)
(187.946 0 0)
(188.992 0 0)
(190.032 0 0)
(191.066 0 0)
(192.094 0 0)
(193.116 0 0)
(194.132 0 0)
(195.141 0 0)
(196.145 0 0)
(197.143 0 0)
(198.134 0 0)
(199.12 0 0)
(200.099 0 0)
(201.073 0 0)
(202.04 0 0)
(203.002 0 0)
(203.958 0 0)
(204.907 0 0)
(205.851 0 0)
(206.789 0 0)
(207.721 0 0)
(208.647 0 0)
(209.567 0 0)
(210.481 0 0)
(211.39 0 0)
(212.292 0 0)
(213.189 0 0)
(214.08 0 0)
(214.965 0 0)
(215.845 0 0)
(216.718 0 0)
(217.586 0 0)
(218.448 0 0)
(219.304 0 0)
(220.155 0 0)
(220.999 0 0)
(221.838 0 0)
(222.672 0 0)
(223.5 0 0)
(224.322 0 0)
(225.138 0 0)
(225.949 0 0)
(226.754 0 0)
(227.553 0 0)
(228.347 0 0)
(229.135 0 0)
(229.918 0 0)
(230.695 0 0)
(231.467 0 0)
(232.233 0 0)
(232.993 0 0)
(233.748 0 0)
(234.498 0 0)
(235.241 0 0)
(235.982 0 0)
(236.708 0 0)
(237.458 0 0)
(238.112 0 0)
(239.041 0 0)
(167.085 0 0)
(168.21 0 0)
(169.33 0 0)
(170.444 0 0)
(171.552 0 0)
(172.655 0 0)
(173.752 0 0)
(174.843 0 0)
(175.928 0 0)
(177.008 0 0)
(178.082 0 0)
(179.151 0 0)
(180.214 0 0)
(181.271 0 0)
(182.322 0 0)
(183.368 0 0)
(184.408 0 0)
(185.442 0 0)
(186.471 0 0)
(187.494 0 0)
(188.511 0 0)
(189.523 0 0)
(190.529 0 0)
(191.529 0 0)
(192.524 0 0)
(193.513 0 0)
(194.496 0 0)
(195.474 0 0)
(196.446 0 0)
(197.412 0 0)
(198.373 0 0)
(199.328 0 0)
(200.277 0 0)
(201.221 0 0)
(202.16 0 0)
(203.092 0 0)
(204.02 0 0)
(204.941 0 0)
(205.857 0 0)
(206.768 0 0)
(207.672 0 0)
(208.572 0 0)
(209.465 0 0)
(210.353 0 0)
(211.236 0 0)
(212.113 0 0)
(212.985 0 0)
(213.851 0 0)
(214.711 0 0)
(215.566 0 0)
(216.416 0 0)
(217.26 0 0)
(218.098 0 0)
(218.931 0 0)
(219.759 0 0)
(220.581 0 0)
(221.398 0 0)
(222.209 0 0)
(223.015 0 0)
(223.815 0 0)
(224.61 0 0)
(225.4 0 0)
(226.184 0 0)
(226.963 0 0)
(227.736 0 0)
(228.504 0 0)
(229.267 0 0)
(230.024 0 0)
(230.776 0 0)
(231.523 0 0)
(232.265 0 0)
(233.001 0 0)
(233.732 0 0)
(234.457 0 0)
(235.179 0 0)
(235.888 0 0)
(236.619 0 0)
(237.258 0 0)
(238.163 0 0)
(168.398 0 0)
(169.48 0 0)
(170.557 0 0)
(171.629 0 0)
(172.695 0 0)
(173.757 0 0)
(174.813 0 0)
(175.864 0 0)
(176.91 0 0)
(177.951 0 0)
(178.987 0 0)
(180.017 0 0)
(181.043 0 0)
(182.063 0 0)
(183.078 0 0)
(184.087 0 0)
(185.092 0 0)
(186.091 0 0)
(187.085 0 0)
(188.074 0 0)
(189.057 0 0)
(190.036 0 0)
(191.009 0 0)
(191.976 0 0)
(192.939 0 0)
(193.896 0 0)
(194.848 0 0)
(195.795 0 0)
(196.737 0 0)
(197.673 0 0)
(198.604 0 0)
(199.53 0 0)
(200.45 0 0)
(201.366 0 0)
(202.276 0 0)
(203.18 0 0)
(204.08 0 0)
(204.974 0 0)
(205.863 0 0)
(206.747 0 0)
(207.625 0 0)
(208.499 0 0)
(209.367 0 0)
(210.229 0 0)
(211.087 0 0)
(211.939 0 0)
(212.786 0 0)
(213.628 0 0)
(214.464 0 0)
(215.296 0 0)
(216.122 0 0)
(216.943 0 0)
(217.758 0 0)
(218.569 0 0)
(219.374 0 0)
(220.174 0 0)
(220.969 0 0)
(221.758 0 0)
(222.543 0 0)
(223.322 0 0)
(224.096 0 0)
(224.865 0 0)
(225.629 0 0)
(226.387 0 0)
(227.141 0 0)
(227.889 0 0)
(228.632 0 0)
(229.37 0 0)
(230.103 0 0)
(230.831 0 0)
(231.554 0 0)
(232.271 0 0)
(232.984 0 0)
(233.691 0 0)
(234.396 0 0)
(235.086 0 0)
(235.799 0 0)
(236.423 0 0)
(237.305 0 0)
(169.662 0 0)
(170.703 0 0)
(171.739 0 0)
(172.77 0 0)
(173.797 0 0)
(174.819 0 0)
(175.836 0 0)
(176.849 0 0)
(177.857 0 0)
(178.861 0 0)
(179.86 0 0)
(180.854 0 0)
(181.843 0 0)
(182.827 0 0)
(183.807 0 0)
(184.782 0 0)
(185.752 0 0)
(186.718 0 0)
(187.679 0 0)
(188.634 0 0)
(189.585 0 0)
(190.531 0 0)
(191.473 0 0)
(192.409 0 0)
(193.341 0 0)
(194.268 0 0)
(195.189 0 0)
(196.106 0 0)
(197.018 0 0)
(197.926 0 0)
(198.828 0 0)
(199.725 0 0)
(200.618 0 0)
(201.505 0 0)
(202.388 0 0)
(203.265 0 0)
(204.138 0 0)
(205.006 0 0)
(205.869 0 0)
(206.727 0 0)
(207.58 0 0)
(208.428 0 0)
(209.271 0 0)
(210.109 0 0)
(210.942 0 0)
(211.77 0 0)
(212.593 0 0)
(213.411 0 0)
(214.225 0 0)
(215.033 0 0)
(215.836 0 0)
(216.634 0 0)
(217.428 0 0)
(218.216 0 0)
(219 0 0)
(219.778 0 0)
(220.551 0 0)
(221.32 0 0)
(222.084 0 0)
(222.842 0 0)
(223.596 0 0)
(224.344 0 0)
(225.088 0 0)
(225.827 0 0)
(226.561 0 0)
(227.29 0 0)
(228.014 0 0)
(228.733 0 0)
(229.447 0 0)
(230.156 0 0)
(230.861 0 0)
(231.56 0 0)
(232.255 0 0)
(232.944 0 0)
(233.631 0 0)
(234.304 0 0)
(234.999 0 0)
(235.608 0 0)
(236.466 0 0)
(170.879 0 0)
(171.881 0 0)
(172.877 0 0)
(173.87 0 0)
(174.859 0 0)
(175.843 0 0)
(176.823 0 0)
(177.799 0 0)
(178.771 0 0)
(179.739 0 0)
(180.702 0 0)
(181.661 0 0)
(182.616 0 0)
(183.566 0 0)
(184.512 0 0)
(185.454 0 0)
(186.391 0 0)
(187.324 0 0)
(188.252 0 0)
(189.176 0 0)
(190.096 0 0)
(191.011 0 0)
(191.922 0 0)
(192.828 0 0)
(193.73 0 0)
(194.627 0 0)
(195.52 0 0)
(196.408 0 0)
(197.291 0 0)
(198.17 0 0)
(199.045 0 0)
(199.915 0 0)
(200.78 0 0)
(201.641 0 0)
(202.497 0 0)
(203.348 0 0)
(204.195 0 0)
(205.037 0 0)
(205.874 0 0)
(206.707 0 0)