/*--------------------------------*- C++ -*----------------------------------*\
| =========                 |                                                 |
| \\      /  F ield         | OpenFOAM: The Open Source CFD Toolbox           |
|  \\    /   O peration     | Version:  2312                                  |
|   \\  /    A nd           | Website:  www.openfoam.com                      |
|    \\/     M anipulation  |                                                 |
\*---------------------------------------------------------------------------*/
FoamFile
{
    version     2.0;
    format      ascii;
    arch        "LSB;label=32;scalar=64";
    class       volScalarField;
    location    "2.35";
    object      wave;
}
// * * * * * * * * * * * * * * * * * * * * * * * * * * * * * * * * * * * * * //

dimensions      [0 0 0 0 0 0 0];

internalField   nonuniform List<scalar> 
100
(
0.653546
0.525747
0.384741
0.234069
0.0775165
-0.0809832
-0.237448
-0.387948
-0.528702
-0.656174
-0.767161
-0.858875
-0.929013
-0.975811
-0.998095
-0.995305
-0.967511
-0.91541
-0.840312
-0.744104
-0.629202
-0.498493
-0.355261
-0.203104
-0.0458451
0.112566
0.268149
0.416996
0.555367
0.679786
0.787127
0.874693
0.940286
0.982256
0.99955
0.991733
0.959002
0.902178
0.822689
0.722533
0.604225
0.470738
0.325424
0.171936
0.0141275
-0.144036
-0.29858
-0.445624
-0.581472
-0.702713
-0.8063
-0.889631
-0.950612
-0.987712
-0.999998
-0.987163
-0.949527
-0.888037
-0.804238
-0.700235
-0.57864
-0.442508
-0.29526
-0.140594
0.0176044
0.17536
0.32871
0.473803
0.606992
0.724933
0.824661
0.903672
0.959981
0.992173
0.99944
0.981598
0.939097
0.873003
0.784977
0.677231
0.552472
0.413833
0.264798
0.10911
-0.0493185
-0.206508
-0.35851
-0.501505
-0.631901
-0.746423
-0.842192
-0.916804
-0.968384
-0.995636
-0.997875
-0.975045
-0.92772
-0.857089
-0.764926
-0.653546
)
;

boundaryField
{
    movingWall
    {
        type            calculated;
        value           uniform 0;
    }
    fixedWalls
    {
        type            calculated;
        value           uniform 0;
    }
    frontAndBack
    {
        type            empty;
    }
}


// ************************************************************************* //
