/*--------------------------------*- C++ -*----------------------------------*\
| =========                 |                                                 |
| \\      /  F ield         | OpenFOAM: The Open Source CFD Toolbox           |
|  \\    /   O peration     | Version:  2312                                  |
|   \\  /    A nd           | Website:  www.openfoam.com                      |
|    \\/     M anipulation  |                                                 |
\*---------------------------------------------------------------------------*/
FoamFile
{
    version     2.0;
    format      ascii;
    arch        "LSB;label=32;scalar=64";
    class       volVectorField;
    location    "0.696";
    object      U;
}
// * * * * * * * * * * * * * * * * * * * * * * * * * * * * * * * * * * * * * //

dimensions      [0 1 -1 0 0 0 0];

internalField   nonuniform List<vector> 
31205
(
(278.989 0 0)
(277.669 0 0)
(276.301 0 0)
(274.883 0 0)
(273.413 0 0)
(271.891 0 0)
(270.312 0 0)
(268.677 0 0)
(266.982 0 0)
(265.225 0 0)
(263.403 0 0)
(261.514 0 0)
(259.554 0 0)
(257.519 0 0)
(255.405 0 0)
(253.207 0 0)
(250.921 0 0)
(248.541 0 0)
(246.06 0 0)
(243.47 0 0)
(240.763 0 0)
(237.928 0 0)
(234.953 0 0)
(231.826 0 0)
(228.527 0 0)
(225.038 0 0)
(221.331 0 0)
(217.376 0 0)
(213.131 0 0)
(208.538 0 0)
(203.525 0 0)
(197.99 0 0)
(191.754 0 0)
(184.447 0 0)
(175.446 0 0)
(164.194 0 0)
(151.011 0 0)
(137.523 0 0)
(125.794 0 0)
(117.005 0 0)
(111.128 0 0)
(107.503 0 0)
(105.413 0 0)
(104.318 0 0)
(103.864 0 0)
(103.829 0 0)
(104.078 0 0)
(104.525 0 0)
(105.115 0 0)
(105.812 0 0)
(106.591 0 0)
(107.433 0 0)
(108.325 0 0)
(109.257 0 0)
(110.223 0 0)
(111.216 0 0)
(112.231 0 0)
(113.265 0 0)
(114.314 0 0)
(115.377 0 0)
(116.45 0 0)
(117.533 0 0)
(118.623 0 0)
(119.72 0 0)
(120.822 0 0)
(121.929 0 0)
(123.039 0 0)
(124.152 0 0)
(125.267 0 0)
(126.384 0 0)
(127.502 0 0)
(128.62 0 0)
(129.74 0 0)
(130.858 0 0)
(131.981 0 0)
(133.086 0 0)
(134.245 0 0)
(135.236 0 0)
(136.735 0 0)
(277.796 0 0)
(276.47 0 0)
(275.096 0 0)
(273.674 0 0)
(272.202 0 0)
(270.677 0 0)
(269.099 0 0)
(267.464 0 0)
(265.771 0 0)
(264.018 0 0)
(262.201 0 0)
(260.318 0 0)
(258.365 0 0)
(256.339 0 0)
(254.235 0 0)
(252.05 0 0)
(249.777 0 0)
(247.412 0 0)
(244.948 0 0)
(242.377 0 0)
(239.69 0 0)
(236.879 0 0)
(233.93 0 0)
(230.83 0 0)
(227.562 0 0)
(224.106 0 0)
(220.437 0 0)
(216.523 0 0)
(212.324 0 0)
(207.783 0 0)
(202.829 0 0)
(197.361 0 0)
(191.205 0 0)
(184.001 0 0)
(175.145 0 0)
(164.093 0 0)
(151.128 0 0)
(137.801 0 0)
(126.129 0 0)
(117.307 0 0)
(111.355 0 0)
(107.646 0 0)
(105.48 0 0)
(104.32 0 0)
(103.807 0 0)
(103.721 0 0)
(103.923 0 0)
(104.326 0 0)
(104.875 0 0)
(105.531 0 0)
(106.271 0 0)
(107.075 0 0)
(107.93 0 0)
(108.827 0 0)
(109.757 0 0)
(110.715 0 0)
(111.695 0 0)
(112.695 0 0)
(113.711 0 0)
(114.74 0 0)
(115.781 0 0)
(116.831 0 0)
(117.889 0 0)
(118.954 0 0)
(120.024 0 0)
(121.099 0 0)
(122.178 0 0)
(123.26 0 0)
(124.344 0 0)
(125.43 0 0)
(126.517 0 0)
(127.606 0 0)
(128.695 0 0)
(129.783 0 0)
(130.876 0 0)
(131.952 0 0)
(133.079 0 0)
(134.046 0 0)
(135.499 0 0)
(276.534 0 0)
(275.202 0 0)
(273.823 0 0)
(272.397 0 0)
(270.921 0 0)
(269.394 0 0)
(267.815 0 0)
(266.181 0 0)
(264.49 0 0)
(262.739 0 0)
(260.926 0 0)
(259.048 0 0)
(257.101 0 0)
(255.083 0 0)
(252.988 0 0)
(250.813 0 0)
(248.552 0 0)
(246.2 0 0)
(243.751 0 0)
(241.196 0 0)
(238.528 0 0)
(235.736 0 0)
(232.808 0 0)
(229.732 0 0)
(226.491 0 0)
(223.063 0 0)
(219.426 0 0)
(215.546 0 0)
(211.384 0 0)
(206.885 0 0)
(201.978 0 0)
(196.563 0 0)
(190.464 0 0)
(183.329 0 0)
(174.571 0 0)
(163.667 0 0)
(150.899 0 0)
(137.764 0 0)
(126.219 0 0)
(117.446 0 0)
(111.484 0 0)
(107.738 0 0)
(105.525 0 0)
(104.316 0 0)
(103.757 0 0)
(103.627 0 0)
(103.786 0 0)
(104.149 0 0)
(104.658 0 0)
(105.277 0 0)
(105.98 0 0)
(106.748 0 0)
(107.567 0 0)
(108.429 0 0)
(109.325 0 0)
(110.248 0 0)
(111.196 0 0)
(112.162 0 0)
(113.145 0 0)
(114.142 0 0)
(115.151 0 0)
(116.169 0 0)
(117.196 0 0)
(118.229 0 0)
(119.269 0 0)
(120.313 0 0)
(121.361 0 0)
(122.413 0 0)
(123.467 0 0)
(124.523 0 0)
(125.581 0 0)
(126.639 0 0)
(127.699 0 0)
(128.758 0 0)
(129.822 0 0)
(130.869 0 0)
(131.965 0 0)
(132.91 0 0)
(134.316 0 0)
(275.239 0 0)
(273.9 0 0)
(272.517 0 0)
(271.086 0 0)
(269.608 0 0)
(268.079 0 0)
(266.499 0 0)
(264.865 0 0)
(263.175 0 0)
(261.426 0 0)
(259.617 0 0)
(257.743 0 0)
(255.802 0 0)
(253.791 0 0)
(251.704 0 0)
(249.538 0 0)
(247.288 0 0)
(244.948 0 0)
(242.511 0 0)
(239.971 0 0)
(237.318 0 0)
(234.544 0 0)
(231.635 0 0)
(228.58 0 0)
(225.361 0 0)
(221.958 0 0)
(218.347 0 0)
(214.496 0 0)
(210.365 0 0)
(205.9 0 0)
(201.03 0 0)
(195.653 0 0)
(189.595 0 0)
(182.501 0 0)
(173.8 0 0)
(163 0 0)
(150.401 0 0)
(137.472 0 0)
(126.106 0 0)
(117.443 0 0)
(111.526 0 0)
(107.781 0 0)
(105.546 0 0)
(104.306 0 0)
(103.712 0 0)
(103.544 0 0)
(103.667 0 0)
(103.993 0 0)
(104.467 0 0)
(105.05 0 0)
(105.718 0 0)
(106.451 0 0)
(107.237 0 0)
(108.065 0 0)
(108.928 0 0)
(109.819 0 0)
(110.733 0 0)
(111.668 0 0)
(112.62 0 0)
(113.585 0 0)
(114.562 0 0)
(115.55 0 0)
(116.546 0 0)
(117.549 0 0)
(118.558 0 0)
(119.572 0 0)
(120.591 0 0)
(121.613 0 0)
(122.638 0 0)
(123.665 0 0)
(124.693 0 0)
(125.723 0 0)
(126.754 0 0)
(127.784 0 0)
(128.82 0 0)
(129.839 0 0)
(130.906 0 0)
(131.827 0 0)
(133.191 0 0)
(273.929 0 0)
(272.585 0 0)
(271.197 0 0)
(269.763 0 0)
(268.282 0 0)
(266.753 0 0)
(265.172 0 0)
(263.538 0 0)
(261.85 0 0)
(260.104 0 0)
(258.298 0 0)
(256.428 0 0)
(254.493 0 0)
(252.488 0 0)
(250.409 0 0)
(248.252 0 0)
(246.012 0 0)
(243.682 0 0)
(241.258 0 0)
(238.731 0 0)
(236.094 0 0)
(233.335 0 0)
(230.445 0 0)
(227.408 0 0)
(224.21 0 0)
(220.829 0 0)
(217.242 0 0)
(213.417 0 0)
(209.314 0 0)
(204.878 0 0)
(200.039 0 0)
(194.695 0 0)
(188.667 0 0)
(181.6 0 0)
(172.935 0 0)
(162.215 0 0)
(149.771 0 0)
(137.051 0 0)
(125.886 0 0)
(117.363 0 0)
(111.517 0 0)
(107.794 0 0)
(105.553 0 0)
(104.291 0 0)
(103.668 0 0)
(103.469 0 0)
(103.559 0 0)
(103.851 0 0)
(104.291 0 0)
(104.841 0 0)
(105.475 0 0)
(106.176 0 0)
(106.929 0 0)
(107.725 0 0)
(108.555 0 0)
(109.415 0 0)
(110.298 0 0)
(111.202 0 0)
(112.123 0 0)
(113.057 0 0)
(114.005 0 0)
(114.962 0 0)
(115.928 0 0)
(116.902 0 0)
(117.882 0 0)
(118.867 0 0)
(119.856 0 0)
(120.849 0 0)
(121.845 0 0)
(122.844 0 0)
(123.844 0 0)
(124.846 0 0)
(125.849 0 0)
(126.851 0 0)
(127.858 0 0)
(128.851 0 0)
(129.888 0 0)
(130.786 0 0)
(132.11 0 0)
(272.614 0 0)
(271.265 0 0)
(269.874 0 0)
(268.438 0 0)
(266.955 0 0)
(265.424 0 0)
(263.844 0 0)
(262.211 0 0)
(260.525 0 0)
(258.782 0 0)
(256.98 0 0)
(255.115 0 0)
(253.186 0 0)
(251.187 0 0)
(249.116 0 0)
(246.968 0 0)
(244.737 0 0)
(242.419 0 0)
(240.007 0 0)
(237.494 0 0)
(234.871 0 0)
(232.128 0 0)
(229.254 0 0)
(226.236 0 0)
(223.058 0 0)
(219.698 0 0)
(216.134 0 0)
(212.333 0 0)
(208.255 0 0)
(203.847 0 0)
(199.037 0 0)
(193.722 0 0)
(187.718 0 0)
(180.671 0 0)
(172.033 0 0)
(161.383 0 0)
(149.086 0 0)
(136.576 0 0)
(125.618 0 0)
(117.247 0 0)
(111.485 0 0)
(107.794 0 0)
(105.554 0 0)
(104.275 0 0)
(103.627 0 0)
(103.399 0 0)
(103.458 0 0)
(103.719 0 0)
(104.127 0 0)
(104.645 0 0)
(105.247 0 0)
(105.916 0 0)
(106.638 0 0)
(107.402 0 0)
(108.202 0 0)
(109.031 0 0)
(109.884 0 0)
(110.757 0 0)
(111.648 0 0)
(112.553 0 0)
(113.47 0 0)
(114.399 0 0)
(115.336 0 0)
(116.28 0 0)
(117.232 0 0)
(118.188 0 0)
(119.149 0 0)
(120.114 0 0)
(121.083 0 0)
(122.053 0 0)
(123.026 0 0)
(124 0 0)
(124.975 0 0)
(125.95 0 0)
(126.93 0 0)
(127.896 0 0)
(128.905 0 0)
(129.78 0 0)
(131.066 0 0)
(271.297 0 0)
(269.946 0 0)
(268.552 0 0)
(267.114 0 0)
(265.63 0 0)
(264.1 0 0)
(262.52 0 0)
(260.889 0 0)
(259.206 0 0)
(257.466 0 0)
(255.668 0 0)
(253.809 0 0)
(251.886 0 0)
(249.894 0 0)
(247.831 0 0)
(245.692 0 0)
(243.472 0 0)
(241.165 0 0)
(238.765 0 0)
(236.265 0 0)
(233.656 0 0)
(230.929 0 0)
(228.072 0 0)
(225.072 0 0)
(221.913 0 0)
(218.575 0 0)
(215.032 0 0)
(211.255 0 0)
(207.202 0 0)
(202.82 0 0)
(198.037 0 0)
(192.748 0 0)
(186.767 0 0)
(179.736 0 0)
(171.121 0 0)
(160.538 0 0)
(148.385 0 0)
(136.083 0 0)
(125.334 0 0)
(117.117 0 0)
(111.443 0 0)
(107.788 0 0)
(105.552 0 0)
(104.26 0 0)
(103.59 0 0)
(103.335 0 0)
(103.364 0 0)
(103.595 0 0)
(103.972 0 0)
(104.459 0 0)
(105.03 0 0)
(105.668 0 0)
(106.36 0 0)
(107.094 0 0)
(107.863 0 0)
(108.662 0 0)
(109.486 0 0)
(110.33 0 0)
(111.191 0 0)
(112.068 0 0)
(112.957 0 0)
(113.856 0 0)
(114.765 0 0)
(115.682 0 0)
(116.605 0 0)
(117.534 0 0)
(118.467 0 0)
(119.405 0 0)
(120.345 0 0)
(121.289 0 0)
(122.234 0 0)
(123.181 0 0)
(124.13 0 0)
(125.078 0 0)
(126.032 0 0)
(126.971 0 0)
(127.953 0 0)
(128.805 0 0)
(130.054 0 0)
(269.982 0 0)
(268.628 0 0)
(267.232 0 0)
(265.794 0 0)
(264.31 0 0)
(262.781 0 0)
(261.203 0 0)
(259.574 0 0)
(257.894 0 0)
(256.158 0 0)
(254.365 0 0)
(252.512 0 0)
(250.596 0 0)
(248.612 0 0)
(246.557 0 0)
(244.428 0 0)
(242.218 0 0)
(239.922 0 0)
(237.535 0 0)
(235.048 0 0)
(232.454 0 0)
(229.742 0 0)
(226.902 0 0)
(223.92 0 0)
(220.78 0 0)
(217.462 0 0)
(213.942 0 0)
(210.187 0 0)
(206.159 0 0)
(201.802 0 0)
(197.045 0 0)
(191.782 0 0)
(185.821 0 0)
(178.804 0 0)
(170.211 0 0)
(159.694 0 0)
(147.685 0 0)
(135.589 0 0)
(125.046 0 0)
(116.984 0 0)
(111.398 0 0)
(107.781 0 0)
(105.551 0 0)
(104.247 0 0)
(103.556 0 0)
(103.275 0 0)
(103.277 0 0)
(103.478 0 0)
(103.825 0 0)
(104.282 0 0)
(104.824 0 0)
(105.432 0 0)
(106.094 0 0)
(106.799 0 0)
(107.539 0 0)
(108.309 0 0)
(109.104 0 0)
(109.919 0 0)
(110.752 0 0)
(111.6 0 0)
(112.461 0 0)
(113.333 0 0)
(114.214 0 0)
(115.103 0 0)
(115.999 0 0)
(116.901 0 0)
(117.808 0 0)
(118.718 0 0)
(119.632 0 0)
(120.549 0 0)
(121.468 0 0)
(122.389 0 0)
(123.312 0 0)
(124.234 0 0)
(125.161 0 0)
(126.075 0 0)
(127.029 0 0)
(127.859 0 0)
(129.073 0 0)
(268.668 0 0)
(267.313 0 0)
(265.917 0 0)
(264.478 0 0)
(262.996 0 0)
(261.468 0 0)
(259.892 0 0)
(258.267 0 0)
(256.591 0 0)
(254.86 0 0)
(253.073 0 0)
(251.226 0 0)
(249.316 0 0)
(247.341 0 0)
(245.295 0 0)
(243.175 0 0)
(240.976 0 0)
(238.692 0 0)
(236.317 0 0)
(233.844 0 0)
(231.264 0 0)
(228.568 0 0)
(225.745 0 0)
(222.781 0 0)
(219.66 0 0)
(216.362 0 0)
(212.863 0 0)
(209.132 0 0)
(205.127 0 0)
(200.795 0 0)
(196.063 0 0)
(190.824 0 0)
(184.883 0 0)
(177.879 0 0)
(169.307 0 0)
(158.857 0 0)
(146.992 0 0)
(135.1 0 0)
(124.761 0 0)
(116.85 0 0)
(111.353 0 0)
(107.774 0 0)
(105.551 0 0)
(104.237 0 0)
(103.526 0 0)
(103.221 0 0)
(103.195 0 0)
(103.368 0 0)
(103.687 0 0)
(104.115 0 0)
(104.628 0 0)
(105.207 0 0)
(105.84 0 0)
(106.516 0 0)
(107.228 0 0)
(107.97 0 0)
(108.736 0 0)
(109.524 0 0)
(110.329 0 0)
(111.15 0 0)
(111.984 0 0)
(112.828 0 0)
(113.682 0 0)
(114.545 0 0)
(115.414 0 0)
(116.289 0 0)
(117.17 0 0)
(118.054 0 0)
(118.942 0 0)
(119.833 0 0)
(120.727 0 0)
(121.622 0 0)
(122.519 0 0)
(123.415 0 0)
(124.317 0 0)
(125.206 0 0)
(126.134 0 0)
(126.942 0 0)
(128.12 0 0)
(267.358 0 0)
(266.002 0 0)
(264.607 0 0)
(263.169 0 0)
(261.688 0 0)
(260.163 0 0)
(258.59 0 0)
(256.969 0 0)
(255.297 0 0)
(253.571 0 0)
(251.79 0 0)
(249.95 0 0)
(248.048 0 0)
(246.081 0 0)
(244.044 0 0)
(241.934 0 0)
(239.746 0 0)
(237.474 0 0)
(235.112 0 0)
(232.652 0 0)
(230.087 0 0)
(227.407 0 0)
(224.601 0 0)
(221.655 0 0)
(218.553 0 0)
(215.275 0 0)
(211.797 0 0)
(208.088 0 0)
(204.107 0 0)
(199.799 0 0)
(195.092 0 0)
(189.876 0 0)
(183.953 0 0)
(176.961 0 0)
(168.411 0 0)
(158.029 0 0)
(146.308 0 0)
(134.617 0 0)
(124.479 0 0)
(116.719 0 0)
(111.309 0 0)
(107.769 0 0)
(105.553 0 0)
(104.23 0 0)
(103.5 0 0)
(103.171 0 0)
(103.12 0 0)
(103.266 0 0)
(103.556 0 0)
(103.957 0 0)
(104.441 0 0)
(104.992 0 0)
(105.597 0 0)
(106.245 0 0)
(106.93 0 0)
(107.644 0 0)
(108.383 0 0)
(109.143 0 0)
(109.922 0 0)
(110.716 0 0)
(111.523 0 0)
(112.341 0 0)
(113.169 0 0)
(114.006 0 0)
(114.849 0 0)
(115.698 0 0)
(116.553 0 0)
(117.412 0 0)
(118.275 0 0)
(119.14 0 0)
(120.008 0 0)
(120.878 0 0)
(121.75 0 0)
(122.622 0 0)
(123.499 0 0)
(124.364 0 0)
(125.266 0 0)
(126.053 0 0)
(127.197 0 0)
(266.052 0 0)
(264.697 0 0)
(263.302 0 0)
(261.866 0 0)
(260.388 0 0)
(258.865 0 0)
(257.296 0 0)
(255.679 0 0)
(254.012 0 0)
(252.292 0 0)
(250.518 0 0)
(248.685 0 0)
(246.791 0 0)
(244.833 0 0)
(242.806 0 0)
(240.706 0 0)
(238.529 0 0)
(236.269 0 0)
(233.92 0 0)
(231.474 0 0)
(228.924 0 0)
(226.26 0 0)
(223.47 0 0)
(220.542 0 0)
(217.459 0 0)
(214.201 0 0)
(210.744 0 0)
(207.057 0 0)
(203.098 0 0)
(198.814 0 0)
(194.132 0 0)
(188.938 0 0)
(183.032 0 0)
(176.051 0 0)
(167.523 0 0)
(157.21 0 0)
(145.634 0 0)
(134.143 0 0)
(124.202 0 0)
(116.589 0 0)
(111.266 0 0)
(107.765 0 0)
(105.558 0 0)
(104.226 0 0)
(103.478 0 0)
(103.127 0 0)
(103.051 0 0)
(103.17 0 0)
(103.434 0 0)
(103.807 0 0)
(104.264 0 0)
(104.788 0 0)
(105.365 0 0)
(105.986 0 0)
(106.644 0 0)
(107.331 0 0)
(108.044 0 0)
(108.778 0 0)
(109.53 0 0)
(110.298 0 0)
(111.079 0 0)
(111.872 0 0)
(112.674 0 0)
(113.485 0 0)
(114.303 0 0)
(115.127 0 0)
(115.957 0 0)
(116.791 0 0)
(117.629 0 0)
(118.47 0 0)
(119.313 0 0)
(120.159 0 0)
(121.007 0 0)
(121.854 0 0)
(122.706 0 0)
(123.548 0 0)
(124.425 0 0)
(125.191 0 0)
(126.301 0 0)
(264.751 0 0)
(263.397 0 0)
(262.004 0 0)
(260.57 0 0)
(259.095 0 0)
(257.576 0 0)
(256.011 0 0)
(254.399 0 0)
(252.738 0 0)
(251.024 0 0)
(249.256 0 0)
(247.431 0 0)
(245.546 0 0)
(243.596 0 0)
(241.579 0 0)
(239.49 0 0)
(237.325 0 0)
(235.077 0 0)
(232.741 0 0)
(230.309 0 0)
(227.774 0 0)
(225.125 0 0)
(222.352 0 0)
(219.442 0 0)
(216.377 0 0)
(213.14 0 0)
(209.703 0 0)
(206.038 0 0)
(202.102 0 0)
(197.841 0 0)
(193.181 0 0)
(188.009 0 0)
(182.118 0 0)
(175.148 0 0)
(166.643 0 0)
(156.4 0 0)
(144.968 0 0)
(133.675 0 0)
(123.928 0 0)
(116.46 0 0)
(111.223 0 0)
(107.761 0 0)
(105.564 0 0)
(104.224 0 0)
(103.461 0 0)
(103.088 0 0)
(102.987 0 0)
(103.081 0 0)
(103.318 0 0)
(103.665 0 0)
(104.095 0 0)
(104.593 0 0)
(105.144 0 0)
(105.739 0 0)
(106.37 0 0)
(107.031 0 0)
(107.718 0 0)
(108.426 0 0)
(109.153 0 0)
(109.895 0 0)
(110.651 0 0)
(111.419 0 0)
(112.196 0 0)
(112.982 0 0)
(113.776 0 0)
(114.576 0 0)
(115.381 0 0)
(116.191 0 0)
(117.004 0 0)
(117.821 0 0)
(118.641 0 0)
(119.462 0 0)
(120.286 0 0)
(121.11 0 0)
(121.939 0 0)
(122.757 0 0)
(123.61 0 0)
(124.355 0 0)
(125.433 0 0)
(263.455 0 0)
(262.103 0 0)
(260.712 0 0)
(259.282 0 0)
(257.81 0 0)
(256.295 0 0)
(254.735 0 0)
(253.129 0 0)
(251.473 0 0)
(249.767 0 0)
(248.006 0 0)
(246.189 0 0)
(244.312 0 0)
(242.372 0 0)
(240.365 0 0)
(238.287 0 0)
(236.133 0 0)
(233.898 0 0)
(231.575 0 0)
(229.157 0 0)
(226.637 0 0)
(224.004 0 0)
(221.248 0 0)
(218.355 0 0)
(215.309 0 0)
(212.09 0 0)
(208.675 0 0)
(205.03 0 0)
(201.116 0 0)
(196.878 0 0)
(192.241 0 0)
(187.089 0 0)
(181.212 0 0)
(174.252 0 0)
(165.77 0 0)
(155.599 0 0)
(144.311 0 0)
(133.213 0 0)
(123.658 0 0)
(116.333 0 0)
(111.182 0 0)
(107.759 0 0)
(105.572 0 0)
(104.226 0 0)
(103.446 0 0)
(103.053 0 0)
(102.929 0 0)
(102.998 0 0)
(103.21 0 0)
(103.531 0 0)
(103.936 0 0)
(104.407 0 0)
(104.933 0 0)
(105.502 0 0)
(106.107 0 0)
(106.743 0 0)
(107.405 0 0)
(108.088 0 0)
(108.79 0 0)
(109.508 0 0)
(110.239 0 0)
(110.982 0 0)
(111.736 0 0)
(112.497 0 0)
(113.267 0 0)
(114.043 0 0)
(114.824 0 0)
(115.61 0 0)
(116.4 0 0)
(117.194 0 0)
(117.99 0 0)
(118.789 0 0)
(119.589 0 0)
(120.39 0 0)
(121.195 0 0)
(121.991 0 0)
(122.82 0 0)
(123.546 0 0)
(124.592 0 0)
(262.166 0 0)
(260.816 0 0)
(259.429 0 0)
(258.002 0 0)
(256.534 0 0)
(255.024 0 0)
(253.469 0 0)
(251.869 0 0)
(250.22 0 0)
(248.52 0 0)
(246.767 0 0)
(244.958 0 0)
(243.091 0 0)
(241.16 0 0)
(239.164 0 0)
(237.097 0 0)
(234.954 0 0)
(232.731 0 0)
(230.422 0 0)
(228.018 0 0)
(225.512 0 0)
(222.896 0 0)
(220.156 0 0)
(217.28 0 0)
(214.253 0 0)
(211.054 0 0)
(207.658 0 0)
(204.035 0 0)
(200.142 0 0)
(195.926 0 0)
(191.311 0 0)
(186.178 0 0)
(180.314 0 0)
(173.363 0 0)
(164.904 0 0)
(154.806 0 0)
(143.663 0 0)
(132.759 0 0)
(123.392 0 0)
(116.208 0 0)
(111.14 0 0)
(107.758 0 0)
(105.582 0 0)
(104.23 0 0)
(103.435 0 0)
(103.022 0 0)
(102.876 0 0)
(102.921 0 0)
(103.109 0 0)
(103.405 0 0)
(103.785 0 0)
(104.231 0 0)
(104.731 0 0)
(105.276 0 0)
(105.856 0 0)
(106.468 0 0)
(107.105 0 0)
(107.764 0 0)
(108.441 0 0)
(109.135 0 0)
(109.843 0 0)
(110.562 0 0)
(111.291 0 0)
(112.03 0 0)
(112.776 0 0)
(113.528 0 0)
(114.287 0 0)
(115.05 0 0)
(115.817 0 0)
(116.587 0 0)
(117.361 0 0)
(118.137 0 0)
(118.915 0 0)
(119.693 0 0)
(120.476 0 0)
(121.249 0 0)
(122.055 0 0)
(122.761 0 0)
(123.776 0 0)
(260.884 0 0)
(259.537 0 0)
(258.153 0 0)
(256.731 0 0)
(255.268 0 0)
(253.763 0 0)
(252.214 0 0)
(250.619 0 0)
(248.977 0 0)
(247.285 0 0)
(245.54 0 0)
(243.74 0 0)
(241.881 0 0)
(239.961 0 0)
(237.975 0 0)
(235.919 0 0)
(233.788 0 0)
(231.578 0 0)
(229.282 0 0)
(226.892 0 0)
(224.401 0 0)
(221.8 0 0)
(219.077 0 0)
(216.219 0 0)
(213.21 0 0)
(210.029 0 0)
(206.654 0 0)
(203.051 0 0)
(199.179 0 0)
(194.985 0 0)
(190.39 0 0)
(185.275 0 0)
(179.423 0 0)
(172.481 0 0)
(164.046 0 0)
(154.022 0 0)
(143.023 0 0)
(132.31 0 0)
(123.129 0 0)
(116.083 0 0)
(111.1 0 0)
(107.757 0 0)
(105.592 0 0)
(104.236 0 0)
(103.428 0 0)
(102.996 0 0)
(102.828 0 0)
(102.851 0 0)
(103.015 0 0)
(103.286 0 0)
(103.642 0 0)
(104.064 0 0)
(104.54 0 0)
(105.06 0 0)
(105.617 0 0)
(106.204 0 0)
(106.817 0 0)
(107.452 0 0)
(108.106 0 0)
(108.777 0 0)
(109.461 0 0)
(110.157 0 0)
(110.863 0 0)
(111.579 0 0)
(112.302 0 0)
(113.032 0 0)
(113.768 0 0)
(114.508 0 0)
(115.253 0 0)
(116.001 0 0)
(116.752 0 0)
(117.506 0 0)
(118.262 0 0)
(119.018 0 0)
(119.779 0 0)
(120.531 0 0)
(121.314 0 0)
(122.002 0 0)
(122.986 0 0)
(259.61 0 0)
(258.267 0 0)
(256.887 0 0)
(255.469 0 0)
(254.011 0 0)
(252.512 0 0)
(250.969 0 0)
(249.381 0 0)
(247.746 0 0)
(246.062 0 0)
(244.325 0 0)
(242.534 0 0)
(240.685 0 0)
(238.774 0 0)
(236.799 0 0)
(234.754 0 0)
(232.636 0 0)
(230.438 0 0)
(228.155 0 0)
(225.78 0 0)
(223.304 0 0)
(220.718 0 0)
(218.011 0 0)
(215.17 0 0)
(212.179 0 0)
(209.018 0 0)
(205.661 0 0)
(202.078 0 0)
(198.228 0 0)
(194.054 0 0)
(189.479 0 0)
(184.381 0 0)
(178.54 0 0)
(171.605 0 0)
(163.196 0 0)
(153.247 0 0)
(142.392 0 0)
(131.869 0 0)
(122.869 0 0)
(115.96 0 0)
(111.059 0 0)
(107.757 0 0)
(105.605 0 0)
(104.244 0 0)
(103.423 0 0)
(102.973 0 0)
(102.785 0 0)
(102.785 0 0)
(102.926 0 0)
(103.175 0 0)
(103.507 0 0)
(103.905 0 0)
(104.357 0 0)
(104.854 0 0)
(105.387 0 0)
(105.951 0 0)
(106.541 0 0)
(107.153 0 0)
(107.785 0 0)
(108.432 0 0)
(109.093 0 0)
(109.767 0 0)
(110.451 0 0)
(111.144 0 0)
(111.845 0 0)
(112.553 0 0)
(113.266 0 0)
(113.985 0 0)
(114.708 0 0)
(115.435 0 0)
(116.164 0 0)
(116.896 0 0)
(117.631 0 0)
(118.366 0 0)
(119.105 0 0)
(119.836 0 0)
(120.596 0 0)
(121.266 0 0)
(122.221 0 0)
(258.345 0 0)
(257.005 0 0)
(255.63 0 0)
(254.217 0 0)
(252.764 0 0)
(251.271 0 0)
(249.735 0 0)
(248.154 0 0)
(246.527 0 0)
(244.85 0 0)
(243.122 0 0)
(241.34 0 0)
(239.5 0 0)
(237.6 0 0)
(235.636 0 0)
(233.603 0 0)
(231.496 0 0)
(229.311 0 0)
(227.041 0 0)
(224.68 0 0)
(222.219 0 0)
(219.649 0 0)
(216.958 0 0)
(214.134 0 0)
(211.161 0 0)
(208.018 0 0)
(204.681 0 0)
(201.118 0 0)
(197.287 0 0)
(193.133 0 0)
(188.578 0 0)
(183.495 0 0)
(177.664 0 0)
(170.736 0 0)
(162.352 0 0)
(152.48 0 0)
(141.77 0 0)
(131.434 0 0)
(122.613 0 0)
(115.839 0 0)
(111.02 0 0)
(107.757 0 0)
(105.618 0 0)
(104.255 0 0)
(103.421 0 0)
(102.954 0 0)
(102.746 0 0)
(102.725 0 0)
(102.844 0 0)
(103.07 0 0)
(103.379 0 0)
(103.755 0 0)
(104.184 0 0)
(104.658 0 0)
(105.168 0 0)
(105.71 0 0)
(106.277 0 0)
(106.867 0 0)
(107.475 0 0)
(108.101 0 0)
(108.74 0 0)
(109.392 0 0)
(110.054 0 0)
(110.725 0 0)
(111.404 0 0)
(112.091 0 0)
(112.783 0 0)
(113.48 0 0)
(114.182 0 0)
(114.887 0 0)
(115.596 0 0)
(116.307 0 0)
(117.02 0 0)
(117.734 0 0)
(118.453 0 0)
(119.163 0 0)
(119.902 0 0)
(120.553 0 0)
(121.48 0 0)
(257.088 0 0)
(255.753 0 0)
(254.383 0 0)
(252.975 0 0)
(251.529 0 0)
(250.042 0 0)
(248.513 0 0)
(246.939 0 0)
(245.319 0 0)
(243.651 0 0)
(241.932 0 0)
(240.159 0 0)
(238.329 0 0)
(236.439 0 0)
(234.486 0 0)
(232.464 0 0)
(230.37 0 0)
(228.198 0 0)
(225.941 0 0)
(223.594 0 0)
(221.148 0 0)
(218.593 0 0)
(215.919 0 0)
(213.111 0 0)
(210.155 0 0)
(207.03 0 0)
(203.712 0 0)
(200.168 0 0)
(196.357 0 0)
(192.223 0 0)
(187.686 0 0)
(182.618 0 0)
(176.795 0 0)
(169.875 0 0)
(161.517 0 0)
(151.722 0 0)
(141.156 0 0)
(131.005 0 0)
(122.361 0 0)
(115.719 0 0)
(110.98 0 0)
(107.758 0 0)
(105.633 0 0)
(104.267 0 0)
(103.422 0 0)
(102.939 0 0)
(102.712 0 0)
(102.671 0 0)
(102.768 0 0)
(102.972 0 0)
(103.259 0 0)
(103.612 0 0)
(104.019 0 0)
(104.471 0 0)
(104.959 0 0)
(105.478 0 0)
(106.024 0 0)
(106.592 0 0)
(107.179 0 0)
(107.782 0 0)
(108.4 0 0)
(109.03 0 0)
(109.671 0 0)
(110.321 0 0)
(110.98 0 0)
(111.645 0 0)
(112.316 0 0)
(112.993 0 0)
(113.674 0 0)
(114.358 0 0)
(115.046 0 0)
(115.737 0 0)
(116.43 0 0)
(117.124 0 0)
(117.821 0 0)
(118.512 0 0)
(119.23 0 0)
(119.864 0 0)
(120.762 0 0)
(255.841 0 0)
(254.511 0 0)
(253.146 0 0)
(251.744 0 0)
(250.304 0 0)
(248.824 0 0)
(247.302 0 0)
(245.736 0 0)
(244.124 0 0)
(242.465 0 0)
(240.754 0 0)
(238.991 0 0)
(237.171 0 0)
(235.292 0 0)
(233.349 0 0)
(231.339 0 0)
(229.257 0 0)
(227.098 0 0)
(224.855 0 0)
(222.521 0 0)
(220.09 0 0)
(217.55 0 0)
(214.892 0 0)
(212.101 0 0)
(209.162 0 0)
(206.055 0 0)
(202.755 0 0)
(199.23 0 0)
(195.438 0 0)
(191.322 0 0)
(186.803 0 0)
(181.749 0 0)
(175.933 0 0)
(169.02 0 0)
(160.689 0 0)
(150.974 0 0)
(140.552 0 0)
(130.583 0 0)
(122.113 0 0)
(115.6 0 0)
(110.942 0 0)
(107.759 0 0)
(105.648 0 0)
(104.281 0 0)
(103.426 0 0)
(102.927 0 0)
(102.682 0 0)
(102.621 0 0)
(102.697 0 0)
(102.88 0 0)
(103.146 0 0)
(103.477 0 0)
(103.863 0 0)
(104.293 0 0)
(104.76 0 0)
(105.257 0 0)
(105.782 0 0)
(106.328 0 0)
(106.894 0 0)
(107.477 0 0)
(108.074 0 0)
(108.683 0 0)
(109.303 0 0)
(109.933 0 0)
(110.57 0 0)
(111.215 0 0)
(111.866 0 0)
(112.522 0 0)
(113.183 0 0)
(113.848 0 0)
(114.515 0 0)
(115.186 0 0)
(115.859 0 0)
(116.533 0 0)
(117.211 0 0)
(117.882 0 0)
(118.579 0 0)
(119.196 0 0)
(120.067 0 0)
(254.604 0 0)
(253.279 0 0)
(251.92 0 0)
(250.525 0 0)
(249.091 0 0)
(247.618 0 0)
(246.103 0 0)
(244.545 0 0)
(242.942 0 0)
(241.291 0 0)
(239.589 0 0)
(237.836 0 0)
(236.026 0 0)
(234.157 0 0)
(232.226 0 0)
(230.228 0 0)
(228.158 0 0)
(226.011 0 0)
(223.781 0 0)
(221.462 0 0)
(219.045 0 0)
(216.52 0 0)
(213.878 0 0)
(211.103 0 0)
(208.181 0 0)
(205.092 0 0)
(201.81 0 0)
(198.303 0 0)
(194.53 0 0)
(190.432 0 0)
(185.93 0 0)
(180.888 0 0)
(175.079 0 0)
(168.172 0 0)
(159.869 0 0)
(150.234 0 0)
(139.956 0 0)
(130.168 0 0)
(121.868 0 0)
(115.483 0 0)
(110.903 0 0)
(107.761 0 0)
(105.665 0 0)
(104.297 0 0)
(103.432 0 0)
(102.919 0 0)
(102.656 0 0)
(102.575 0 0)
(102.632 0 0)
(102.794 0 0)
(103.039 0 0)
(103.35 0 0)
(103.715 0 0)
(104.124 0 0)
(104.569 0 0)
(105.046 0 0)
(105.55 0 0)
(106.076 0 0)
(106.621 0 0)
(107.183 0 0)
(107.76 0 0)
(108.349 0 0)
(108.949 0 0)
(109.558 0 0)
(110.176 0 0)
(110.801 0 0)
(111.432 0 0)
(112.068 0 0)
(112.709 0 0)
(113.354 0 0)
(114.003 0 0)
(114.654 0 0)
(115.307 0 0)
(115.962 0 0)
(116.621 0 0)
(117.273 0 0)
(117.95 0 0)
(118.55 0 0)
(119.394 0 0)
(253.377 0 0)
(252.058 0 0)
(250.705 0 0)
(249.316 0 0)
(247.89 0 0)
(246.424 0 0)
(244.916 0 0)
(243.366 0 0)
(241.772 0 0)
(240.129 0 0)
(238.438 0 0)
(236.694 0 0)
(234.894 0 0)
(233.036 0 0)
(231.116 0 0)
(229.129 0 0)
(227.072 0 0)
(224.938 0 0)
(222.721 0 0)
(220.416 0 0)
(218.013 0 0)
(215.504 0 0)
(212.876 0 0)
(210.118 0 0)
(207.213 0 0)
(204.141 0 0)
(200.877 0 0)
(197.388 0 0)
(193.632 0 0)
(189.552 0 0)
(185.065 0 0)
(180.035 0 0)
(174.231 0 0)
(167.33 0 0)
(159.057 0 0)
(149.504 0 0)
(139.369 0 0)
(129.76 0 0)
(121.627 0 0)
(115.367 0 0)
(110.865 0 0)
(107.764 0 0)
(105.682 0 0)
(104.314 0 0)
(103.44 0 0)
(102.913 0 0)
(102.633 0 0)
(102.535 0 0)
(102.572 0 0)
(102.715 0 0)
(102.939 0 0)
(103.23 0 0)
(103.574 0 0)
(103.963 0 0)
(104.388 0 0)
(104.845 0 0)
(105.328 0 0)
(105.834 0 0)
(106.359 0 0)
(106.902 0 0)
(107.458 0 0)
(108.028 0 0)
(108.608 0 0)
(109.198 0 0)
(109.796 0 0)
(110.402 0 0)
(111.013 0 0)
(111.631 0 0)
(112.253 0 0)
(112.878 0 0)
(113.508 0 0)
(114.14 0 0)
(114.775 0 0)
(115.41 0 0)
(116.05 0 0)
(116.683 0 0)
(117.341 0 0)
(117.925 0 0)
(118.743 0 0)
(252.161 0 0)
(250.848 0 0)
(249.502 0 0)
(248.12 0 0)
(246.7 0 0)
(245.242 0 0)
(243.742 0 0)
(242.201 0 0)
(240.614 0 0)
(238.981 0 0)
(237.299 0 0)
(235.565 0 0)
(233.776 0 0)
(231.929 0 0)
(230.02 0 0)
(228.045 0 0)
(225.999 0 0)
(223.878 0 0)
(221.675 0 0)
(219.383 0 0)
(216.994 0 0)
(214.5 0 0)
(211.888 0 0)
(209.146 0 0)
(206.257 0 0)
(203.202 0 0)
(199.955 0 0)
(196.483 0 0)
(192.745 0 0)
(188.682 0 0)
(184.21 0 0)
(179.19 0 0)
(173.391 0 0)
(166.496 0 0)
(158.254 0 0)
(148.783 0 0)
(138.792 0 0)
(129.359 0 0)
(121.39 0 0)
(115.253 0 0)
(110.828 0 0)
(107.766 0 0)
(105.7 0 0)
(104.332 0 0)
(103.451 0 0)
(102.91 0 0)
(102.615 0 0)
(102.498 0 0)
(102.517 0 0)
(102.64 0 0)
(102.845 0 0)
(103.116 0 0)
(103.441 0 0)
(103.81 0 0)
(104.216 0 0)
(104.653 0 0)
(105.116 0 0)
(105.603 0 0)
(106.108 0 0)
(106.631 0 0)
(107.169 0 0)
(107.719 0 0)
(108.28 0 0)
(108.851 0 0)
(109.43 0 0)
(110.017 0 0)
(110.61 0 0)
(111.209 0 0)
(111.812 0 0)
(112.419 0 0)
(113.03 0 0)
(113.643 0 0)
(114.26 0 0)
(114.877 0 0)
(115.499 0 0)
(116.114 0 0)
(116.753 0 0)
(117.321 0 0)
(118.114 0 0)
(250.956 0 0)
(249.65 0 0)
(248.31 0 0)
(246.935 0 0)
(245.523 0 0)
(244.072 0 0)
(242.581 0 0)
(241.048 0 0)
(239.47 0 0)
(237.847 0 0)
(236.174 0 0)
(234.45 0 0)
(232.671 0 0)
(230.835 0 0)
(228.937 0 0)
(226.974 0 0)
(224.94 0 0)
(222.832 0 0)
(220.642 0 0)
(218.364 0 0)
(215.989 0 0)
(213.509 0 0)
(210.913 0 0)
(208.186 0 0)
(205.314 0 0)
(202.275 0 0)
(199.045 0 0)
(195.59 0 0)
(191.869 0 0)
(187.822 0 0)
(183.363 0 0)
(178.352 0 0)
(172.557 0 0)
(165.67 0 0)
(157.458 0 0)
(148.072 0 0)
(138.223 0 0)
(128.964 0 0)
(121.157 0 0)
(115.14 0 0)
(110.791 0 0)
(107.769 0 0)
(105.719 0 0)
(104.352 0 0)
(103.463 0 0)
(102.91 0 0)
(102.599 0 0)
(102.466 0 0)
(102.467 0 0)
(102.571 0 0)
(102.758 0 0)
(103.01 0 0)
(103.315 0 0)
(103.665 0 0)
(104.051 0 0)
(104.469 0 0)
(104.914 0 0)
(105.381 0 0)
(105.868 0 0)
(106.372 0 0)
(106.891 0 0)
(107.422 0 0)
(107.965 0 0)
(108.517 0 0)
(109.078 0 0)
(109.647 0 0)
(110.221 0 0)
(110.802 0 0)
(111.387 0 0)
(111.976 0 0)
(112.569 0 0)
(113.164 0 0)
(113.762 0 0)
(114.362 0 0)
(114.965 0 0)
(115.563 0 0)
(116.183 0 0)
(116.736 0 0)
(117.504 0 0)
(249.763 0 0)
(248.464 0 0)
(247.131 0 0)
(245.763 0 0)
(244.358 0 0)
(242.916 0 0)
(241.433 0 0)
(239.908 0 0)
(238.34 0 0)
(236.725 0 0)
(235.062 0 0)
(233.348 0 0)
(231.58 0 0)
(229.754 0 0)
(227.868 0 0)
(225.916 0 0)
(223.895 0 0)
(221.799 0 0)
(219.622 0 0)
(217.357 0 0)
(214.997 0 0)
(212.532 0 0)
(209.95 0 0)
(207.239 0 0)
(204.382 0 0)
(201.36 0 0)
(198.146 0 0)
(194.708 0 0)
(191.003 0 0)
(186.971 0 0)
(182.526 0 0)
(177.523 0 0)
(171.731 0 0)
(164.85 0 0)
(156.671 0 0)
(147.37 0 0)
(137.664 0 0)
(128.576 0 0)
(120.927 0 0)
(115.029 0 0)
(110.754 0 0)
(107.772 0 0)
(105.738 0 0)
(104.373 0 0)
(103.477 0 0)
(102.913 0 0)
(102.587 0 0)
(102.438 0 0)
(102.421 0 0)
(102.508 0 0)
(102.676 0 0)
(102.909 0 0)
(103.196 0 0)
(103.527 0 0)
(103.895 0 0)
(104.295 0 0)
(104.721 0 0)
(105.169 0 0)
(105.638 0 0)
(106.124 0 0)
(106.624 0 0)
(107.138 0 0)
(107.662 0 0)
(108.196 0 0)
(108.739 0 0)
(109.29 0 0)
(109.847 0 0)
(110.409 0 0)
(110.977 0 0)
(111.548 0 0)
(112.123 0 0)
(112.701 0 0)
(113.282 0 0)
(113.864 0 0)
(114.45 0 0)
(115.031 0 0)
(115.633 0 0)
(116.171 0 0)
(116.915 0 0)
(248.582 0 0)
(247.289 0 0)
(245.964 0 0)
(244.603 0 0)
(243.207 0 0)
(241.772 0 0)
(240.298 0 0)
(238.782 0 0)
(237.222 0 0)
(235.617 0 0)
(233.964 0 0)
(232.26 0 0)
(230.502 0 0)
(228.687 0 0)
(226.812 0 0)
(224.872 0 0)
(222.863 0 0)
(220.78 0 0)
(218.616 0 0)
(216.364 0 0)
(214.018 0 0)
(211.567 0 0)
(209 0 0)
(206.304 0 0)
(203.463 0 0)
(200.456 0 0)
(197.259 0 0)
(193.837 0 0)
(190.147 0 0)
(186.131 0 0)
(181.697 0 0)
(176.702 0 0)
(170.912 0 0)
(164.038 0 0)
(155.893 0 0)
(146.678 0 0)
(137.114 0 0)
(128.195 0 0)
(120.702 0 0)
(114.92 0 0)
(110.718 0 0)
(107.776 0 0)
(105.758 0 0)
(104.395 0 0)
(103.493 0 0)
(102.918 0 0)
(102.578 0 0)
(102.413 0 0)
(102.38 0 0)
(102.449 0 0)
(102.599 0 0)
(102.815 0 0)
(103.084 0 0)
(103.397 0 0)
(103.747 0 0)
(104.128 0 0)
(104.536 0 0)
(104.967 0 0)
(105.418 0 0)
(105.886 0 0)
(106.368 0 0)
(106.864 0 0)
(107.371 0 0)
(107.888 0 0)
(108.413 0 0)
(108.946 0 0)
(109.486 0 0)
(110.031 0 0)
(110.581 0 0)
(111.136 0 0)
(111.694 0 0)
(112.255 0 0)
(112.819 0 0)
(113.384 0 0)
(113.953 0 0)
(114.517 0 0)
(115.102 0 0)
(115.624 0 0)
(116.345 0 0)
(247.413 0 0)
(246.127 0 0)
(244.809 0 0)
(243.457 0 0)
(242.068 0 0)
(240.641 0 0)
(239.175 0 0)
(237.668 0 0)
(236.118 0 0)
(234.522 0 0)
(232.879 0 0)
(231.185 0 0)
(229.438 0 0)
(227.634 0 0)
(225.77 0 0)
(223.842 0 0)
(221.845 0 0)
(219.774 0 0)
(217.623 0 0)
(215.385 0 0)
(213.052 0 0)
(210.615 0 0)
(208.063 0 0)
(205.382 0 0)
(202.556 0 0)
(199.565 0 0)
(196.383 0 0)
(192.976 0 0)
(189.302 0 0)
(185.299 0 0)
(180.877 0 0)
(175.888 0 0)
(170.1 0 0)
(163.233 0 0)
(155.124 0 0)
(145.996 0 0)
(136.574 0 0)
(127.821 0 0)
(120.48 0 0)
(114.812 0 0)
(110.683 0 0)
(107.779 0 0)
(105.778 0 0)
(104.419 0 0)
(103.511 0 0)
(102.925 0 0)
(102.572 0 0)
(102.392 0 0)
(102.342 0 0)
(102.395 0 0)
(102.528 0 0)
(102.726 0 0)
(102.978 0 0)
(103.273 0 0)
(103.606 0 0)
(103.97 0 0)
(104.36 0 0)
(104.774 0 0)
(105.207 0 0)
(105.658 0 0)
(106.123 0 0)
(106.602 0 0)
(107.092 0 0)
(107.591 0 0)
(108.1 0 0)
(108.616 0 0)
(109.139 0 0)
(109.667 0 0)
(110.201 0 0)
(110.738 0 0)
(111.28 0 0)
(111.824 0 0)
(112.371 0 0)
(112.92 0 0)
(113.472 0 0)
(114.02 0 0)
(114.588 0 0)
(115.096 0 0)
(115.795 0 0)
(246.256 0 0)
(244.978 0 0)
(243.668 0 0)
(242.323 0 0)
(240.942 0 0)
(239.524 0 0)
(238.067 0 0)
(236.569 0 0)
(235.028 0 0)
(233.442 0 0)
(231.808 0 0)
(230.124 0 0)
(228.388 0 0)
(226.595 0 0)
(224.742 0 0)
(222.825 0 0)
(220.84 0 0)
(218.782 0 0)
(216.643 0 0)
(214.418 0 0)
(212.099 0 0)
(209.676 0 0)
(207.138 0 0)
(204.472 0 0)
(201.661 0 0)
(198.685 0 0)
(195.518 0 0)
(192.127 0 0)
(188.467 0 0)
(184.478 0 0)
(180.066 0 0)
(175.082 0 0)
(169.295 0 0)
(162.435 0 0)
(154.363 0 0)
(145.323 0 0)
(136.042 0 0)
(127.454 0 0)
(120.262 0 0)
(114.706 0 0)
(110.648 0 0)
(107.783 0 0)