/*--------------------------------*- C++ -*----------------------------------*\
| =========                 |                                                 |
| \\      /  F ield         | OpenFOAM: The Open Source CFD Toolbox           |
|  \\    /   O peration     | Version:  2312                                  |
|   \\  /    A nd           | Website:  www.openfoam.com                      |
|    \\/     M anipulation  |                                                 |
\*---------------------------------------------------------------------------*/
FoamFile
{
    version     2.0;
    format      ascii;
    arch        "LSB;label=32;scalar=64";
    class       volScalarField;
    location    "2.9";
    object      wave;
}
// * * * * * * * * * * * * * * * * * * * * * * * * * * * * * * * * * * * * * //

dimensions      [0 0 0 0 0 0 0];

internalField   nonuniform List<scalar> 
100
(
0.161548
0.00359321
-0.154452
-0.308618
-0.45503
-0.590011
-0.710169
-0.812486
-0.894392
-0.953829
-0.989304
-0.999925
-0.985425
-0.94617
-0.883145
-0.797933
-0.692675
-0.570016
-0.433037
-0.285178
-0.130156
0.0281363
0.185722
0.338641
0.483054
0.61533
0.732149
0.830574
0.908133
0.962878
0.993434
0.999032
0.979532
0.935424
0.867816
0.778407
0.669443
0.54366
0.40422
0.254625
0.0986325
-0.0598374
-0.216804
-0.368324
-0.510591
-0.640031
-0.753392
-0.847825
-0.92096
-0.970958
-0.996564
-0.997133
-0.972652
-0.923737
-0.851614
-0.758098
-0.645536
-0.516757
-0.374996
-0.223814
-0.0670096
0.0914783
0.247668
0.397636
0.537614
0.664087
0.773876
0.864223
0.932859
0.97806
0.99869
0.99423
0.964793
0.911119
0.834555
0.737025
0.62098
0.489334
0.345395
0.192779
0.0353193
-0.123027
-0.278283
-0.426548
-0.564096
-0.687474
-0.79358
-0.879751
-0.943819
-0.984177
-0.999811
-0.990326
-0.955963
-0.897584
-0.816655
-0.71521
-0.595798
-0.461418
-0.315445
-0.161549
)
;

boundaryField
{
    movingWall
    {
        type            calculated;
        value           uniform 0;
    }
    fixedWalls
    {
        type            calculated;
        value           uniform 0;
    }
    frontAndBack
    {
        type            empty;
    }
}


// ************************************************************************* //
