/*--------------------------------*- C++ -*----------------------------------*\
| =========                 |                                                 |
| \\      /  F ield         | OpenFOAM: The Open Source CFD Toolbox           |
|  \\    /   O peration     | Version:  2312                                  |
|   \\  /    A nd           | Website:  www.openfoam.com                      |
|    \\/     M anipulation  |                                                 |
\*---------------------------------------------------------------------------*/
FoamFile
{
    version     2.0;
    format      ascii;
    arch        "LSB;label=32;scalar=64";
    class       volVectorField;
    location    "0.672";
    object      U;
}
// * * * * * * * * * * * * * * * * * * * * * * * * * * * * * * * * * * * * * //

dimensions      [0 1 -1 0 0 0 0];

internalField   nonuniform List<vector> 
31205
(
(177.727 0 0)
(174.388 0 0)
(170.944 0 0)
(167.39 0 0)
(163.719 0 0)
(159.924 0 0)
(155.999 0 0)
(151.941 0 0)
(147.748 0 0)
(143.422 0 0)
(138.976 0 0)
(134.438 0 0)
(129.856 0 0)
(125.311 0 0)
(120.914 0 0)
(116.795 0 0)
(113.086 0 0)
(109.89 0 0)
(107.266 0 0)
(105.225 0 0)
(103.738 0 0)
(102.75 0 0)
(102.193 0 0)
(102.001 0 0)
(102.111 0 0)
(102.467 0 0)
(103.025 0 0)
(103.746 0 0)
(104.601 0 0)
(105.564 0 0)
(106.615 0 0)
(107.739 0 0)
(108.922 0 0)
(110.154 0 0)
(111.426 0 0)
(112.731 0 0)
(114.063 0 0)
(115.418 0 0)
(116.791 0 0)
(118.178 0 0)
(119.578 0 0)
(120.987 0 0)
(122.403 0 0)
(123.825 0 0)
(125.251 0 0)
(126.681 0 0)
(128.111 0 0)
(129.543 0 0)
(130.974 0 0)
(132.405 0 0)
(133.834 0 0)
(135.261 0 0)
(136.686 0 0)
(138.107 0 0)
(139.526 0 0)
(140.94 0 0)
(142.351 0 0)
(143.757 0 0)
(145.16 0 0)
(146.557 0 0)
(147.95 0 0)
(149.338 0 0)
(150.721 0 0)
(152.098 0 0)
(153.471 0 0)
(154.838 0 0)
(156.2 0 0)
(157.556 0 0)
(158.906 0 0)
(160.251 0 0)
(161.591 0 0)
(162.924 0 0)
(164.253 0 0)
(165.573 0 0)
(166.895 0 0)
(168.19 0 0)
(169.542 0 0)
(170.697 0 0)
(172.433 0 0)
(174.707 0 0)
(171.367 0 0)
(167.922 0 0)
(164.366 0 0)
(160.694 0 0)
(156.9 0 0)
(152.979 0 0)
(148.928 0 0)
(144.75 0 0)
(140.452 0 0)
(136.054 0 0)
(131.593 0 0)
(127.131 0 0)
(122.761 0 0)
(118.599 0 0)
(114.769 0 0)
(111.385 0 0)
(108.524 0 0)
(106.222 0 0)
(104.469 0 0)
(103.225 0 0)
(102.434 0 0)
(102.03 0 0)
(101.952 0 0)
(102.143 0 0)
(102.555 0 0)
(103.147 0 0)
(103.887 0 0)
(104.748 0 0)
(105.707 0 0)
(106.747 0 0)
(107.854 0 0)
(109.016 0 0)
(110.222 0 0)
(111.466 0 0)
(112.742 0 0)
(114.042 0 0)
(115.364 0 0)
(116.703 0 0)
(118.056 0 0)
(119.42 0 0)
(120.794 0 0)
(122.174 0 0)
(123.561 0 0)
(124.951 0 0)
(126.344 0 0)
(127.739 0 0)
(129.135 0 0)
(130.531 0 0)
(131.926 0 0)
(133.319 0 0)
(134.711 0 0)
(136.101 0 0)
(137.488 0 0)
(138.872 0 0)
(140.252 0 0)
(141.629 0 0)
(143.002 0 0)
(144.37 0 0)
(145.734 0 0)
(147.094 0 0)
(148.449 0 0)
(149.799 0 0)
(151.144 0 0)
(152.484 0 0)
(153.819 0 0)
(155.149 0 0)
(156.474 0 0)
(157.793 0 0)
(159.106 0 0)
(160.415 0 0)
(161.717 0 0)
(163.015 0 0)
(164.305 0 0)
(165.596 0 0)
(166.862 0 0)
(168.182 0 0)
(169.313 0 0)
(171 0 0)
(171.53 0 0)
(168.186 0 0)
(164.738 0 0)
(161.18 0 0)
(157.506 0 0)
(153.713 0 0)
(149.796 0 0)
(145.757 0 0)
(141.602 0 0)
(137.343 0 0)
(133.012 0 0)
(128.657 0 0)
(124.352 0 0)
(120.2 0 0)
(116.314 0 0)
(112.809 0 0)
(109.772 0 0)
(107.258 0 0)
(105.275 0 0)
(103.802 0 0)
(102.791 0 0)
(102.184 0 0)
(101.923 0 0)
(101.95 0 0)
(102.216 0 0)
(102.679 0 0)
(103.303 0 0)
(104.06 0 0)
(104.925 0 0)
(105.88 0 0)
(106.909 0 0)
(107.998 0 0)
(109.138 0 0)
(110.32 0 0)
(111.537 0 0)
(112.783 0 0)
(114.052 0 0)
(115.341 0 0)
(116.647 0 0)
(117.966 0 0)
(119.297 0 0)
(120.635 0 0)
(121.981 0 0)
(123.332 0 0)
(124.688 0 0)
(126.046 0 0)
(127.406 0 0)
(128.766 0 0)
(130.127 0 0)
(131.488 0 0)
(132.847 0 0)
(134.205 0 0)
(135.56 0 0)
(136.913 0 0)
(138.263 0 0)
(139.61 0 0)
(140.954 0 0)
(142.293 0 0)
(143.629 0 0)
(144.961 0 0)
(146.288 0 0)
(147.611 0 0)
(148.929 0 0)
(150.242 0 0)
(151.551 0 0)
(152.855 0 0)
(154.153 0 0)
(155.447 0 0)
(156.735 0 0)
(158.018 0 0)
(159.296 0 0)
(160.569 0 0)
(161.837 0 0)
(163.097 0 0)
(164.358 0 0)
(165.595 0 0)
(166.884 0 0)
(167.992 0 0)
(169.632 0 0)
(168.282 0 0)
(164.933 0 0)
(161.48 0 0)
(157.918 0 0)
(154.242 0 0)
(150.45 0 0)
(146.541 0 0)
(142.519 0 0)
(138.395 0 0)
(134.193 0 0)
(129.951 0 0)
(125.732 0 0)
(121.621 0 0)
(117.722 0 0)
(114.144 0 0)
(110.981 0 0)
(108.298 0 0)
(106.121 0 0)
(104.444 0 0)
(103.232 0 0)
(102.435 0 0)
(101.997 0 0)
(101.865 0 0)
(101.988 0 0)
(102.322 0 0)
(102.831 0 0)
(103.483 0 0)
(104.255 0 0)
(105.124 0 0)
(106.074 0 0)
(107.091 0 0)
(108.164 0 0)
(109.283 0 0)
(110.441 0 0)
(111.631 0 0)
(112.849 0 0)
(114.088 0 0)
(115.347 0 0)
(116.62 0 0)
(117.907 0 0)
(119.204 0 0)
(120.509 0 0)
(121.821 0 0)
(123.138 0 0)
(124.459 0 0)
(125.783 0 0)
(127.109 0 0)
(128.436 0 0)
(129.763 0 0)
(131.09 0 0)
(132.415 0 0)
(133.74 0 0)
(135.062 0 0)
(136.382 0 0)
(137.699 0 0)
(139.013 0 0)
(140.324 0 0)
(141.632 0 0)
(142.935 0 0)
(144.235 0 0)
(145.531 0 0)
(146.822 0 0)
(148.109 0 0)
(149.391 0 0)
(150.669 0 0)
(151.942 0 0)
(153.21 0 0)
(154.474 0 0)
(155.732 0 0)
(156.985 0 0)
(158.233 0 0)
(159.476 0 0)
(160.715 0 0)
(161.946 0 0)
(163.178 0 0)
(164.387 0 0)
(165.645 0 0)
(166.73 0 0)
(168.326 0 0)
(165.005 0 0)
(161.651 0 0)
(158.193 0 0)
(154.628 0 0)
(150.952 0 0)
(147.165 0 0)
(143.269 0 0)
(139.274 0 0)
(135.197 0 0)
(131.071 0 0)
(126.946 0 0)
(122.897 0 0)
(119.014 0 0)
(115.4 0 0)
(112.148 0 0)
(109.332 0 0)
(106.992 0 0)
(105.135 0 0)
(103.739 0 0)
(102.763 0 0)
(102.157 0 0)
(101.87 0 0)
(101.852 0 0)
(102.059 0 0)
(102.453 0 0)
(103.001 0 0)
(103.678 0 0)
(104.461 0 0)
(105.332 0 0)
(106.276 0 0)
(107.282 0 0)
(108.338 0 0)
(109.437 0 0)
(110.572 0 0)
(111.736 0 0)
(112.926 0 0)
(114.137 0 0)
(115.365 0 0)
(116.608 0 0)
(117.863 0 0)
(119.127 0 0)
(120.4 0 0)
(121.679 0 0)
(122.964 0 0)
(124.252 0 0)
(125.543 0 0)
(126.836 0 0)
(128.129 0 0)
(129.424 0 0)
(130.717 0 0)
(132.01 0 0)
(133.302 0 0)
(134.592 0 0)
(135.88 0 0)
(137.165 0 0)
(138.447 0 0)
(139.726 0 0)
(141.002 0 0)
(142.275 0 0)
(143.543 0 0)
(144.808 0 0)
(146.069 0 0)
(147.325 0 0)
(148.577 0 0)
(149.825 0 0)
(151.068 0 0)
(152.306 0 0)
(153.54 0 0)
(154.769 0 0)
(155.993 0 0)
(157.212 0 0)
(158.426 0 0)
(159.635 0 0)
(160.838 0 0)
(162.041 0 0)
(163.222 0 0)
(164.451 0 0)
(165.512 0 0)
(167.067 0 0)
(161.721 0 0)
(158.362 0 0)
(154.901 0 0)
(151.335 0 0)
(147.663 0 0)
(143.887 0 0)
(140.014 0 0)
(136.058 0 0)
(132.047 0 0)
(128.023 0 0)
(124.048 0 0)
(120.202 0 0)
(116.579 0 0)
(113.27 0 0)
(110.353 0 0)
(107.878 0 0)
(105.863 0 0)
(104.3 0 0)
(103.157 0 0)
(102.391 0 0)
(101.953 0 0)
(101.797 0 0)
(101.878 0 0)
(102.157 0 0)
(102.602 0 0)
(103.184 0 0)
(103.881 0 0)
(104.672 0 0)
(105.543 0 0)
(106.481 0 0)
(107.474 0 0)
(108.514 0 0)
(109.592 0 0)
(110.704 0 0)
(111.844 0 0)
(113.007 0 0)
(114.19 0 0)
(115.389 0 0)
(116.602 0 0)
(117.826 0 0)
(119.059 0 0)
(120.301 0 0)
(121.548 0 0)
(122.801 0 0)
(124.057 0 0)
(125.316 0 0)
(126.577 0 0)
(127.838 0 0)
(129.1 0 0)
(130.362 0 0)
(131.624 0 0)
(132.884 0 0)
(134.142 0 0)
(135.398 0 0)
(136.652 0 0)
(137.904 0 0)
(139.152 0 0)
(140.397 0 0)
(141.639 0 0)
(142.877 0 0)
(144.112 0 0)
(145.343 0 0)
(146.569 0 0)
(147.791 0 0)
(149.01 0 0)
(150.223 0 0)
(151.432 0 0)
(152.637 0 0)
(153.837 0 0)
(155.032 0 0)
(156.223 0 0)
(157.409 0 0)
(158.59 0 0)
(159.765 0 0)
(160.94 0 0)
(162.093 0 0)
(163.293 0 0)
(164.33 0 0)
(165.846 0 0)
(158.44 0 0)
(155.078 0 0)
(151.616 0 0)
(148.053 0 0)
(144.39 0 0)
(140.634 0 0)
(136.796 0 0)
(132.898 0 0)
(128.976 0 0)
(125.084 0 0)
(121.29 0 0)
(117.68 0 0)
(114.341 0 0)
(111.35 0 0)
(108.765 0 0)
(106.616 0 0)
(104.903 0 0)
(103.605 0 0)
(102.688 0 0)
(102.106 0 0)
(101.815 0 0)
(101.772 0 0)
(101.938 0 0)
(102.279 0 0)
(102.766 0 0)
(103.376 0 0)
(104.088 0 0)
(104.886 0 0)
(105.755 0 0)
(106.684 0 0)
(107.665 0 0)
(108.688 0 0)
(109.746 0 0)
(110.836 0 0)
(111.951 0 0)
(113.088 0 0)
(114.243 0 0)
(115.414 0 0)
(116.598 0 0)
(117.793 0 0)
(118.996 0 0)
(120.207 0 0)
(121.424 0 0)
(122.645 0 0)
(123.87 0 0)
(125.098 0 0)
(126.328 0 0)
(127.558 0 0)
(128.789 0 0)
(130.02 0 0)
(131.251 0 0)
(132.48 0 0)
(133.708 0 0)
(134.934 0 0)
(136.157 0 0)
(137.378 0 0)
(138.597 0 0)
(139.812 0 0)
(141.024 0 0)
(142.233 0 0)
(143.438 0 0)
(144.639 0 0)
(145.837 0 0)
(147.03 0 0)
(148.219 0 0)
(149.404 0 0)
(150.585 0 0)
(151.761 0 0)
(152.933 0 0)
(154.1 0 0)
(155.263 0 0)
(156.421 0 0)
(157.575 0 0)
(158.722 0 0)
(159.869 0 0)
(160.996 0 0)
(162.167 0 0)
(163.181 0 0)
(164.659 0 0)
(155.166 0 0)
(151.803 0 0)
(148.344 0 0)
(144.79 0 0)
(141.145 0 0)
(137.42 0 0)
(133.633 0 0)
(129.814 0 0)
(126.01 0 0)
(122.28 0 0)
(118.7 0 0)
(115.352 0 0)
(112.313 0 0)
(109.643 0 0)
(107.38 0 0)
(105.536 0 0)
(104.098 0 0)
(103.039 0 0)
(102.32 0 0)
(101.898 0 0)
(101.734 0 0)
(101.788 0 0)
(102.026 0 0)
(102.42 0 0)
(102.943 0 0)
(103.575 0 0)
(104.299 0 0)
(105.1 0 0)
(105.966 0 0)
(106.886 0 0)
(107.853 0 0)
(108.859 0 0)
(109.898 0 0)
(110.965 0 0)
(112.056 0 0)
(113.168 0 0)
(114.297 0 0)
(115.44 0 0)
(116.595 0 0)
(117.761 0 0)
(118.935 0 0)
(120.117 0 0)
(121.304 0 0)
(122.495 0 0)
(123.69 0 0)
(124.888 0 0)
(126.087 0 0)
(127.288 0 0)
(128.488 0 0)
(129.689 0 0)
(130.89 0 0)
(132.089 0 0)
(133.287 0 0)
(134.483 0 0)
(135.677 0 0)
(136.869 0 0)
(138.058 0 0)
(139.244 0 0)
(140.427 0 0)
(141.607 0 0)
(142.783 0 0)
(143.956 0 0)
(145.125 0 0)
(146.29 0 0)
(147.452 0 0)
(148.609 0 0)
(149.762 0 0)
(150.91 0 0)
(152.055 0 0)
(153.194 0 0)
(154.33 0 0)
(155.46 0 0)
(156.587 0 0)
(157.707 0 0)
(158.828 0 0)
(159.928 0 0)
(161.072 0 0)
(162.063 0 0)
(163.503 0 0)
(151.902 0 0)
(148.542 0 0)
(145.091 0 0)
(141.553 0 0)
(137.937 0 0)
(134.258 0 0)
(130.543 0 0)
(126.829 0 0)
(123.172 0 0)
(119.636 0 0)
(116.298 0 0)
(113.231 0 0)
(110.499 0 0)
(108.145 0 0)
(106.187 0 0)
(104.624 0 0)
(103.434 0 0)
(102.586 0 0)
(102.04 0 0)
(101.758 0 0)
(101.702 0 0)
(101.84 0 0)
(102.139 0 0)
(102.577 0 0)
(103.129 0 0)
(103.78 0 0)
(104.512 0 0)
(105.314 0 0)
(106.174 0 0)
(107.085 0 0)
(108.037 0 0)
(109.026 0 0)
(110.046 0 0)
(111.091 0 0)
(112.159 0 0)
(113.246 0 0)
(114.349 0 0)
(115.465 0 0)
(116.593 0 0)
(117.731 0 0)
(118.877 0 0)
(120.03 0 0)
(121.188 0 0)
(122.35 0 0)
(123.516 0 0)
(124.684 0 0)
(125.854 0 0)
(127.025 0 0)
(128.197 0 0)
(129.369 0 0)
(130.54 0 0)
(131.71 0 0)
(132.879 0 0)
(134.046 0 0)
(135.212 0 0)
(136.375 0 0)
(137.535 0 0)
(138.693 0 0)
(139.848 0 0)
(141 0 0)
(142.148 0 0)
(143.293 0 0)
(144.434 0 0)
(145.572 0 0)
(146.706 0 0)
(147.836 0 0)
(148.961 0 0)
(150.083 0 0)
(151.2 0 0)
(152.313 0 0)
(153.422 0 0)
(154.526 0 0)
(155.626 0 0)
(156.72 0 0)
(157.815 0 0)
(158.889 0 0)
(160.006 0 0)
(160.975 0 0)
(162.378 0 0)
(148.651 0 0)
(145.299 0 0)
(141.864 0 0)
(138.353 0 0)
(134.779 0 0)
(131.165 0 0)
(127.545 0 0)
(123.965 0 0)
(120.484 0 0)
(117.171 0 0)
(114.097 0 0)
(111.323 0 0)
(108.897 0 0)
(106.845 0 0)
(105.172 0 0)
(103.864 0 0)
(102.895 0 0)
(102.232 0 0)
(101.837 0 0)
(101.675 0 0)
(101.713 0 0)
(101.921 0 0)
(102.273 0 0)
(102.747 0 0)
(103.324 0 0)
(103.988 0 0)
(104.726 0 0)
(105.527 0 0)
(106.381 0 0)
(107.28 0 0)
(108.219 0 0)
(109.19 0 0)
(110.19 0 0)
(111.214 0 0)
(112.259 0 0)
(113.322 0 0)
(114.4 0 0)
(115.49 0 0)
(116.592 0 0)
(117.702 0 0)
(118.82 0 0)
(119.945 0 0)
(121.075 0 0)
(122.209 0 0)
(123.347 0 0)
(124.486 0 0)
(125.628 0 0)
(126.771 0 0)
(127.914 0 0)
(129.057 0 0)
(130.2 0 0)
(131.342 0 0)
(132.483 0 0)
(133.622 0 0)
(134.76 0 0)
(135.895 0 0)
(137.028 0 0)
(138.158 0 0)
(139.285 0 0)
(140.41 0 0)
(141.531 0 0)
(142.649 0 0)
(143.763 0 0)
(144.874 0 0)
(145.981 0 0)
(147.084 0 0)
(148.184 0 0)
(149.279 0 0)
(150.37 0 0)
(151.457 0 0)
(152.539 0 0)
(153.618 0 0)
(154.692 0 0)
(155.76 0 0)
(156.829 0 0)
(157.879 0 0)
(158.968 0 0)
(159.915 0 0)
(161.283 0 0)
(145.419 0 0)
(142.082 0 0)
(138.672 0 0)
(135.2 0 0)
(131.686 0 0)
(128.159 0 0)
(124.661 0 0)
(121.243 0 0)
(117.968 0 0)
(114.901 0 0)
(112.105 0 0)
(109.627 0 0)
(107.498 0 0)
(105.731 0 0)
(104.318 0 0)
(103.24 0 0)
(102.466 0 0)
(101.964 0 0)
(101.7 0 0)
(101.642 0 0)
(101.76 0 0)
(102.028 0 0)
(102.424 0 0)
(102.928 0 0)
(103.525 0 0)
(104.199 0 0)
(104.94 0 0)
(105.738 0 0)
(106.585 0 0)
(107.473 0 0)
(108.397 0 0)
(109.351 0 0)
(110.332 0 0)
(111.335 0 0)
(112.357 0 0)
(113.396 0 0)
(114.449 0 0)
(115.514 0 0)
(116.59 0 0)
(117.674 0 0)
(118.766 0 0)
(119.864 0 0)
(120.966 0 0)
(122.073 0 0)
(123.183 0 0)
(124.295 0 0)
(125.409 0 0)
(126.524 0 0)
(127.64 0 0)
(128.755 0 0)
(129.871 0 0)
(130.985 0 0)
(132.099 0 0)
(133.211 0 0)
(134.321 0 0)
(135.429 0 0)
(136.535 0 0)
(137.638 0 0)
(138.739 0 0)
(139.837 0 0)
(140.932 0 0)
(142.023 0 0)
(143.111 0 0)
(144.196 0 0)
(145.277 0 0)
(146.354 0 0)
(147.428 0 0)
(148.497 0 0)
(149.563 0 0)
(150.624 0 0)
(151.681 0 0)
(152.734 0 0)
(153.783 0 0)
(154.827 0 0)
(155.87 0 0)
(156.895 0 0)
(157.959 0 0)
(158.885 0 0)
(160.218 0 0)
(142.212 0 0)
(138.899 0 0)
(135.526 0 0)
(132.11 0 0)
(128.676 0 0)
(125.262 0 0)
(121.913 0 0)
(118.685 0 0)
(115.64 0 0)
(112.837 0 0)
(110.324 0 0)
(108.136 0 0)
(106.291 0 0)
(104.787 0 0)
(103.61 0 0)
(102.735 0 0)
(102.133 0 0)
(101.772 0 0)
(101.621 0 0)
(101.651 0 0)
(101.838 0 0)
(102.157 0 0)
(102.589 0 0)
(103.118 0 0)
(103.73 0 0)
(104.412 0 0)
(105.154 0 0)
(105.948 0 0)
(106.786 0 0)
(107.662 0 0)
(108.571 0 0)
(109.508 0 0)
(110.47 0 0)
(111.452 0 0)
(112.453 0 0)
(113.469 0 0)
(114.498 0 0)
(115.538 0 0)
(116.589 0 0)
(117.647 0 0)
(118.713 0 0)
(119.785 0 0)
(120.861 0 0)
(121.941 0 0)
(123.024 0 0)
(124.11 0 0)
(125.197 0 0)
(126.285 0 0)
(127.374 0 0)
(128.463 0 0)
(129.551 0 0)
(130.639 0 0)
(131.726 0 0)
(132.812 0 0)
(133.895 0 0)
(134.977 0 0)
(136.057 0 0)
(137.134 0 0)
(138.209 0 0)
(139.281 0 0)
(140.35 0 0)
(141.415 0 0)
(142.478 0 0)
(143.537 0 0)
(144.593 0 0)
(145.645 0 0)
(146.693 0 0)
(147.737 0 0)
(148.778 0 0)
(149.814 0 0)
(150.847 0 0)
(151.875 0 0)
(152.899 0 0)
(153.918 0 0)
(154.937 0 0)
(155.938 0 0)
(156.977 0 0)
(157.882 0 0)
(159.18 0 0)
(139.039 0 0)
(135.761 0 0)
(132.44 0 0)
(129.099 0 0)
(125.77 0 0)
(122.494 0 0)
(119.322 0 0)
(116.309 0 0)
(113.513 0 0)
(110.981 0 0)
(108.751 0 0)
(106.842 0 0)
(105.261 0 0)
(103.996 0 0)
(103.03 0 0)
(102.335 0 0)
(101.882 0 0)
(101.643 0 0)
(101.59 0 0)
(101.696 0 0)
(101.941 0 0)
(102.303 0 0)
(102.766 0 0)
(103.315 0 0)
(103.939 0 0)
(104.626 0 0)
(105.367 0 0)
(106.156 0 0)
(106.985 0 0)
(107.848 0 0)
(108.742 0 0)
(109.662 0 0)
(110.605 0 0)
(111.567 0 0)
(112.546 0 0)
(113.539 0 0)
(114.545 0 0)
(115.562 0 0)
(116.588 0 0)
(117.622 0 0)
(118.662 0 0)
(119.708 0 0)
(120.759 0 0)
(121.813 0 0)
(122.87 0 0)
(123.93 0 0)
(124.991 0 0)
(126.053 0 0)
(127.116 0 0)
(128.179 0 0)
(129.242 0 0)
(130.304 0 0)
(131.365 0 0)
(132.425 0 0)
(133.483 0 0)
(134.539 0 0)
(135.593 0 0)
(136.645 0 0)
(137.694 0 0)
(138.741 0 0)
(139.785 0 0)
(140.825 0 0)
(141.863 0 0)
(142.897 0 0)
(143.928 0 0)
(144.955 0 0)
(145.979 0 0)
(146.999 0 0)
(148.015 0 0)
(149.027 0 0)
(150.036 0 0)
(151.04 0 0)
(152.04 0 0)
(153.035 0 0)
(154.03 0 0)
(155.008 0 0)
(156.021 0 0)
(156.906 0 0)
(158.171 0 0)
(135.91 0 0)
(132.682 0 0)
(129.432 0 0)
(126.188 0 0)
(122.988 0 0)
(119.877 0 0)
(116.907 0 0)
(114.129 0 0)
(111.593 0 0)
(109.334 0 0)
(107.377 0 0)
(105.731 0 0)
(104.392 0 0)
(103.343 0 0)
(102.563 0 0)
(102.026 0 0)
(101.703 0 0)
(101.57 0 0)
(101.6 0 0)
(101.772 0 0)
(102.065 0 0)
(102.464 0 0)
(102.952 0 0)
(103.518 0 0)
(104.15 0 0)
(104.84 0 0)
(105.579 0 0)
(106.361 0 0)
(107.18 0 0)
(108.031 0 0)
(108.91 0 0)
(109.813 0 0)
(110.737 0 0)
(111.679 0 0)
(112.637 0 0)
(113.608 0 0)
(114.592 0 0)
(115.585 0 0)
(116.587 0 0)
(117.597 0 0)
(118.613 0 0)
(119.634 0 0)
(120.66 0 0)
(121.689 0 0)
(122.721 0 0)
(123.756 0 0)
(124.792 0 0)
(125.829 0 0)
(126.866 0 0)
(127.904 0 0)
(128.941 0 0)
(129.978 0 0)
(131.014 0 0)
(132.049 0 0)
(133.082 0 0)
(134.113 0 0)
(135.143 0 0)
(136.17 0 0)
(137.195 0 0)
(138.217 0 0)
(139.236 0 0)
(140.252 0 0)
(141.266 0 0)
(142.276 0 0)
(143.282 0 0)
(144.286 0 0)
(145.286 0 0)
(146.282 0 0)
(147.274 0 0)
(148.263 0 0)
(149.247 0 0)
(150.228 0 0)
(151.205 0 0)
(152.176 0 0)
(153.148 0 0)
(154.103 0 0)
(155.092 0 0)
(155.957 0 0)
(157.19 0 0)
(132.839 0 0)
(129.678 0 0)
(126.52 0 0)
(123.397 0 0)
(120.352 0 0)
(117.431 0 0)
(114.683 0 0)
(112.153 0 0)
(109.88 0 0)
(107.889 0 0)
(106.192 0 0)
(104.789 0 0)
(103.668 0 0)
(102.812 0 0)
(102.196 0 0)
(101.796 0 0)
(101.586 0 0)
(101.543 0 0)
(101.645 0 0)
(101.872 0 0)
(102.208 0 0)
(102.636 0 0)
(103.145 0 0)
(103.724 0 0)
(104.362 0 0)
(105.053 0 0)
(105.789 0 0)
(106.563 0 0)
(107.372 0 0)
(108.21 0 0)
(109.074 0 0)
(109.96 0 0)
(110.865 0 0)
(111.788 0 0)
(112.725 0 0)
(113.676 0 0)
(114.637 0 0)
(115.608 0 0)
(116.587 0 0)
(117.573 0 0)
(118.566 0 0)
(119.563 0 0)
(120.564 0 0)
(121.569 0 0)
(122.577 0 0)
(123.587 0 0)
(124.599 0 0)
(125.611 0 0)
(126.624 0 0)
(127.637 0 0)
(128.65 0 0)
(129.663 0 0)
(130.674 0 0)
(131.685 0 0)
(132.694 0 0)
(133.701 0 0)
(134.706 0 0)
(135.709 0 0)
(136.71 0 0)
(137.708 0 0)
(138.703 0 0)
(139.696 0 0)
(140.686 0 0)
(141.672 0 0)
(142.655 0 0)
(143.635 0 0)
(144.612 0 0)
(145.585 0 0)
(146.554 0 0)
(147.519 0 0)
(148.481 0 0)
(149.439 0 0)
(150.393 0 0)
(151.342 0 0)
(152.29 0 0)
(153.223 0 0)
(154.188 0 0)
(155.033 0 0)
(156.235 0 0)
(129.842 0 0)
(126.768 0 0)
(123.725 0 0)
(120.749 0 0)
(117.883 0 0)
(115.172 0 0)
(112.66 0 0)
(110.384 0 0)
(108.37 0 0)
(106.635 0 0)
(105.18 0 0)
(103.998 0 0)
(103.074 0 0)
(102.387 0 0)
(101.915 0 0)
(101.635 0 0)
(101.522 0 0)
(101.557 0 0)
(101.72 0 0)
(101.995 0 0)
(102.365 0 0)
(102.819 0 0)
(103.344 0 0)
(103.933 0 0)
(104.575 0 0)
(105.265 0 0)
(105.996 0 0)
(106.762 0 0)
(107.56 0 0)
(108.385 0 0)
(109.234 0 0)
(110.103 0 0)
(110.991 0 0)
(111.894 0 0)
(112.812 0 0)
(113.741 0 0)
(114.681 0 0)
(115.63 0 0)
(116.587 0 0)
(117.55 0 0)
(118.52 0 0)
(119.494 0 0)
(120.472 0 0)
(121.453 0 0)
(122.438 0 0)
(123.424 0 0)
(124.411 0 0)
(125.4 0 0)
(126.389 0 0)
(127.379 0 0)
(128.368 0 0)
(129.357 0 0)
(130.345 0 0)
(131.331 0 0)
(132.317 0 0)
(133.3 0 0)
(134.282 0 0)
(135.262 0 0)
(136.239 0 0)
(137.214 0 0)
(138.186 0 0)
(139.156 0 0)
(140.123 0 0)
(141.086 0 0)
(142.047 0 0)
(143.004 0 0)
(143.957 0 0)
(144.908 0 0)
(145.854 0 0)
(146.797 0 0)
(147.736 0 0)
(148.672 0 0)
(149.603 0 0)
(150.53 0 0)
(151.456 0 0)
(152.367 0 0)
(153.309 0 0)
(154.136 0 0)
(155.306 0 0)
(126.937 0 0)
(123.973 0 0)
(121.068 0 0)
(118.262 0 0)
(115.595 0 0)
(113.11 0 0)
(110.842 0 0)
(108.818 0 0)
(107.055 0 0)
(105.559 0 0)
(104.326 0 0)
(103.343 0 0)
(102.593 0 0)
(102.056 0 0)
(101.709 0 0)
(101.532 0 0)
(101.504 0 0)
(101.605 0 0)
(101.821 0 0)
(102.135 0 0)
(102.534 0 0)
(103.009 0 0)
(103.548 0 0)
(104.143 0 0)
(104.788 0 0)
(105.476 0 0)
(106.201 0 0)
(106.959 0 0)
(107.745 0 0)
(108.557 0 0)
(109.391 0 0)
(110.244 0 0)
(111.114 0 0)
(111.998 0 0)
(112.896 0 0)
(113.805 0 0)
(114.724 0 0)
(115.652 0 0)
(116.587 0 0)
(117.529 0 0)
(118.476 0 0)
(119.427 0 0)
(120.383 0 0)
(121.341 0 0)
(122.302 0 0)
(123.265 0 0)
(124.23 0 0)
(125.196 0 0)
(126.162 0 0)
(127.128 0 0)
(128.094 0 0)
(129.06 0 0)
(130.025 0 0)
(130.989 0 0)
(131.951 0 0)
(132.912 0 0)
(133.871 0 0)
(134.828 0 0)
(135.782 0 0)
(136.735 0 0)
(137.685 0 0)
(138.632 0 0)
(139.576 0 0)
(140.517 0 0)
(141.455 0 0)
(142.39 0 0)
(143.322 0 0)
(144.25 0 0)
(145.175 0 0)
(146.096 0 0)
(147.013 0 0)
(147.926 0 0)
(148.836 0 0)
(149.741 0 0)
(150.646 0 0)
(151.535 0 0)
(152.455 0 0)
(153.263 0 0)
(154.403 0 0)
(124.144 0 0)
(121.313 0 0)
(118.569 0 0)
(115.953 0 0)
(113.502 0 0)
(111.251 0 0)
(109.227 0 0)
(107.448 0 0)
(105.921 0 0)
(104.646 0 0)
(103.614 0 0)
(102.808 0 0)
(102.212 0 0)
(101.806 0 0)
(101.568 0 0)
(101.48 0 0)
(101.523 0 0)
(101.682 0 0)
(101.942 0 0)
(102.289 0 0)
(102.714 0 0)
(103.205 0 0)
(103.754 0 0)
(104.355 0 0)
(105 0 0)
(105.684 0 0)
(106.403 0 0)
(107.151 0 0)
(107.926 0 0)
(108.725 0 0)
(109.544 0 0)
(110.38 0 0)
(111.233 0 0)
(112.1 0 0)
(112.978 0 0)
(113.868 0 0)
(114.767 0 0)
(115.674 0 0)
(116.588 0 0)
(117.508 0 0)
(118.433 0 0)
(119.363 0 0)
(120.296 0 0)
(121.232 0 0)
(122.171 0 0)
(123.112 0 0)
(124.054 0 0)
(124.998 0 0)
(125.941 0 0)
(126.885 0 0)
(127.829 0 0)
(128.772 0 0)
(129.715 0 0)
(130.656 0 0)
(131.596 0 0)
(132.535 0 0)
(133.472 0 0)
(134.407 0 0)
(135.339 0 0)
(136.27 0 0)
(137.198 0 0)
(138.123 0 0)
(139.045 0 0)
(139.965 0 0)
(140.881 0 0)
(141.794 0 0)
(142.705 0 0)
(143.611 0 0)
(144.514 0 0)
(145.414 0 0)
(146.31 0 0)
(147.202 0 0)
(148.091 0 0)
(148.975 0 0)
(149.858 0 0)
(150.726 0 0)
(151.624 0 0)
(152.414 0 0)
(153.524 0 0)
(121.485 0 0)
(118.808 0 0)
(116.246 0 0)
(113.836 0 0)
(111.61 0 0)
(109.595 0 0)
(107.809 0 0)
(106.262 0 0)
(104.955 0 0)
(103.881 0 0)
(103.028 0 0)
(102.38 0 0)
(101.919 0 0)
(101.625 0 0)
(101.481 0 0)
(101.47 0 0)
(101.575 0 0)
(101.783 0 0)
(102.08 0 0)
(102.456 0 0)
(102.901 0 0)
(103.405 0 0)
(103.963 0 0)
(104.566 0 0)
(105.21 0 0)
(105.89 0 0)
(106.602 0 0)
(107.341 0 0)
(108.104 0 0)
(108.889 0 0)
(109.693 0 0)
(110.514 0 0)
(111.35 0 0)
(112.198 0 0)
(113.059 0 0)
(113.929 0 0)
(114.808 0 0)
(115.695 0 0)
(116.588 0 0)
(117.487 0 0)
(118.392 0 0)
(119.3 0 0)
(120.212 0 0)
(121.127 0 0)
(122.044 0 0)
(122.964 0 0)
(123.884 0 0)
(124.806 0 0)
(125.728 0 0)
(126.65 0 0)
(127.572 0 0)
(128.493 0 0)
(129.414 0 0)
(130.334 0 0)
(131.252 0 0)
(132.169 0 0)
(133.085 0 0)
(133.998 0 0)
(134.909 0 0)
(135.818 0 0)
(136.725 0 0)
(137.629 0 0)
(138.53 0 0)
(139.428 0 0)
(140.324 0 0)
(141.216 0 0)
(142.105 0 0)
(142.991 0 0)
(143.873 0 0)
(144.752 0 0)
(145.627 0 0)
(146.498 0 0)
(147.366 0 0)
(148.23 0 0)
(149.092 0 0)
(149.94 0 0)
(150.817 0 0)
(151.589 0 0)
(152.67 0 0)
(118.978 0 0)
(116.475 0 0)
(114.111 0 0)
(111.917 0 0)
(109.919 0 0)
(108.136 0 0)
(106.577 0 0)
(105.247 0 0)
(104.141 0 0)
(103.248 0 0)
(102.554 0 0)
(102.044 0 0)
(101.7 0 0)
(101.505 0 0)
(101.442 0 0)
(101.497 0 0)
(101.655 0 0)
(101.904 0 0)
(102.234 0 0)
(102.633 0 0)
(103.094 0 0)
(103.609 0 0)
(104.172 0 0)
(104.777 0 0)
(105.419 0 0)
(106.094 0 0)
(106.797 0 0)
(107.526 0 0)
(108.278 0 0)
(109.05 0 0)
(109.839 0 0)
(110.644 0 0)
(111.463 0 0)
(112.295 0 0)
(113.137 0 0)
(113.988 0 0)
(114.848 0 0)
(115.715 0 0)
(116.589 0 0)
(117.468 0 0)
(118.352 0 0)
(119.24 0 0)
(120.131 0 0)
(121.025 0 0)
(121.922 0 0)
(122.82 0 0)
(123.719 0 0)
(124.62 0 0)
(125.52 0 0)
(126.421 0 0)
(127.322 0 0)
(128.223 0 0)
(129.123 0 0)
(130.021 0 0)
(130.919 0 0)
(131.815 0 0)
(132.709 0 0)
(133.602 0 0)
(134.492 0 0)
(135.38 0 0)
(136.266 0 0)
(137.149 0 0)
(138.03 0 0)
(138.908 0 0)
(139.783 0 0)
(140.654 0 0)
(141.523 0 0)
(142.388 0 0)
(143.25 0 0)
(144.109 0 0)
(144.964 0 0)
(145.815 0 0)
(146.663 0 0)
(147.506 0 0)
(148.348 0 0)
(149.177 0 0)
(150.032 0 0)
(150.787 0 0)
(151.84 0 0)
(116.641 0 0)
(114.328 0 0)
(112.172 0 0)
(110.199 0 0)
(108.426 0 0)
(106.864 0 0)
(105.52 0 0)
(104.388 0 0)
(103.463 0 0)
(102.731 0 0)
(102.178 0 0)
(101.788 0 0)
(101.546 0 0)
(101.436 0 0)
(101.444 0 0)
(101.555 0 0)
(101.758 0 0)
(102.043 0 0)
(102.399 0 0)
(102.817 0 0)
(103.292 0 0)
(103.815 0 0)
(104.382 0 0)
(104.987 0 0)
(105.625 0 0)
(106.294 0 0)
(106.989 0 0)
(107.708 0 0)
(108.448 0 0)
(109.207 0 0)
(109.982 0 0)
(110.771 0 0)
(111.574 0 0)
(112.388 0 0)
(113.213 0 0)
(114.046 0 0)
(114.887 0 0)
(115.736 0 0)
(116.59 0 0)
(117.449 0 0)
(118.314 0 0)
(119.181 0 0)
(120.053 0 0)
(120.926 0 0)
(121.803 0 0)
(122.68 0 0)
(123.559 0 0)
(124.439 0 0)
(125.32 0 0)
(126.2 0 0)
(127.081 0 0)
(127.961 0 0)
(128.84 0 0)
(129.718 0 0)
(130.595 0 0)
(131.471 0 0)
(132.345 0 0)
(133.217 0 0)
(134.087 0 0)
(134.955 0 0)
(135.821 0 0)
(136.684 0 0)
(137.545 0 0)
(138.402 0 0)
(139.257 0 0)
(140.109 0 0)
(140.958 0 0)
(141.803 0 0)
(142.645 0 0)
(143.484 0 0)
(144.319 0 0)
(145.151 0 0)
(145.979 0 0)
(146.802 0 0)
(147.625 0 0)
(148.434 0 0)
(149.269 0 0)
(150.007 0 0)
(151.033 0 0)
(114.488 0 0)
(112.376 0 0)
(110.433 0 0)
(108.677 0 0)
(107.121 0 0)
(105.769 0 0)
(104.62 0 0)
(103.669 0 0)
(102.905 0 0)
(102.316 0 0)
(101.886 0 0)
(101.602 0 0)
(101.448 0 0)
(101.412 0 0)
(101.479 0 0)
(101.639 0 0)
(101.881 0 0)
(102.195 0 0)
(102.573 0 0)
(103.008 0 0)
(103.493 0 0)
(104.022 0 0)
(104.591 0 0)
(105.194 0 0)
(105.829 0 0)
(106.491 0 0)
(107.178 0 0)
(107.887 0 0)
(108.615 0 0)
(109.36 0 0)
(110.121 0 0)
(110.895 0 0)
(111.682 0 0)
(112.48 0 0)
(113.287 0 0)
(114.103 0 0)
(114.926 0 0)
(115.756 0 0)
(116.591 0 0)
(117.432 0 0)
(118.276 0 0)
(119.125 0 0)
(119.977 0 0)
(120.831 0 0)
(121.687 0 0)
(122.545 0 0)
(123.404 0 0)
(124.264 0 0)
(125.125 0 0)
(125.986 0 0)
(126.846 0 0)
(127.706 0 0)
(128.566 0 0)
(129.424 0 0)
(130.282 0 0)
(131.137 0 0)
(131.992 0 0)
(132.844 0 0)
(133.695 0 0)
(134.543 0 0)
(135.389 0 0)
(136.232 0 0)
(137.073 0 0)
(137.912 0 0)
(138.747 0 0)
(139.579 0 0)
(140.409 0 0)
(141.235 0 0)
(142.058 0 0)
(142.877 0 0)
(143.693 0 0)
(144.505 0 0)
(145.314 0 0)
(146.119 0 0)
(146.922 0 0)
(147.713 0 0)
(148.528 0 0)
(149.249 0 0)
(150.248 0 0)
(112.528 0 0)
(110.621 0 0)
(108.889 0 0)
(107.344 0 0)
(105.993 0 0)
(104.834 0 0)
(103.865 0 0)
(103.075 0 0)
(102.455 0 0)
(101.99 0 0)
(101.668 0 0)
(101.475 0 0)
(101.398 0 0)
(101.425 0 0)
(101.544 0 0)
(101.745 0 0)
(102.02 0 0)
(102.359 0 0)
(102.755 0 0)
(103.203 0 0)
(103.696 0 0)
(104.23 0 0)
(104.799 0 0)
(105.4 0 0)
(106.03 0 0)
(106.685 0 0)
(107.363 0 0)
(108.061 0 0)
(108.777 0 0)
(109.51 0 0)
(110.257 0 0)
(111.016 0 0)
(111.787 0 0)
(112.569 0 0)
(113.359 0 0)
(114.158 0 0)
(114.963 0 0)
(115.775 0 0)
(116.592 0 0)
(117.414 0 0)
(118.241 0 0)
(119.07 0 0)
(119.903 0 0)
(120.738 0 0)
(121.576 0 0)
(122.414 0 0)
(123.254 0 0)
(124.095 0 0)
(124.936 0 0)
(125.778 0 0)
(126.619 0 0)
(127.46 0 0)
(128.3 0 0)
(129.139 0 0)
(129.977 0 0)
(130.814 0 0)
(131.649 0 0)
(132.482 0 0)
(133.314 0 0)
(134.143 0 0)
(134.97 0 0)
(135.794 0 0)
(136.616 0 0)
(137.435 0 0)
(138.252 0 0)
(139.065 0 0)
(139.876 0 0)
(140.683 0 0)
(141.487 0 0)
(142.288 0 0)
(143.085 0 0)
(143.879 0 0)
(144.669 0 0)
(145.455 0 0)
(146.24 0 0)
(147.012 0 0)
(147.808 0 0)
(148.513 0 0)
(149.486 0 0)
(110.763 0 0)
(109.06 0 0)
(107.534 0 0)
(106.189 0 0)
(105.028 0 0)
(104.046 0 0)
(103.237 0 0)
(102.592 0 0)
(102.097 0 0)
(101.742 0 0)
(101.514 0 0)
(101.4 0 0)
(101.389 0 0)
(101.47 0 0)
(101.633 0 0)
(101.87 0 0)
(102.172 0 0)
(102.532 0 0)
(102.944 0 0)
(103.402 0 0)
(103.901 0 0)
(104.437 0 0)
(105.006 0 0)
(105.604 0 0)
(106.228 0 0)
(106.876 0 0)
(107.544 0 0)
(108.232 0 0)
(108.936 0 0)
(109.656 0 0)
(110.389 0 0)
(111.134 0 0)
(111.89 0 0)
(112.655 0 0)
(113.429 0 0)
(114.211 0 0)
(115 0 0)
(115.794 0 0)
(116.594 0 0)
(117.398 0 0)
(118.206 0 0)
(119.018 0 0)
(119.832 0 0)
(120.649 0 0)
(121.467 0 0)
(122.288 0 0)
(123.109 0 0)
(123.931 0 0)
(124.754 0 0)
(125.576 0 0)
(126.399 0 0)
(127.221 0 0)
(128.042 0 0)
(128.863 0 0)
(129.682 0 0)
(130.5 0 0)
(131.316 0 0)
(132.131 0 0)
(132.944 0 0)
(133.755 0 0)
(134.563 0 0)
(135.369 0 0)
(136.172 0 0)
(136.973 0 0)
(137.771 0 0)
(138.566 0 0)
(139.359 0 0)
(140.148 0 0)
(140.933 0 0)
(141.716 0 0)
(142.495 0 0)
(143.27 0 0)
(144.042 0 0)
(144.81 0 0)
(145.577 0 0)
(146.331 0 0)
(147.108 0 0)
(147.798 0 0)
(148.745 0 0)
(109.192 0 0)
(107.689 0 0)
(106.357 0 0)
(105.199 0 0)
(104.211 0 0)
(103.389 0 0)
(102.724 0 0)
(102.205 0 0)
(101.821 0 0)
(101.561 0 0)
(101.414 0 0)
(101.368 0 0)
(101.414 0 0)
(101.542 0 0)
(101.743 0 0)
(102.009 0 0)
(102.335 0 0)
(102.712 0 0)
(103.136 0 0)
(103.603 0 0)
(104.106 0 0)
(104.643 0 0)
(105.21 0 0)
(105.804 0 0)
(106.423 0 0)
(107.063 0 0)
(107.722 0 0)
(108.399 0 0)
(109.092 0 0)
(109.798 0 0)
(110.518 0 0)
(111.249 0 0)
(111.99 0 0)
(112.74 0 0)
(113.498 0 0)
(114.263 0 0)
(115.035 0 0)
(115.813 0 0)
(116.595 0 0)
(117.382 0 0)
(118.173 0 0)
(118.967 0 0)
(119.763 0 0)
(120.562 0 0)
(121.363 0 0)
(122.165 0 0)
(122.968 0 0)
(123.772 0 0)
(124.576 0 0)
(125.381 0 0)
(126.185 0 0)
(126.989 0 0)
(127.792 0 0)
(128.595 0 0)
(129.396 0 0)
(130.196 0 0)
(130.994 0 0)
(131.791 0 0)
(132.585 0 0)
(133.378 0 0)
(134.168 0 0)
(134.956 0 0)
(135.742 0 0)
(136.525 0 0)
(137.305 0 0)
(138.082 0 0)
(138.856 0 0)
(139.628 0 0)
(140.396 0 0)
(141.16 0 0)
(141.921 0 0)
(142.679 0 0)
(143.434 0 0)
(144.184 0 0)
(144.932 0 0)
(145.669 0 0)
(146.428 0 0)
(147.102 0 0)
(148.025 0 0)
(107.809 0 0)
(106.496 0 0)
(105.346 0 0)
(104.358 0 0)
(103.528 0 0)
(102.848 0 0)
(102.309 0 0)
(101.902 0 0)
(101.615 0 0)
(101.438 0 0)
(101.361 0 0)
(101.374 0 0)
(101.469 0 0)
(101.636 0 0)
(101.87 0 0)
(102.162 0 0)
(102.506 0 0)
(102.898 0 0)
(103.332 0 0)
(103.805 0 0)
(104.311 0 0)
(104.848 0 0)
(105.413 0 0)
(106.002 0 0)
(106.614 0 0)
(107.246 0 0)
(107.896 0 0)
(108.562 0 0)
(109.243 0 0)
(109.937 0 0)
(110.644 0 0)
(111.36 0 0)
(112.087 0 0)
(112.822 0 0)
(113.565 0 0)
(114.314 0 0)
(115.07 0 0)
(115.831 0 0)
(116.597 0 0)
(117.367 0 0)
(118.14 0 0)
(118.917 0 0)
(119.696 0 0)
(120.478 0 0)
(121.261 0 0)
(122.046 0 0)
(122.832 0 0)
(123.618 0 0)
(124.405 0 0)
(125.192 0 0)
(125.978 0 0)
(126.765 0 0)
(127.55 0 0)
(128.335 0 0)
(129.118 0 0)
(129.901 0 0)
(130.681 0 0)
(131.46 0 0)
(132.237 0 0)
(133.012 0 0)
(133.785 0 0)
(134.556 0 0)
(135.324 0 0)
(136.089 0 0)
(136.852 0 0)
(137.612 0 0)
(138.369 0 0)
(139.123 0 0)
(139.873 0 0)
(140.621 0 0)
(141.365 0 0)
(142.105 0 0)
(142.842 0 0)
(143.575 0 0)
(144.307 0 0)
(145.027 0 0)
(145.767 0 0)
(146.427 0 0)
(147.325 0 0)
(106.604 0 0)
(105.468 0 0)
(104.486 0 0)
(103.653 0 0)
(102.963 0 0)
(102.41 0 0)
(101.982 0 0)
(101.672 0 0)
(101.469 0 0)
(101.364 0 0)
(101.348 0 0)
(101.412 0 0)
(101.548 0 0)
(101.75 0 0)
(102.011 0 0)
(102.324 0 0)
(102.685 0 0)
(103.089 0 0)
(103.531 0 0)
(104.007 0 0)
(104.515 0 0)
(105.051 0 0)
(105.613 0 0)
(106.197 0 0)
(106.802 0 0)
(107.425 0 0)
(108.066 0 0)
(108.722 0 0)
(109.391 0 0)
(110.073 0 0)
(110.766 0 0)
(111.469 0 0)
(112.181 0 0)
(112.902 0 0)
(113.629 0 0)
(114.364 0 0)
(115.104 0 0)
(115.849 0 0)
(116.599 0 0)
(117.352 0 0)
(118.109 0 0)
(118.869 0 0)