/*--------------------------------*- C++ -*----------------------------------*\
| =========                 |                                                 |
| \\      /  F ield         | OpenFOAM: The Open Source CFD Toolbox           |
|  \\    /   O peration     | Version:  2312                                  |
|   \\  /    A nd           | Website:  www.openfoam.com                      |
|    \\/     M anipulation  |                                                 |
\*---------------------------------------------------------------------------*/
FoamFile
{
    version     2.0;
    format      ascii;
    arch        "LSB;label=32;scalar=64";
    class       volScalarField;
    location    "1.2";
    object      wave;
}
// * * * * * * * * * * * * * * * * * * * * * * * * * * * * * * * * * * * * * //

dimensions      [0 0 0 0 0 0 0];

internalField   nonuniform List<scalar> 
100
(
0.957824
0.991195
0.999665
0.983022
0.941682
0.876685
0.789664
0.682805
0.558793
0.420742
0.272121
0.116664
-0.0417239
-0.199064
-0.351402
-0.494913
-0.625991
-0.741342
-0.838069
-0.913742
-0.966459
-0.994897
-0.998341
-0.976705
-0.930531
-0.860981
-0.769801
-0.659281
-0.532199
-0.391747
-0.241453
-0.085094
0.0734031
0.230056
0.38093
0.522234
0.650418
0.762262
0.854957
0.926173
0.974121
0.997598
0.996012
0.969405
0.918444
0.844409
0.749162
0.635093
0.50507
0.362358
0.210543
0.0534384
-0.105008
-0.260817
-0.410074
-0.549028
-0.67419
-0.782415
-0.870983
-0.937671
-0.980802
-0.999293
-0.99268
-0.961129
-0.905431
-0.826988
-0.727768
-0.610266
-0.477432
-0.332604
-0.17942
-0.021729
0.136508
0.291316
0.438805
0.57527
0.697284
0.80178
0.886133
0.948225
0.986495
0.999983
0.988348
0.951885
0.891507
0.808733
0.705642
0.584824
0.449313
0.302515
0.148117
-0.0100024
-0.16787
-0.321521
-0.467094
-0.600933
-0.719675
-0.820337
-0.900391
-0.957824
)
;

boundaryField
{
    movingWall
    {
        type            calculated;
        value           uniform 0;
    }
    fixedWalls
    {
        type            calculated;
        value           uniform 0;
    }
    frontAndBack
    {
        type            empty;
    }
}


// ************************************************************************* //
