/*--------------------------------*- C++ -*----------------------------------*\
| =========                 |                                                 |
| \\      /  F ield         | OpenFOAM: The Open Source CFD Toolbox           |
|  \\    /   O peration     | Version:  2312                                  |
|   \\  /    A nd           | Website:  www.openfoam.com                      |
|    \\/     M anipulation  |                                                 |
\*---------------------------------------------------------------------------*/
FoamFile
{
    version     2.0;
    format      ascii;
    arch        "LSB;label=32;scalar=64";
    class       volVectorField;
    location    "0.711";
    object      U;
}
// * * * * * * * * * * * * * * * * * * * * * * * * * * * * * * * * * * * * * //

dimensions      [0 1 -1 0 0 0 0];

internalField   nonuniform List<vector> 
31205
(
(299.913 0 0)
(299.961 0 0)
(299.973 0 0)
(299.947 0 0)
(299.883 0 0)
(299.782 0 0)
(299.642 0 0)
(299.465 0 0)
(299.249 0 0)
(298.995 0 0)
(298.702 0 0)
(298.369 0 0)
(297.996 0 0)
(297.583 0 0)
(297.129 0 0)
(296.633 0 0)
(296.094 0 0)
(295.513 0 0)
(294.887 0 0)
(294.217 0 0)
(293.5 0 0)
(292.736 0 0)
(291.924 0 0)
(291.062 0 0)
(290.148 0 0)
(289.182 0 0)
(288.161 0 0)
(287.083 0 0)
(285.946 0 0)
(284.748 0 0)
(283.486 0 0)
(282.157 0 0)
(280.758 0 0)
(279.284 0 0)
(277.733 0 0)
(276.098 0 0)
(274.376 0 0)
(272.559 0 0)
(270.641 0 0)
(268.613 0 0)
(266.467 0 0)
(264.191 0 0)
(261.772 0 0)
(259.193 0 0)
(256.434 0 0)
(253.475 0 0)
(250.286 0 0)
(246.796 0 0)
(242.901 0 0)
(238.654 0 0)
(234.436 0 0)
(229.852 0 0)
(220.786 0 0)
(200.006 0 0)
(168.031 0 0)
(137.89 0 0)
(119.182 0 0)
(110.406 0 0)
(106.912 0 0)
(105.746 0 0)
(105.575 0 0)
(105.856 0 0)
(106.362 0 0)
(106.996 0 0)
(107.711 0 0)
(108.481 0 0)
(109.291 0 0)
(110.133 0 0)
(111 0 0)
(111.887 0 0)
(112.79 0 0)
(113.707 0 0)
(114.636 0 0)
(115.573 0 0)
(116.523 0 0)
(117.465 0 0)
(118.459 0 0)
(119.314 0 0)
(120.619 0 0)
(299.959 0 0)
(299.975 0 0)
(299.954 0 0)
(299.899 0 0)
(299.807 0 0)
(299.68 0 0)
(299.516 0 0)
(299.316 0 0)
(299.08 0 0)
(298.807 0 0)
(298.496 0 0)
(298.148 0 0)
(297.761 0 0)
(297.336 0 0)
(296.871 0 0)
(296.366 0 0)
(295.821 0 0)
(295.234 0 0)
(294.605 0 0)
(293.933 0 0)
(293.217 0 0)
(292.455 0 0)
(291.647 0 0)
(290.791 0 0)
(289.886 0 0)
(288.93 0 0)
(287.921 0 0)
(286.858 0 0)
(285.739 0 0)
(284.56 0 0)
(283.321 0 0)
(282.017 0 0)
(280.647 0 0)
(279.205 0 0)
(277.69 0 0)
(276.095 0 0)
(274.416 0 0)
(272.648 0 0)
(270.785 0 0)
(268.818 0 0)
(266.739 0 0)
(264.538 0 0)
(262.203 0 0)
(259.72 0 0)
(257.069 0 0)
(254.232 0 0)
(251.186 0 0)
(247.884 0 0)
(244.229 0 0)
(240.165 0 0)
(235.946 0 0)
(231.83 0 0)
(225.816 0 0)
(211.394 0 0)
(183.697 0 0)
(150.846 0 0)
(126.382 0 0)
(113.524 0 0)
(108.04 0 0)
(106.011 0 0)
(105.456 0 0)
(105.545 0 0)
(105.94 0 0)
(106.497 0 0)
(107.152 0 0)
(107.871 0 0)
(108.637 0 0)
(109.437 0 0)
(110.265 0 0)
(111.114 0 0)
(111.982 0 0)
(112.864 0 0)
(113.759 0 0)
(114.663 0 0)
(115.581 0 0)
(116.491 0 0)
(117.453 0 0)
(118.282 0 0)
(119.54 0 0)
(299.974 0 0)
(299.957 0 0)
(299.906 0 0)
(299.821 0 0)
(299.702 0 0)
(299.55 0 0)
(299.362 0 0)
(299.141 0 0)
(298.884 0 0)
(298.592 0 0)
(298.264 0 0)
(297.9 0 0)
(297.5 0 0)
(297.063 0 0)
(296.587 0 0)
(296.074 0 0)
(295.522 0 0)
(294.929 0 0)
(294.297 0 0)
(293.622 0 0)
(292.906 0 0)
(292.145 0 0)
(291.34 0 0)
(290.49 0 0)
(289.591 0 0)
(288.645 0 0)
(287.647 0 0)
(286.598 0 0)
(285.494 0 0)
(284.334 0 0)
(283.115 0 0)
(281.835 0 0)
(280.491 0 0)
(279.079 0 0)
(277.596 0 0)
(276.038 0 0)
(274.4 0 0)
(272.677 0 0)
(270.863 0 0)
(268.951 0 0)
(266.934 0 0)
(264.801 0 0)
(262.543 0 0)
(260.147 0 0)
(257.595 0 0)
(254.868 0 0)
(251.948 0 0)
(248.803 0 0)
(245.361 0 0)
(241.519 0 0)
(237.368 0 0)
(233.306 0 0)
(228.785 0 0)
(219.323 0 0)
(197.718 0 0)
(165.436 0 0)
(135.952 0 0)
(118.098 0 0)
(109.841 0 0)
(106.573 0 0)
(105.482 0 0)
(105.321 0 0)
(105.58 0 0)
(106.05 0 0)
(106.641 0 0)
(107.308 0 0)
(108.027 0 0)
(108.786 0 0)
(109.574 0 0)
(110.387 0 0)
(111.219 0 0)
(112.067 0 0)
(112.929 0 0)
(113.8 0 0)
(114.686 0 0)
(115.566 0 0)
(116.495 0 0)
(117.299 0 0)
(118.511 0 0)
(299.957 0 0)
(299.909 0 0)
(299.829 0 0)
(299.717 0 0)
(299.573 0 0)
(299.396 0 0)
(299.186 0 0)
(298.944 0 0)
(298.668 0 0)
(298.358 0 0)
(298.014 0 0)
(297.636 0 0)
(297.222 0 0)
(296.773 0 0)
(296.288 0 0)
(295.766 0 0)
(295.207 0 0)
(294.609 0 0)
(293.973 0 0)
(293.297 0 0)
(292.579 0 0)
(291.82 0 0)
(291.019 0 0)
(290.172 0 0)
(289.281 0 0)
(288.343 0 0)
(287.356 0 0)
(286.319 0 0)
(285.23 0 0)
(284.087 0 0)
(282.887 0 0)
(281.629 0 0)
(280.309 0 0)
(278.925 0 0)
(277.472 0 0)
(275.948 0 0)
(274.348 0 0)
(272.667 0 0)
(270.899 0 0)
(269.039 0 0)
(267.078 0 0)
(265.009 0 0)
(262.822 0 0)
(260.505 0 0)
(258.043 0 0)
(255.418 0 0)
(252.612 0 0)
(249.603 0 0)
(246.339 0 0)
(242.723 0 0)
(238.722 0 0)
(234.634 0 0)
(230.647 0 0)
(224.376 0 0)
(208.968 0 0)
(180.335 0 0)
(147.824 0 0)
(124.52 0 0)
(112.579 0 0)
(107.552 0 0)
(105.703 0 0)
(105.202 0 0)
(105.291 0 0)
(105.661 0 0)
(106.182 0 0)
(106.794 0 0)
(107.466 0 0)
(108.183 0 0)
(108.932 0 0)
(109.708 0 0)
(110.505 0 0)
(111.319 0 0)
(112.148 0 0)
(112.987 0 0)
(113.841 0 0)
(114.691 0 0)
(115.589 0 0)
(116.367 0 0)
(117.536 0 0)
(299.91 0 0)
(299.834 0 0)
(299.727 0 0)
(299.589 0 0)
(299.421 0 0)
(299.222 0 0)
(298.992 0 0)
(298.73 0 0)
(298.436 0 0)
(298.11 0 0)
(297.751 0 0)
(297.359 0 0)
(296.934 0 0)
(296.474 0 0)
(295.98 0 0)
(295.45 0 0)
(294.885 0 0)
(294.283 0 0)
(293.643 0 0)
(292.965 0 0)
(292.248 0 0)
(291.49 0 0)
(290.691 0 0)
(289.85 0 0)
(288.965 0 0)
(288.035 0 0)
(287.059 0 0)
(286.034 0 0)
(284.959 0 0)
(283.832 0 0)
(282.651 0 0)
(281.414 0 0)
(280.118 0 0)
(278.76 0 0)
(277.337 0 0)
(275.845 0 0)
(274.281 0 0)
(272.639 0 0)
(270.915 0 0)
(269.104 0 0)
(267.197 0 0)
(265.188 0 0)
(263.067 0 0)
(260.824 0 0)
(258.446 0 0)
(255.917 0 0)
(253.217 0 0)
(250.329 0 0)
(247.22 0 0)
(243.811 0 0)
(240.011 0 0)
(235.956 0 0)
(232.054 0 0)
(227.491 0 0)
(217.249 0 0)
(194.324 0 0)
(161.681 0 0)
(133.261 0 0)
(116.659 0 0)
(109.138 0 0)
(106.19 0 0)
(105.215 0 0)
(105.08 0 0)
(105.328 0 0)
(105.77 0 0)
(106.322 0 0)
(106.946 0 0)
(107.619 0 0)
(108.329 0 0)
(109.068 0 0)
(109.83 0 0)
(110.61 0 0)
(111.406 0 0)
(112.214 0 0)
(113.037 0 0)
(113.857 0 0)
(114.724 0 0)
(115.477 0 0)
(116.605 0 0)
(299.835 0 0)
(299.733 0 0)
(299.601 0 0)
(299.441 0 0)
(299.251 0 0)
(299.031 0 0)
(298.782 0 0)
(298.502 0 0)
(298.192 0 0)
(297.851 0 0)
(297.478 0 0)
(297.074 0 0)
(296.638 0 0)
(296.169 0 0)
(295.666 0 0)
(295.13 0 0)
(294.559 0 0)
(293.953 0 0)
(293.311 0 0)
(292.631 0 0)
(291.915 0 0)
(291.159 0 0)
(290.364 0 0)
(289.528 0 0)
(288.65 0 0)
(287.728 0 0)
(286.762 0 0)
(285.749 0 0)
(284.688 0 0)
(283.578 0 0)
(282.415 0 0)
(281.199 0 0)
(279.925 0 0)
(278.593 0 0)
(277.198 0 0)
(275.738 0 0)
(274.208 0 0)
(272.605 0 0)
(270.923 0 0)
(269.158 0 0)
(267.303 0 0)
(265.351 0 0)
(263.293 0 0)
(261.121 0 0)
(258.822 0 0)
(256.382 0 0)
(253.783 0 0)
(251.009 0 0)
(248.035 0 0)
(244.808 0 0)
(241.228 0 0)
(237.293 0 0)
(233.347 0 0)
(229.471 0 0)
(222.825 0 0)
(206.244 0 0)
(176.643 0 0)
(144.629 0 0)
(122.613 0 0)
(111.632 0 0)
(107.07 0 0)
(105.405 0 0)
(104.962 0 0)
(105.054 0 0)
(105.402 0 0)
(105.889 0 0)
(106.461 0 0)
(107.089 0 0)
(107.759 0 0)
(108.461 0 0)
(109.188 0 0)
(109.935 0 0)
(110.699 0 0)
(111.475 0 0)
(112.268 0 0)
(113.058 0 0)
(113.894 0 0)
(114.622 0 0)
(115.71 0 0)
(299.736 0 0)
(299.609 0 0)
(299.455 0 0)
(299.273 0 0)
(299.063 0 0)
(298.824 0 0)
(298.558 0 0)
(298.262 0 0)
(297.937 0 0)
(297.582 0 0)
(297.197 0 0)
(296.782 0 0)
(296.336 0 0)
(295.859 0 0)
(295.349 0 0)
(294.807 0 0)
(294.232 0 0)
(293.622 0 0)
(292.978 0 0)
(292.299 0 0)
(291.583 0 0)
(290.83 0 0)
(290.038 0 0)
(289.208 0 0)
(288.337 0 0)
(287.424 0 0)
(286.468 0 0)
(285.468 0 0)
(284.421 0 0)
(283.326 0 0)
(282.182 0 0)
(280.986 0 0)
(279.735 0 0)
(278.428 0 0)
(277.061 0 0)
(275.631 0 0)
(274.135 0 0)
(272.569 0 0)
(270.928 0 0)
(269.207 0 0)
(267.402 0 0)
(265.504 0 0)
(263.507 0 0)
(261.402 0 0)
(259.178 0 0)
(256.823 0 0)
(254.32 0 0)
(251.653 0 0)
(248.802 0 0)
(245.733 0 0)
(242.364 0 0)
(238.615 0 0)
(234.666 0 0)
(230.923 0 0)
(226.311 0 0)
(215.348 0 0)
(191.301 0 0)
(158.464 0 0)
(131.022 0 0)
(115.471 0 0)
(108.545 0 0)
(105.852 0 0)
(104.966 0 0)
(104.849 0 0)
(105.083 0 0)
(105.495 0 0)
(106.011 0 0)
(106.593 0 0)
(107.221 0 0)
(107.885 0 0)
(108.577 0 0)
(109.29 0 0)
(110.022 0 0)
(110.767 0 0)
(111.529 0 0)
(112.29 0 0)
(113.096 0 0)
(113.8 0 0)
(114.849 0 0)
(299.613 0 0)
(299.464 0 0)
(299.289 0 0)
(299.087 0 0)
(298.859 0 0)
(298.604 0 0)
(298.321 0 0)
(298.011 0 0)
(297.672 0 0)
(297.305 0 0)
(296.91 0 0)
(296.485 0 0)
(296.03 0 0)
(295.545 0 0)
(295.03 0 0)
(294.483 0 0)
(293.903 0 0)
(293.292 0 0)
(292.647 0 0)
(291.968 0 0)
(291.253 0 0)
(290.503 0 0)
(289.716 0 0)
(288.892 0 0)
(288.028 0 0)
(287.124 0 0)
(286.179 0 0)
(285.191 0 0)
(284.158 0 0)
(283.08 0 0)
(281.953 0 0)
(280.777 0 0)
(279.548 0 0)
(278.266 0 0)
(276.926 0 0)
(275.526 0 0)
(274.062 0 0)
(272.532 0 0)
(270.931 0 0)
(269.254 0 0)
(267.496 0 0)
(265.651 0 0)
(263.713 0 0)
(261.672 0 0)
(259.519 0 0)
(257.244 0 0)
(254.832 0 0)
(252.267 0 0)
(249.53 0 0)
(246.6 0 0)
(243.419 0 0)
(239.888 0 0)
(236.031 0 0)
(232.228 0 0)
(228.467 0 0)
(221.552 0 0)
(204.12 0 0)
(173.881 0 0)
(142.307 0 0)
(121.236 0 0)
(110.928 0 0)
(106.687 0 0)
(105.145 0 0)
(104.735 0 0)
(104.82 0 0)
(105.143 0 0)
(105.596 0 0)
(106.128 0 0)
(106.714 0 0)
(107.34 0 0)
(107.995 0 0)
(108.675 0 0)
(109.375 0 0)
(110.089 0 0)
(110.821 0 0)
(111.553 0 0)
(112.329 0 0)
(113.007 0 0)
(114.019 0 0)
(299.469 0 0)
(299.3 0 0)
(299.106 0 0)
(298.887 0 0)
(298.642 0 0)
(298.371 0 0)
(298.074 0 0)
(297.75 0 0)
(297.4 0 0)
(297.022 0 0)
(296.616 0 0)
(296.183 0 0)
(295.721 0 0)
(295.229 0 0)
(294.708 0 0)
(294.157 0 0)
(293.576 0 0)
(292.962 0 0)
(292.317 0 0)
(291.639 0 0)
(290.927 0 0)
(290.18 0 0)
(289.398 0 0)
(288.58 0 0)
(287.724 0 0)
(286.829 0 0)
(285.895 0 0)
(284.919 0 0)
(283.9 0 0)
(282.838 0 0)
(281.729 0 0)
(280.572 0 0)
(279.366 0 0)
(278.107 0 0)
(276.794 0 0)
(275.423 0 0)
(273.992 0 0)
(272.497 0 0)
(270.934 0 0)
(269.299 0 0)
(267.587 0 0)
(265.793 0 0)
(263.91 0 0)
(261.931 0 0)
(259.847 0 0)
(257.648 0 0)
(255.322 0 0)
(252.853 0 0)
(250.224 0 0)
(247.419 0 0)
(244.4 0 0)
(241.083 0 0)
(237.401 0 0)
(233.563 0 0)
(229.973 0 0)
(225.382 0 0)
(214.006 0 0)
(189.3 0 0)
(156.393 0 0)
(129.585 0 0)
(114.684 0 0)
(108.122 0 0)
(105.58 0 0)
(104.742 0 0)
(104.626 0 0)
(104.838 0 0)
(105.219 0 0)
(105.697 0 0)
(106.238 0 0)
(106.824 0 0)
(107.444 0 0)
(108.089 0 0)
(108.756 0 0)
(109.44 0 0)
(110.142 0 0)
(110.845 0 0)
(111.591 0 0)
(112.246 0 0)
(113.219 0 0)
(299.306 0 0)
(299.119 0 0)
(298.908 0 0)
(298.672 0 0)
(298.412 0 0)
(298.127 0 0)
(297.817 0 0)
(297.481 0 0)
(297.12 0 0)
(296.732 0 0)
(296.318 0 0)
(295.877 0 0)
(295.408 0 0)
(294.912 0 0)
(294.386 0 0)
(293.832 0 0)
(293.248 0 0)
(292.634 0 0)
(291.989 0 0)
(291.312 0 0)
(290.603 0 0)
(289.86 0 0)
(289.084 0 0)
(288.272 0 0)
(287.424 0 0)
(286.539 0 0)
(285.615 0 0)
(284.652 0 0)
(283.648 0 0)
(282.601 0 0)
(281.51 0 0)
(280.373 0 0)
(279.188 0 0)
(277.953 0 0)
(276.666 0 0)
(275.323 0 0)
(273.923 0 0)
(272.462 0 0)
(270.936 0 0)
(269.342 0 0)
(267.675 0 0)
(265.93 0 0)
(264.1 0 0)
(262.18 0 0)
(260.162 0 0)
(258.036 0 0)
(255.791 0 0)
(253.413 0 0)
(250.887 0 0)
(248.197 0 0)
(245.318 0 0)
(242.194 0 0)
(238.727 0 0)
(234.959 0 0)
(231.291 0 0)
(227.667 0 0)
(220.701 0 0)
(202.902 0 0)
(172.373 0 0)
(141.035 0 0)
(120.448 0 0)
(110.488 0 0)
(106.411 0 0)
(104.925 0 0)
(104.522 0 0)
(104.59 0 0)
(104.884 0 0)
(105.301 0 0)
(105.794 0 0)
(106.339 0 0)
(106.921 0 0)
(107.532 0 0)
(108.167 0 0)
(108.82 0 0)
(109.491 0 0)
(110.166 0 0)
(110.883 0 0)
(111.513 0 0)
(112.45 0 0)
(299.127 0 0)
(298.922 0 0)
(298.695 0 0)
(298.445 0 0)
(298.171 0 0)
(297.873 0 0)
(297.551 0 0)
(297.205 0 0)
(296.834 0 0)
(296.438 0 0)
(296.016 0 0)
(295.568 0 0)
(295.094 0 0)
(294.592 0 0)
(294.064 0 0)
(293.507 0 0)
(292.922 0 0)
(292.307 0 0)
(291.663 0 0)
(290.988 0 0)
(290.282 0 0)
(289.544 0 0)
(288.773 0 0)
(287.968 0 0)
(287.129 0 0)
(286.253 0 0)
(285.341 0 0)
(284.39 0 0)
(283.4 0 0)
(282.369 0 0)
(281.295 0 0)
(280.178 0 0)
(279.014 0 0)
(277.802 0 0)
(276.54 0 0)
(275.226 0 0)
(273.856 0 0)
(272.428 0 0)
(270.939 0 0)
(269.384 0 0)
(267.76 0 0)
(266.062 0 0)
(264.284 0 0)
(262.421 0 0)
(260.465 0 0)
(258.408 0 0)
(256.24 0 0)
(253.949 0 0)
(251.52 0 0)
(248.938 0 0)
(246.185 0 0)
(243.225 0 0)
(239.975 0 0)
(236.372 0 0)
(232.643 0 0)
(229.2 0 0)
(224.741 0 0)
(213.354 0 0)
(188.494 0 0)
(155.561 0 0)
(128.958 0 0)
(114.289 0 0)
(107.861 0 0)
(105.373 0 0)
(104.542 0 0)
(104.411 0 0)
(104.597 0 0)
(104.944 0 0)
(105.384 0 0)
(105.885 0 0)
(106.429 0 0)
(107.005 0 0)
(107.607 0 0)
(108.228 0 0)
(108.87 0 0)
(109.516 0 0)
(110.204 0 0)
(110.81 0 0)
(111.71 0 0)
(298.931 0 0)
(298.712 0 0)
(298.47 0 0)
(298.206 0 0)
(297.92 0 0)
(297.611 0 0)
(297.278 0 0)
(296.922 0 0)
(296.543 0 0)
(296.139 0 0)
(295.71 0 0)
(295.257 0 0)
(294.778 0 0)
(294.273 0 0)
(293.741 0 0)
(293.183 0 0)
(292.597 0 0)
(291.983 0 0)
(291.34 0 0)
(290.668 0 0)
(289.965 0 0)
(289.232 0 0)
(288.467 0 0)
(287.669 0 0)
(286.838 0 0)
(285.973 0 0)
(285.071 0 0)
(284.133 0 0)
(283.157 0 0)
(282.142 0 0)
(281.085 0 0)
(279.987 0 0)
(278.844 0 0)
(277.655 0 0)
(276.418 0 0)
(275.131 0 0)
(273.791 0 0)
(272.395 0 0)
(270.941 0 0)
(269.424 0 0)
(267.842 0 0)
(266.189 0 0)
(264.461 0 0)
(262.652 0 0)
(260.756 0 0)
(258.765 0 0)
(256.67 0 0)
(254.461 0 0)
(252.124 0 0)
(249.644 0 0)
(247.006 0 0)
(244.189 0 0)
(241.133 0 0)
(237.744 0 0)
(234.07 0 0)
(230.525 0 0)
(227.068 0 0)
(220.312 0 0)
(202.682 0 0)
(172.185 0 0)
(140.811 0 0)
(120.228 0 0)
(110.295 0 0)
(106.234 0 0)
(104.745 0 0)
(104.325 0 0)
(104.366 0 0)
(104.628 0 0)
(105.008 0 0)
(105.462 0 0)
(105.966 0 0)
(106.506 0 0)
(107.075 0 0)
(107.665 0 0)
(108.277 0 0)
(108.895 0 0)
(109.554 0 0)
(110.135 0 0)
(111 0 0)
(298.722 0 0)
(298.488 0 0)
(298.234 0 0)
(297.958 0 0)
(297.66 0 0)
(297.34 0 0)
(296.999 0 0)
(296.634 0 0)
(296.247 0 0)
(295.836 0 0)
(295.402 0 0)
(294.943 0 0)
(294.46 0 0)
(293.952 0 0)
(293.419 0 0)
(292.86 0 0)
(292.274 0 0)
(291.66 0 0)
(291.02 0 0)
(290.35 0 0)
(289.652 0 0)
(288.924 0 0)
(288.165 0 0)
(287.375 0 0)
(286.552 0 0)
(285.697 0 0)
(284.807 0 0)
(283.881 0 0)
(282.919 0 0)
(281.919 0 0)
(280.88 0 0)
(279.8 0 0)
(278.678 0 0)
(277.512 0 0)
(276.299 0 0)
(275.038 0 0)
(273.727 0 0)
(272.363 0 0)
(270.942 0 0)
(269.463 0 0)
(267.921 0 0)
(266.312 0 0)
(264.631 0 0)
(262.875 0 0)
(261.036 0 0)
(259.107 0 0)
(257.082 0 0)
(254.95 0 0)
(252.7 0 0)
(250.318 0 0)
(247.788 0 0)
(245.095 0 0)
(242.205 0 0)
(239.034 0 0)
(235.522 0 0)
(231.895 0 0)
(228.589 0 0)
(224.384 0 0)
(213.421 0 0)
(188.93 0 0)
(155.985 0 0)
(129.133 0 0)
(114.273 0 0)
(107.757 0 0)
(105.228 0 0)
(104.368 0 0)
(104.207 0 0)
(104.36 0 0)
(104.671 0 0)
(105.073 0 0)
(105.534 0 0)
(106.037 0 0)
(106.572 0 0)
(107.13 0 0)
(107.712 0 0)
(108.301 0 0)
(108.932 0 0)
(109.489 0 0)
(110.318 0 0)
(298.5 0 0)
(298.254 0 0)
(297.987 0 0)
(297.7 0 0)
(297.392 0 0)
(297.064 0 0)
(296.713 0 0)
(296.341 0 0)
(295.947 0 0)
(295.531 0 0)
(295.092 0 0)
(294.629 0 0)
(294.143 0 0)
(293.633 0 0)
(293.098 0 0)
(292.538 0 0)
(291.952 0 0)
(291.341 0 0)
(290.702 0 0)
(290.036 0 0)
(289.342 0 0)
(288.62 0 0)
(287.868 0 0)
(287.085 0 0)
(286.271 0 0)
(285.426 0 0)
(284.547 0 0)
(283.634 0 0)
(282.686 0 0)
(281.702 0 0)
(280.679 0 0)
(279.618 0 0)
(278.516 0 0)
(277.372 0 0)
(276.183 0 0)
(274.948 0 0)
(273.665 0 0)
(272.331 0 0)
(270.944 0 0)
(269.5 0 0)
(267.997 0 0)
(266.43 0 0)
(264.796 0 0)
(263.089 0 0)
(261.305 0 0)
(259.437 0 0)
(257.478 0 0)
(255.419 0 0)
(253.251 0 0)
(250.96 0 0)
(248.533 0 0)
(245.954 0 0)
(243.204 0 0)
(240.227 0 0)
(236.93 0 0)
(233.354 0 0)
(229.912 0 0)
(226.649 0 0)
(220.367 0 0)
(203.466 0 0)
(173.345 0 0)
(141.66 0 0)
(120.584 0 0)
(110.352 0 0)
(106.157 0 0)
(104.606 0 0)
(104.145 0 0)
(104.15 0 0)
(104.376 0 0)
(104.719 0 0)
(105.135 0 0)
(105.598 0 0)
(106.098 0 0)
(106.624 0 0)
(107.175 0 0)
(107.736 0 0)
(108.338 0 0)
(108.872 0 0)
(109.665 0 0)
(298.267 0 0)
(298.009 0 0)
(297.732 0 0)
(297.435 0 0)
(297.118 0 0)
(296.781 0 0)
(296.423 0 0)
(296.045 0 0)
(295.645 0 0)
(295.223 0 0)
(294.78 0 0)
(294.314 0 0)
(293.825 0 0)
(293.313 0 0)
(292.778 0 0)
(292.218 0 0)
(291.633 0 0)
(291.023 0 0)
(290.388 0 0)
(289.726 0 0)
(289.037 0 0)
(288.32 0 0)
(287.574 0 0)
(286.8 0 0)
(285.995 0 0)
(285.16 0 0)
(284.292 0 0)
(283.392 0 0)
(282.458 0 0)
(281.489 0 0)
(280.483 0 0)
(279.44 0 0)
(278.358 0 0)
(277.235 0 0)
(276.07 0 0)
(274.86 0 0)
(273.604 0 0)
(272.3 0 0)
(270.945 0 0)
(269.536 0 0)
(268.07 0 0)
(266.544 0 0)
(264.954 0 0)
(263.295 0 0)
(261.564 0 0)
(259.753 0 0)
(257.857 0 0)
(255.868 0 0)
(253.777 0 0)
(251.573 0 0)
(249.242 0 0)
(246.771 0 0)
(244.144 0 0)
(241.33 0 0)
(238.251 0 0)
(234.839 0 0)
(231.307 0 0)
(228.12 0 0)
(224.272 0 0)
(214.166 0 0)
(190.61 0 0)
(157.717 0 0)
(130.156 0 0)
(114.658 0 0)
(107.818 0 0)
(105.149 0 0)
(104.222 0 0)
(104.016 0 0)
(104.13 0 0)
(104.404 0 0)
(104.768 0 0)
(105.19 0 0)
(105.653 0 0)
(106.146 0 0)
(106.667 0 0)
(107.198 0 0)
(107.771 0 0)
(108.281 0 0)
(109.04 0 0)
(298.024 0 0)
(297.756 0 0)
(297.469 0 0)
(297.163 0 0)
(296.838 0 0)
(296.494 0 0)
(296.13 0 0)
(295.745 0 0)
(295.34 0 0)
(294.915 0 0)
(294.468 0 0)
(293.999 0 0)
(293.508 0 0)
(292.995 0 0)
(292.459 0 0)
(291.9 0 0)
(291.317 0 0)
(290.709 0 0)
(290.077 0 0)
(289.419 0 0)
(288.735 0 0)
(288.024 0 0)
(287.286 0 0)
(286.519 0 0)
(285.724 0 0)
(284.898 0 0)
(284.042 0 0)
(283.155 0 0)
(282.234 0 0)
(281.28 0 0)
(280.291 0 0)
(279.266 0 0)
(278.203 0 0)
(277.101 0 0)
(275.959 0 0)
(274.774 0 0)
(273.545 0 0)
(272.27 0 0)
(270.945 0 0)
(269.57 0 0)
(268.14 0 0)
(266.654 0 0)
(265.106 0 0)
(263.494 0 0)
(261.813 0 0)
(260.057 0 0)
(258.221 0 0)
(256.298 0 0)
(254.28 0 0)
(252.157 0 0)
(249.917 0 0)
(247.548 0 0)
(245.034 0 0)
(242.358 0 0)
(239.469 0 0)
(236.276 0 0)
(232.8 0 0)
(229.442 0 0)
(226.375 0 0)
(220.798 0 0)
(205.194 0 0)
(175.884 0 0)
(143.669 0 0)
(121.58 0 0)
(110.687 0 0)
(106.192 0 0)
(104.513 0 0)
(103.986 0 0)
(103.946 0 0)
(104.132 0 0)
(104.437 0 0)
(104.813 0 0)
(105.238 0 0)
(105.697 0 0)
(106.186 0 0)
(106.689 0 0)
(107.233 0 0)
(107.719 0 0)
(108.443 0 0)
(297.772 0 0)
(297.495 0 0)
(297.199 0 0)
(296.886 0 0)
(296.553 0 0)
(296.203 0 0)
(295.833 0 0)
(295.443 0 0)
(295.034 0 0)
(294.605 0 0)
(294.155 0 0)
(293.684 0 0)
(293.192 0 0)
(292.679 0 0)
(292.143 0 0)
(291.585 0 0)
(291.003 0 0)
(290.399 0 0)
(289.77 0 0)
(289.116 0 0)
(288.437 0 0)
(287.733 0 0)
(287.002 0 0)
(286.243 0 0)
(285.457 0 0)
(284.642 0 0)
(283.797 0 0)
(282.922 0 0)
(282.016 0 0)
(281.076 0 0)
(280.104 0 0)
(279.096 0 0)
(278.052 0 0)
(276.971 0 0)
(275.851 0 0)
(274.691 0 0)
(273.487 0 0)
(272.24 0 0)
(270.946 0 0)
(269.603 0 0)
(268.209 0 0)
(266.76 0 0)
(265.253 0 0)
(263.686 0 0)
(262.052 0 0)
(260.349 0 0)
(258.571 0 0)
(256.71 0 0)
(254.761 0 0)
(252.715 0 0)
(250.561 0 0)
(248.287 0 0)
(245.879 0 0)
(243.324 0 0)
(240.594 0 0)
(237.616 0 0)
(234.316 0 0)
(230.87 0 0)
(227.773 0 0)
(224.342 0 0)
(215.474 0 0)
(193.486 0 0)
(160.845 0 0)
(132.146 0 0)
(115.514 0 0)
(108.074 0 0)
(105.149 0 0)
(104.109 0 0)
(103.841 0 0)
(103.911 0 0)
(104.145 0 0)
(104.47 0 0)
(104.854 0 0)
(105.277 0 0)
(105.734 0 0)
(106.207 0 0)
(106.722 0 0)
(107.183 0 0)
(107.873 0 0)
(297.512 0 0)
(297.227 0 0)
(296.924 0 0)
(296.603 0 0)
(296.265 0 0)
(295.908 0 0)
(295.533 0 0)
(295.139 0 0)
(294.726 0 0)
(294.294 0 0)
(293.842 0 0)
(293.37 0 0)
(292.877 0 0)
(292.364 0 0)
(291.829 0 0)
(291.272 0 0)
(290.693 0 0)
(290.091 0 0)
(289.466 0 0)
(288.817 0 0)
(288.144 0 0)
(287.446 0 0)
(286.722 0 0)
(285.972 0 0)
(285.195 0 0)
(284.39 0 0)
(283.557 0 0)
(282.694 0 0)
(281.801 0 0)
(280.877 0 0)
(279.92 0 0)
(278.93 0 0)
(277.905 0 0)
(276.844 0 0)
(275.746 0 0)
(274.609 0 0)
(273.431 0 0)
(272.211 0 0)
(270.946 0 0)
(269.635 0 0)
(268.274 0 0)
(266.862 0 0)
(265.395 0 0)
(263.87 0 0)
(262.283 0 0)
(260.63 0 0)
(258.906 0 0)
(257.106 0 0)
(255.222 0 0)
(253.248 0 0)
(251.175 0 0)
(248.99 0 0)
(246.683 0 0)
(244.238 0 0)
(241.641 0 0)
(238.848 0 0)
(235.77 0 0)
(232.402 0 0)
(229.106 0 0)
(226.21 0 0)
(221.485 0 0)
(207.724 0 0)
(179.814 0 0)
(146.991 0 0)
(123.346 0 0)
(111.365 0 0)
(106.365 0 0)
(104.475 0 0)
(103.852 0 0)
(103.755 0 0)
(103.898 0 0)
(104.163 0 0)
(104.501 0 0)
(104.887 0 0)
(105.31 0 0)
(105.752 0 0)
(106.238 0 0)
(106.675 0 0)
(107.33 0 0)
(297.246 0 0)
(296.953 0 0)
(296.643 0 0)
(296.316 0 0)
(295.972 0 0)
(295.611 0 0)
(295.232 0 0)
(294.834 0 0)
(294.418 0 0)
(293.984 0 0)
(293.53 0 0)
(293.057 0 0)
(292.564 0 0)
(292.051 0 0)
(291.517 0 0)
(290.962 0 0)
(290.386 0 0)
(289.788 0 0)
(289.167 0 0)
(288.523 0 0)
(287.856 0 0)
(287.164 0 0)
(286.448 0 0)
(285.706 0 0)
(284.938 0 0)
(284.144 0 0)
(283.322 0 0)
(282.471 0 0)
(281.592 0 0)
(280.682 0 0)
(279.741 0 0)
(278.768 0 0)
(277.762 0 0)
(276.721 0 0)
(275.644 0 0)
(274.529 0 0)
(273.376 0 0)
(272.182 0 0)
(270.946 0 0)
(269.665 0 0)
(268.338 0 0)
(266.961 0 0)
(265.532 0 0)
(264.048 0 0)
(262.505 0 0)
(260.901 0 0)
(259.229 0 0)
(257.485 0 0)
(255.664 0 0)
(253.758 0 0)
(251.76 0 0)
(249.66 0 0)
(247.447 0 0)
(245.106 0 0)
(242.627 0 0)
(239.986 0 0)
(237.118 0 0)
(233.942 0 0)
(230.58 0 0)
(227.536 0 0)
(224.513 0 0)
(217.162 0 0)
(197.429 0 0)
(165.474 0 0)
(135.298 0 0)
(116.967 0 0)
(108.578 0 0)
(105.247 0 0)
(104.038 0 0)
(103.688 0 0)
(103.705 0 0)
(103.896 0 0)
(104.182 0 0)
(104.527 0 0)
(104.915 0 0)
(105.326 0 0)
(105.781 0 0)
(106.194 0 0)
(106.814 0 0)
(296.974 0 0)
(296.674 0 0)
(296.358 0 0)
(296.026 0 0)
(295.677 0 0)
(295.312 0 0)
(294.929 0 0)
(294.528 0 0)
(294.11 0 0)
(293.674 0 0)
(293.219 0 0)
(292.746 0 0)
(292.253 0 0)
(291.741 0 0)
(291.208 0 0)
(290.656 0 0)
(290.082 0 0)
(289.488 0 0)
(288.871 0 0)
(288.233 0 0)
(287.571 0 0)
(286.886 0 0)
(286.178 0 0)
(285.445 0 0)
(284.686 0 0)
(283.902 0 0)
(283.091 0 0)
(282.253 0 0)
(281.387 0 0)
(280.492 0 0)
(279.566 0 0)
(278.61 0 0)
(277.622 0 0)
(276.6 0 0)
(275.544 0 0)
(274.452 0 0)
(273.323 0 0)
(272.154 0 0)
(270.946 0 0)
(269.694 0 0)
(268.399 0 0)
(267.056 0 0)
(265.664 0 0)
(264.219 0 0)
(262.719 0 0)
(261.161 0 0)
(259.539 0 0)
(257.849 0 0)
(256.087 0 0)
(254.246 0 0)
(252.32 0 0)
(250.299 0 0)
(248.173 0 0)
(245.931 0 0)
(243.56 0 0)
(241.047 0 0)
(238.355 0 0)
(235.402 0 0)
(232.151 0 0)
(228.901 0 0)
(226.119 0 0)
(222.277 0 0)
(210.815 0 0)
(185.08 0 0)
(151.829 0 0)
(126.096 0 0)
(112.497 0 0)
(106.721 0 0)
(104.512 0 0)
(103.751 0 0)
(103.583 0 0)
(103.676 0 0)
(103.901 0 0)
(104.199 0 0)
(104.549 0 0)
(104.928 0 0)
(105.353 0 0)
(105.74 0 0)
(106.326 0 0)
(296.697 0 0)
(296.391 0 0)
(296.07 0 0)
(295.733 0 0)
(295.38 0 0)
(295.011 0 0)
(294.625 0 0)
(294.223 0 0)
(293.803 0 0)
(293.365 0 0)
(292.91 0 0)
(292.436 0 0)
(291.944 0 0)
(291.433 0 0)
(290.903 0 0)
(290.353 0 0)
(289.783 0 0)
(289.192 0 0)
(288.58 0 0)
(287.947 0 0)
(287.291 0 0)
(286.614 0 0)
(285.913 0 0)
(285.188 0 0)
(284.439 0 0)
(283.665 0 0)
(282.866 0 0)
(282.04 0 0)
(281.187 0 0)
(280.305 0 0)
(279.395 0 0)
(278.456 0 0)
(277.485 0 0)
(276.482 0 0)
(275.446 0 0)
(274.376 0 0)
(273.27 0 0)
(272.127 0 0)
(270.945 0 0)
(269.723 0 0)
(268.458 0 0)
(267.148 0 0)
(265.791 0 0)
(264.384 0 0)
(262.926 0 0)
(261.411 0 0)
(259.837 0 0)
(258.199 0 0)
(256.493 0 0)
(254.714 0 0)
(252.854 0 0)
(250.908 0 0)
(248.865 0 0)
(246.715 0 0)
(244.446 0 0)
(242.046 0 0)
(239.497 0 0)
(236.746 0 0)
(233.704 0 0)
(230.433 0 0)
(227.405 0 0)
(224.706 0 0)
(218.986 0 0)
(202.189 0 0)
(171.676 0 0)
(139.893 0 0)
(119.223 0 0)
(109.427 0 0)
(105.482 0 0)
(104.024 0 0)
(103.562 0 0)
(103.515 0 0)
(103.661 0 0)
(103.906 0 0)
(104.215 0 0)
(104.559 0 0)
(104.951 0 0)
(105.313 0 0)
(105.864 0 0)
(296.416 0 0)
(296.105 0 0)
(295.779 0 0)
(295.438 0 0)
(295.082 0 0)
(294.71 0 0)
(294.321 0 0)
(293.917 0 0)
(293.496 0 0)
(293.057 0 0)
(292.602 0 0)
(292.129 0 0)
(291.638 0 0)
(291.128 0 0)
(290.6 0 0)
(290.053 0 0)
(289.487 0 0)
(288.9 0 0)
(288.293 0 0)
(287.665 0 0)
(287.016 0 0)
(286.346 0 0)
(285.652 0 0)
(284.936 0 0)
(284.197 0 0)
(283.433 0 0)
(282.645 0 0)
(281.831 0 0)
(280.991 0 0)
(280.124 0 0)
(279.229 0 0)
(278.305 0 0)
(277.351 0 0)
(276.367 0 0)
(275.351 0 0)
(274.303 0 0)
(273.219 0 0)
(272.101 0 0)
(270.945 0 0)
(269.75 0 0)
(268.514 0 0)
(267.236 0 0)
(265.914 0 0)
(264.544 0 0)
(263.124 0 0)
(261.652 0 0)
(260.123 0 0)
(258.535 0 0)
(256.883 0 0)
(255.162 0 0)
(253.366 0 0)
(251.489 0 0)
(249.524 0 0)
(247.46 0 0)
(245.287 0 0)
(242.992 0 0)
(240.565 0 0)
(237.978 0 0)
(235.157 0 0)
(232.038 0 0)
(228.833 0 0)
(226.086 0 0)
(223.02 0 0)
(214.129 0 0)
(191.494 0 0)
(158.403 0 0)
(130.148 0 0)
(114.27 0 0)
(107.337 0 0)
(104.652 0 0)
(103.696 0 0)
(103.435 0 0)
(103.471 0 0)
(103.651 0 0)
(103.913 0 0)
(104.22 0 0)
(104.579 0 0)
(104.913 0 0)
(105.429 0 0)
(296.131 0 0)
(295.816 0 0)
(295.486 0 0)
(295.142 0 0)
(294.783 0 0)
(294.408 0 0)
(294.018 0 0)
(293.612 0 0)
(293.19 0 0)
(292.751 0 0)
(292.296 0 0)
(291.824 0 0)
(291.334 0 0)
(290.827 0 0)
(290.301 0 0)
(289.757 0 0)
(289.194 0 0)
(288.612 0 0)
(288.01 0 0)
(287.388 0 0)
(286.746 0 0)
(286.082 0 0)
(285.397 0 0)
(284.689 0 0)
(283.959 0 0)
(283.206 0 0)
(282.428 0 0)
(281.626 0 0)
(280.799 0 0)
(279.946 0 0)
(279.066 0 0)
(278.158 0 0)
(277.221 0 0)
(276.256 0 0)
(275.259 0 0)
(274.231 0 0)
(273.17 0 0)
(272.075 0 0)
(270.944 0 0)
(269.776 0 0)
(268.569 0 0)
(267.322 0 0)
(266.032 0 0)
(264.697 0 0)
(263.316 0 0)
(261.884 0 0)
(260.399 0 0)
(258.858 0 0)
(257.257 0 0)
(255.591 0 0)
(253.855 0 0)
(252.045 0 0)
(250.152 0 0)
(248.169 0 0)
(246.085 0 0)
(243.89 0 0)
(241.572 0 0)
(239.118 0 0)
(236.486 0 0)
(233.59 0 0)
(230.428 0 0)
(227.389 0 0)
(224.872 0 0)
(220.68 0 0)
(207.363 0 0)
(179.402 0 0)
(146.281 0 0)
(122.603 0 0)
(110.779 0 0)
(105.916 0 0)
(104.089 0 0)
(103.473 0 0)
(103.348 0 0)
(103.441 0 0)
(103.646 0 0)
(103.911 0 0)
(104.235 0 0)
(104.541 0 0)
(105.021 0 0)
(295.844 0 0)
(295.525 0 0)
(295.192 0 0)
(294.845 0 0)
(294.483 0 0)
(294.107 0 0)
(293.715 0 0)
(293.308 0 0)
(292.886 0 0)
(292.447 0 0)
(291.993 0 0)
(291.522 0 0)
(291.034 0 0)
(290.529 0 0)
(290.006 0 0)
(289.465 0 0)
(288.906 0 0)
(288.329 0 0)
(287.732 0 0)
(287.116 0 0)
(286.48 0 0)
(285.824 0 0)
(285.146 0 0)
(284.447 0 0)
(283.726 0 0)
(282.983 0 0)
(282.217 0 0)
(281.427 0 0)
(280.612 0 0)
(279.772 0 0)
(278.907 0 0)
(278.014 0 0)
(277.095 0 0)
(276.146 0 0)
(275.169 0 0)
(274.161 0 0)
(273.121 0 0)
(272.049 0 0)
(270.943 0 0)
(269.801 0 0)
(268.622 0 0)
(267.404 0 0)
(266.146 0 0)
(264.846 0 0)
(263.5 0 0)
(262.107 0 0)
(260.664 0 0)
(259.168 0 0)
(257.616 0 0)
(256.003 0 0)
(254.324 0 0)
(252.576 0 0)
(250.751 0 0)
(248.843 0 0)
(246.844 0 0)
(244.742 0 0)
(242.526 0 0)
(240.187 0 0)
(237.705 0 0)
(235.021 0 0)
(232.05 0 0)
(228.906 0 0)
(226.122 0 0)
(223.6 0 0)
(217.262 0 0)
(198.657 0 0)
(166.858 0 0)
(135.939 0 0)
(116.98 0 0)
(108.345 0 0)
(104.944 0 0)
(103.704 0 0)
(103.318 0 0)
(103.287 0 0)
(103.42 0 0)
(103.637 0 0)
(103.921 0 0)
(104.197 0 0)
(104.64 0 0)
(295.555 0 0)
(295.232 0 0)
(294.897 0 0)
(294.547 0 0)
(294.184 0 0)
(293.806 0 0)
(293.413 0 0)
(293.006 0 0)
(292.583 0 0)
(292.146 0 0)
(291.692 0 0)
(291.222 0 0)
(290.736 0 0)
(290.234 0 0)
(289.714 0 0)
(289.177 0 0)
(288.623 0 0)
(288.05 0 0)
(287.459 0 0)
(286.848 0 0)
(286.219 0 0)
(285.57 0 0)
(284.9 0 0)
(284.21 0 0)
(283.499 0 0)
(282.765 0 0)
(282.01 0 0)
(281.231 0 0)
(280.429 0 0)
(279.603 0 0)
(278.751 0 0)
(277.875 0 0)
(276.971 0 0)
(276.04 0 0)
(275.081 0 0)
(274.093 0 0)
(273.074 0 0)
(272.024 0 0)
(270.941 0 0)
(269.825 0 0)
(268.673 0 0)
(267.484 0 0)
(266.256 0 0)
(264.988 0 0)
(263.678 0 0)
(262.322 0 0)
(260.92 0 0)
(259.467 0 0)
(257.961 0 0)
(256.397 0 0)
(254.774 0 0)
(253.084 0 0)
(251.324 0 0)
(249.486 0 0)
(247.565 0 0)
(245.55 0 0)
(243.431 0 0)
(241.197 0 0)
(238.838 0 0)
(236.325 0 0)
(233.581 0 0)
(230.554 0 0)
(227.508 0 0)
(225.012 0 0)
(222.022 0 0)
(212.404 0 0)
(188.355 0 0)
(154.813 0 0)
(127.58 0 0)
(112.895 0 0)
(106.654 0 0)
(104.275 0 0)
(103.436 0 0)
(103.208 0 0)
(103.243 0 0)
(103.399 0 0)
(103.639 0 0)
(103.882 0 0)
(104.287 0 0)
(295.264 0 0)
(294.939 0 0)
(294.601 0 0)
(294.25 0 0)
(293.885 0 0)
(293.506 0 0)
(293.113 0 0)
(292.705 0 0)
(292.283 0 0)
(291.846 0 0)
(291.394 0 0)
(290.926 0 0)
(290.443 0 0)
(289.943 0 0)
(289.426 0 0)
(288.893 0 0)
(288.343 0 0)
(287.775 0 0)
(287.189 0 0)
(286.585 0 0)
(285.963 0 0)
(285.321 0 0)
(284.659 0 0)
(283.977 0 0)
(283.275 0 0)
(282.552 0 0)
(281.807 0 0)
(281.04 0 0)
(280.25 0 0)
(279.437 0 0)
(278.6 0 0)
(277.738 0 0)
(276.851 0 0)
(275.937 0 0)
(274.996 0 0)
(274.026 0 0)
(273.028 0 0)
(272 0 0)
(270.94 0 0)
(269.848 0 0)
(268.722 0 0)
(267.561 0 0)
(266.363 0 0)
(265.126 0 0)
(263.849 0 0)
(262.53 0 0)
(261.166 0 0)
(259.754 0 0)
(258.292 0 0)
(256.777 0 0)
(255.204 0 0)
(253.57 0 0)
(251.871 0 0)
(250.1 0 0)
(248.251 0 0)
(246.317 0 0)
(244.288 0 0)
(242.154 0 0)
(239.904 0 0)
(237.526 0 0)
(234.978 0 0)
(232.17 0 0)
(229.121 0 0)
(226.263 0 0)
(223.986 0 0)
(219.83 0 0)
(205.916 0 0)
(177.1 0 0)
(143.995 0 0)
(121.096 0 0)
(109.968 0 0)
(105.476 0 0)
(103.808 0 0)
(103.246 0 0)
(103.129 0 0)
(103.205 0 0)
(103.392 0 0)
(103.598 0 0)
(103.962 0 0)
(294.972 0 0)
(294.645 0 0)
(294.305 0 0)
(293.952 0 0)
(293.586 0 0)
(293.207 0 0)
(292.814 0 0)
(292.407 0 0)
(291.986 0 0)
(291.55 0 0)
(291.099 0 0)
(290.633 0 0)
(290.152 0 0)
(289.656 0 0)
(289.143 0 0)
(288.614 0 0)
(288.068 0 0)
(287.505 0 0)
(286.925 0 0)
(286.327 0 0)
(285.711 0 0)
(285.076 0 0)
(284.423 0 0)
(283.75 0 0)
(283.057 0 0)
(282.344 0 0)
(281.609 0 0)
(280.854 0 0)
(280.076 0 0)
(279.276 0 0)
(278.452 0 0)
(277.605 0 0)
(276.733 0 0)
(275.836 0 0)
(274.912 0 0)
(273.962 0 0)
(272.983 0 0)
(271.976 0 0)
(270.939 0 0)
(269.87 0 0)
(268.77 0 0)
(267.635 0 0)
(266.466 0 0)