/*--------------------------------*- C++ -*----------------------------------*\
| =========                 |                                                 |
| \\      /  F ield         | OpenFOAM: The Open Source CFD Toolbox           |
|  \\    /   O peration     | Version:  2312                                  |
|   \\  /    A nd           | Website:  www.openfoam.com                      |
|    \\/     M anipulation  |                                                 |
\*---------------------------------------------------------------------------*/
FoamFile
{
    version     2.0;
    format      ascii;
    arch        "LSB;label=32;scalar=64";
    class       volVectorField;
    location    "0.529";
    object      U;
}
// * * * * * * * * * * * * * * * * * * * * * * * * * * * * * * * * * * * * * //

dimensions      [0 1 -1 0 0 0 0];

internalField   nonuniform List<vector> 
31205
(
(143.285 0 0)
(139.79 0 0)
(136.238 0 0)
(132.641 0 0)
(129.019 0 0)
(125.4 0 0)
(121.827 0 0)
(118.353 0 0)
(115.047 0 0)
(111.987 0 0)
(109.248 0 0)
(106.893 0 0)
(104.964 0 0)
(103.476 0 0)
(102.421 0 0)
(101.77 0 0)
(101.483 0 0)
(101.514 0 0)
(101.817 0 0)
(102.351 0 0)
(103.076 0 0)
(103.961 0 0)
(104.978 0 0)
(106.102 0 0)
(107.316 0 0)
(108.602 0 0)
(109.949 0 0)
(111.344 0 0)
(112.779 0 0)
(114.247 0 0)
(115.742 0 0)
(117.257 0 0)
(118.79 0 0)
(120.335 0 0)
(121.891 0 0)
(123.455 0 0)
(125.024 0 0)
(126.596 0 0)
(128.171 0 0)
(129.746 0 0)
(131.321 0 0)
(132.895 0 0)
(134.466 0 0)
(136.033 0 0)
(137.598 0 0)
(139.157 0 0)
(140.712 0 0)
(142.262 0 0)
(143.807 0 0)
(145.345 0 0)
(146.878 0 0)
(148.404 0 0)
(149.924 0 0)
(151.437 0 0)
(152.943 0 0)
(154.442 0 0)
(155.934 0 0)
(157.419 0 0)
(158.897 0 0)
(160.367 0 0)
(161.83 0 0)
(163.286 0 0)
(164.734 0 0)
(166.175 0 0)
(167.609 0 0)
(169.035 0 0)
(170.454 0 0)
(171.865 0 0)
(173.269 0 0)
(174.665 0 0)
(176.054 0 0)
(177.436 0 0)
(178.81 0 0)
(180.175 0 0)
(181.54 0 0)
(182.876 0 0)
(184.269 0 0)
(185.458 0 0)
(187.244 0 0)
(140.121 0 0)
(136.668 0 0)
(133.17 0 0)
(129.644 0 0)
(126.114 0 0)
(122.617 0 0)
(119.201 0 0)
(115.925 0 0)
(112.86 0 0)
(110.078 0 0)
(107.644 0 0)
(105.603 0 0)
(103.981 0 0)
(102.777 0 0)
(101.972 0 0)
(101.532 0 0)
(101.417 0 0)
(101.583 0 0)
(101.99 0 0)
(102.598 0 0)
(103.375 0 0)
(104.293 0 0)
(105.326 0 0)
(106.456 0 0)
(107.665 0 0)
(108.939 0 0)
(110.266 0 0)
(111.638 0 0)
(113.046 0 0)
(114.484 0 0)
(115.946 0 0)
(117.427 0 0)
(118.924 0 0)
(120.433 0 0)
(121.951 0 0)
(123.476 0 0)
(125.007 0 0)
(126.541 0 0)
(128.076 0 0)
(129.613 0 0)
(131.149 0 0)
(132.683 0 0)
(134.216 0 0)
(135.745 0 0)
(137.271 0 0)
(138.793 0 0)
(140.31 0 0)
(141.823 0 0)
(143.33 0 0)
(144.832 0 0)
(146.328 0 0)
(147.817 0 0)
(149.301 0 0)
(150.778 0 0)
(152.249 0 0)
(153.713 0 0)
(155.171 0 0)
(156.621 0 0)
(158.065 0 0)
(159.502 0 0)
(160.931 0 0)
(162.354 0 0)
(163.769 0 0)
(165.178 0 0)
(166.579 0 0)
(167.973 0 0)
(169.359 0 0)
(170.739 0 0)
(172.111 0 0)
(173.477 0 0)
(174.835 0 0)
(176.185 0 0)
(177.53 0 0)
(178.865 0 0)
(180.199 0 0)
(181.506 0 0)
(182.868 0 0)
(184.034 0 0)
(185.77 0 0)
(136.837 0 0)
(133.437 0 0)
(130.009 0 0)
(126.574 0 0)
(123.164 0 0)
(119.82 0 0)
(116.598 0 0)
(113.559 0 0)
(110.772 0 0)
(108.298 0 0)
(106.186 0 0)
(104.467 0 0)
(103.148 0 0)
(102.217 0 0)
(101.647 0 0)
(101.403 0 0)
(101.444 0 0)
(101.732 0 0)
(102.23 0 0)
(102.903 0 0)
(103.725 0 0)
(104.669 0 0)
(105.716 0 0)
(106.848 0 0)
(108.05 0 0)
(109.31 0 0)
(110.618 0 0)
(111.966 0 0)
(113.346 0 0)
(114.754 0 0)
(116.183 0 0)
(117.63 0 0)
(119.092 0 0)
(120.564 0 0)
(122.046 0 0)
(123.534 0 0)
(125.026 0 0)
(126.522 0 0)
(128.02 0 0)
(129.518 0 0)
(131.016 0 0)
(132.512 0 0)
(134.007 0 0)
(135.498 0 0)
(136.987 0 0)
(138.471 0 0)
(139.952 0 0)
(141.427 0 0)
(142.898 0 0)
(144.364 0 0)
(145.824 0 0)
(147.278 0 0)
(148.727 0 0)
(150.169 0 0)
(151.605 0 0)
(153.035 0 0)
(154.459 0 0)
(155.875 0 0)
(157.286 0 0)
(158.689 0 0)
(160.086 0 0)
(161.476 0 0)
(162.859 0 0)
(164.235 0 0)
(165.605 0 0)
(166.967 0 0)
(168.323 0 0)
(169.671 0 0)
(171.013 0 0)
(172.348 0 0)
(173.676 0 0)
(174.996 0 0)
(176.311 0 0)
(177.616 0 0)
(178.921 0 0)
(180.2 0 0)
(181.531 0 0)
(182.674 0 0)
(184.363 0 0)
(133.535 0 0)
(130.202 0 0)
(126.86 0 0)
(123.538 0 0)
(120.274 0 0)
(117.115 0 0)
(114.12 0 0)
(111.348 0 0)
(108.861 0 0)
(106.707 0 0)
(104.92 0 0)
(103.512 0 0)
(102.479 0 0)
(101.798 0 0)
(101.441 0 0)
(101.37 0 0)
(101.55 0 0)
(101.944 0 0)
(102.521 0 0)
(103.251 0 0)
(104.11 0 0)
(105.076 0 0)
(106.133 0 0)
(107.264 0 0)
(108.457 0 0)
(109.703 0 0)
(110.991 0 0)
(112.315 0 0)
(113.669 0 0)
(115.046 0 0)
(116.444 0 0)
(117.858 0 0)
(119.285 0 0)
(120.723 0 0)
(122.168 0 0)
(123.619 0 0)
(125.075 0 0)
(126.534 0 0)
(127.995 0 0)
(129.456 0 0)
(130.916 0 0)
(132.376 0 0)
(133.833 0 0)
(135.288 0 0)
(136.74 0 0)
(138.188 0 0)
(139.633 0 0)
(141.073 0 0)
(142.508 0 0)
(143.938 0 0)
(145.364 0 0)
(146.783 0 0)
(148.197 0 0)
(149.606 0 0)
(151.008 0 0)
(152.404 0 0)
(153.794 0 0)
(155.178 0 0)
(156.556 0 0)
(157.927 0 0)
(159.291 0 0)
(160.649 0 0)
(162.001 0 0)
(163.346 0 0)
(164.684 0 0)
(166.016 0 0)
(167.341 0 0)
(168.659 0 0)
(169.97 0 0)
(171.275 0 0)
(172.573 0 0)
(173.864 0 0)
(175.15 0 0)
(176.426 0 0)
(177.702 0 0)
(178.952 0 0)
(180.253 0 0)
(181.373 0 0)
(183.019 0 0)
(130.274 0 0)
(127.024 0 0)
(123.79 0 0)
(120.607 0 0)
(117.518 0 0)
(114.574 0 0)
(111.833 0 0)
(109.35 0 0)
(107.174 0 0)
(105.339 0 0)
(103.863 0 0)
(102.746 0 0)
(101.971 0 0)
(101.515 0 0)
(101.344 0 0)
(101.424 0 0)
(101.722 0 0)
(102.207 0 0)
(102.85 0 0)
(103.627 0 0)
(104.516 0 0)
(105.499 0 0)
(106.561 0 0)
(107.689 0 0)
(108.873 0 0)
(110.102 0 0)
(111.37 0 0)
(112.67 0 0)
(113.997 0 0)
(115.346 0 0)
(116.713 0 0)
(118.095 0 0)
(119.488 0 0)
(120.891 0 0)
(122.302 0 0)
(123.718 0 0)
(125.138 0 0)
(126.561 0 0)
(127.985 0 0)
(129.41 0 0)
(130.835 0 0)
(132.259 0 0)
(133.68 0 0)
(135.1 0 0)
(136.516 0 0)
(137.929 0 0)
(139.338 0 0)
(140.744 0 0)
(142.144 0 0)
(143.54 0 0)
(144.931 0 0)
(146.317 0 0)
(147.698 0 0)
(149.073 0 0)
(150.442 0 0)
(151.805 0 0)
(153.163 0 0)
(154.515 0 0)
(155.86 0 0)
(157.2 0 0)
(158.533 0 0)
(159.86 0 0)
(161.18 0 0)
(162.494 0 0)
(163.802 0 0)
(165.103 0 0)
(166.398 0 0)
(167.686 0 0)
(168.968 0 0)
(170.244 0 0)
(171.513 0 0)
(172.775 0 0)
(174.031 0 0)
(175.279 0 0)
(176.526 0 0)
(177.749 0 0)
(179.02 0 0)
(180.117 0 0)
(181.722 0 0)
(127.091 0 0)
(123.945 0 0)
(120.843 0 0)
(117.827 0 0)
(114.941 0 0)
(112.239 0 0)
(109.773 0 0)
(107.59 0 0)
(105.725 0 0)
(104.197 0 0)
(103.012 0 0)
(102.158 0 0)
(101.614 0 0)
(101.353 0 0)
(101.342 0 0)
(101.551 0 0)
(101.949 0 0)
(102.509 0 0)
(103.207 0 0)
(104.021 0 0)
(104.933 0 0)
(105.928 0 0)
(106.992 0 0)
(108.115 0 0)
(109.287 0 0)
(110.5 0 0)
(111.747 0 0)
(113.024 0 0)
(114.324 0 0)
(115.644 0 0)
(116.981 0 0)
(118.331 0 0)
(119.692 0 0)
(121.062 0 0)
(122.439 0 0)
(123.82 0 0)
(125.206 0 0)
(126.594 0 0)
(127.983 0 0)
(129.374 0 0)
(130.763 0 0)
(132.152 0 0)
(133.539 0 0)
(134.923 0 0)
(136.305 0 0)
(137.684 0 0)
(139.059 0 0)
(140.431 0 0)
(141.798 0 0)
(143.16 0 0)
(144.518 0 0)
(145.871 0 0)
(147.219 0 0)
(148.561 0 0)
(149.898 0 0)
(151.23 0 0)
(152.556 0 0)
(153.876 0 0)
(155.19 0 0)
(156.499 0 0)
(157.801 0 0)
(159.097 0 0)
(160.388 0 0)
(161.672 0 0)
(162.949 0 0)
(164.221 0 0)
(165.487 0 0)
(166.746 0 0)
(167.999 0 0)
(169.245 0 0)
(170.485 0 0)
(171.719 0 0)
(172.947 0 0)
(174.167 0 0)
(175.386 0 0)
(176.582 0 0)
(177.824 0 0)
(178.898 0 0)
(180.463 0 0)
(124.016 0 0)
(120.996 0 0)
(118.054 0 0)
(115.231 0 0)
(112.576 0 0)
(110.137 0 0)
(107.959 0 0)
(106.077 0 0)
(104.512 0 0)
(103.273 0 0)
(102.352 0 0)
(101.732 0 0)
(101.39 0 0)
(101.297 0 0)
(101.423 0 0)
(101.74 0 0)
(102.221 0 0)
(102.844 0 0)
(103.585 0 0)
(104.429 0 0)
(105.358 0 0)
(106.36 0 0)
(107.423 0 0)
(108.538 0 0)
(109.696 0 0)
(110.892 0 0)
(112.118 0 0)
(113.371 0 0)
(114.645 0 0)
(115.937 0 0)
(117.244 0 0)
(118.563 0 0)
(119.893 0 0)
(121.23 0 0)
(122.574 0 0)
(123.922 0 0)
(125.274 0 0)
(126.629 0 0)
(127.984 0 0)
(129.34 0 0)
(130.696 0 0)
(132.051 0 0)
(133.404 0 0)
(134.755 0 0)
(136.104 0 0)
(137.449 0 0)
(138.791 0 0)
(140.129 0 0)
(141.464 0 0)
(142.794 0 0)
(144.119 0 0)
(145.44 0 0)
(146.756 0 0)
(148.067 0 0)
(149.373 0 0)
(150.673 0 0)
(151.968 0 0)
(153.258 0 0)
(154.541 0 0)
(155.82 0 0)
(157.092 0 0)
(158.358 0 0)
(159.619 0 0)
(160.874 0 0)
(162.122 0 0)
(163.365 0 0)
(164.602 0 0)
(165.832 0 0)
(167.057 0 0)
(168.275 0 0)
(169.487 0 0)
(170.693 0 0)
(171.893 0 0)
(173.086 0 0)
(174.277 0 0)
(175.446 0 0)
(176.66 0 0)
(177.71 0 0)
(179.238 0 0)
(121.072 0 0)
(118.205 0 0)
(115.448 0 0)
(112.845 0 0)
(110.442 0 0)
(108.279 0 0)
(106.392 0 0)
(104.804 0 0)
(103.523 0 0)
(102.547 0 0)
(101.863 0 0)
(101.449 0 0)
(101.281 0 0)
(101.331 0 0)
(101.573 0 0)
(101.98 0 0)
(102.53 0 0)
(103.203 0 0)
(103.979 0 0)
(104.845 0 0)
(105.786 0 0)
(106.791 0 0)
(107.85 0 0)
(108.955 0 0)
(110.099 0 0)
(111.277 0 0)
(112.482 0 0)
(113.71 0 0)
(114.958 0 0)
(116.222 0 0)
(117.501 0 0)
(118.79 0 0)
(120.089 0 0)
(121.395 0 0)
(122.706 0 0)
(124.022 0 0)
(125.342 0 0)
(126.663 0 0)
(127.986 0 0)
(129.309 0 0)
(130.632 0 0)
(131.954 0 0)
(133.275 0 0)
(134.593 0 0)
(135.909 0 0)
(137.222 0 0)
(138.532 0 0)
(139.838 0 0)
(141.141 0 0)
(142.439 0 0)
(143.733 0 0)
(145.023 0 0)
(146.308 0 0)
(147.588 0 0)
(148.863 0 0)
(150.133 0 0)
(151.398 0 0)
(152.657 0 0)
(153.912 0 0)
(155.16 0 0)
(156.403 0 0)
(157.641 0 0)
(158.872 0 0)
(160.098 0 0)
(161.318 0 0)
(162.533 0 0)
(163.741 0 0)
(164.944 0 0)
(166.14 0 0)
(167.331 0 0)
(168.516 0 0)
(169.694 0 0)
(170.867 0 0)
(172.033 0 0)
(173.198 0 0)
(174.34 0 0)
(175.526 0 0)
(176.554 0 0)
(178.044 0 0)
(118.285 0 0)
(115.596 0 0)
(113.051 0 0)
(110.689 0 0)
(108.551 0 0)
(106.67 0 0)
(105.069 0 0)
(103.758 0 0)
(102.739 0 0)
(102 0 0)
(101.525 0 0)
(101.29 0 0)
(101.271 0 0)
(101.442 0 0)
(101.78 0 0)
(102.262 0 0)
(102.868 0 0)
(103.581 0 0)
(104.385 0 0)
(105.267 0 0)
(106.215 0 0)
(107.22 0 0)
(108.273 0 0)
(109.367 0 0)
(110.495 0 0)
(111.653 0 0)
(112.837 0 0)
(114.041 0 0)
(115.263 0 0)
(116.501 0 0)
(117.751 0 0)
(119.011 0 0)
(120.279 0 0)
(121.555 0 0)
(122.835 0 0)
(124.12 0 0)
(125.408 0 0)
(126.697 0 0)
(127.988 0 0)
(129.28 0 0)
(130.57 0 0)
(131.861 0 0)
(133.149 0 0)
(134.436 0 0)
(135.72 0 0)
(137.002 0 0)
(138.28 0 0)
(139.556 0 0)
(140.827 0 0)
(142.095 0 0)
(143.358 0 0)
(144.618 0 0)
(145.873 0 0)
(147.123 0 0)
(148.368 0 0)
(149.609 0 0)
(150.844 0 0)
(152.074 0 0)
(153.3 0 0)
(154.519 0 0)
(155.734 0 0)
(156.943 0 0)
(158.146 0 0)
(159.344 0 0)
(160.536 0 0)
(161.723 0 0)
(162.904 0 0)
(164.079 0 0)
(165.249 0 0)
(166.412 0 0)
(167.57 0 0)
(168.722 0 0)
(169.869 0 0)
(171.008 0 0)
(172.146 0 0)
(173.263 0 0)
(174.422 0 0)
(175.427 0 0)
(176.881 0 0)
(115.678 0 0)
(113.193 0 0)
(110.88 0 0)
(108.774 0 0)
(106.907 0 0)
(105.303 0 0)
(103.974 0 0)
(102.922 0 0)
(102.14 0 0)
(101.611 0 0)
(101.317 0 0)
(101.236 0 0)
(101.343 0 0)
(101.616 0 0)
(102.034 0 0)
(102.578 0 0)
(103.23 0 0)
(103.975 0 0)
(104.799 0 0)
(105.692 0 0)
(106.644 0 0)
(107.646 0 0)
(108.69 0 0)
(109.771 0 0)
(110.883 0 0)
(112.022 0 0)
(113.184 0 0)
(114.364 0 0)
(115.561 0 0)
(116.772 0 0)
(117.994 0 0)
(119.225 0 0)
(120.465 0 0)
(121.71 0 0)
(122.961 0 0)
(124.215 0 0)
(125.472 0 0)
(126.731 0 0)
(127.991 0 0)
(129.251 0 0)
(130.511 0 0)
(131.77 0 0)
(133.028 0 0)
(134.283 0 0)
(135.537 0 0)
(136.788 0 0)
(138.036 0 0)
(139.281 0 0)
(140.523 0 0)
(141.761 0 0)
(142.995 0 0)
(144.224 0 0)
(145.45 0 0)
(146.671 0 0)
(147.887 0 0)
(149.099 0 0)
(150.306 0 0)
(151.508 0 0)
(152.705 0 0)
(153.897 0 0)
(155.083 0 0)
(156.264 0 0)
(157.44 0 0)
(158.611 0 0)
(159.776 0 0)
(160.936 0 0)
(162.09 0 0)
(163.238 0 0)
(164.381 0 0)
(165.518 0 0)
(166.65 0 0)
(167.776 0 0)
(168.896 0 0)
(170.01 0 0)
(171.122 0 0)
(172.214 0 0)
(173.346 0 0)
(174.33 0 0)
(175.748 0 0)
(113.275 0 0)
(111.014 0 0)
(108.947 0 0)
(107.103 0 0)
(105.506 0 0)
(104.168 0 0)
(103.093 0 0)
(102.276 0 0)
(101.703 0 0)
(101.359 0 0)
(101.222 0 0)
(101.271 0 0)
(101.485 0 0)
(101.843 0 0)
(102.328 0 0)
(102.921 0 0)
(103.61 0 0)
(104.379 0 0)
(105.219 0 0)
(106.119 0 0)
(107.071 0 0)
(108.067 0 0)
(109.101 0 0)
(110.168 0 0)
(111.263 0 0)
(112.383 0 0)
(113.522 0 0)
(114.679 0 0)
(115.851 0 0)
(117.036 0 0)
(118.231 0 0)
(119.434 0 0)
(120.645 0 0)
(121.861 0 0)
(123.082 0 0)
(124.307 0 0)
(125.534 0 0)
(126.763 0 0)
(127.993 0 0)
(129.223 0 0)
(130.453 0 0)
(131.682 0 0)
(132.91 0 0)
(134.136 0 0)
(135.36 0 0)
(136.581 0 0)
(137.8 0 0)
(139.016 0 0)
(140.228 0 0)
(141.437 0 0)
(142.642 0 0)
(143.843 0 0)
(145.04 0 0)
(146.232 0 0)
(147.421 0 0)
(148.604 0 0)
(149.783 0 0)
(150.958 0 0)
(152.127 0 0)
(153.291 0 0)
(154.451 0 0)
(155.605 0 0)
(156.754 0 0)
(157.898 0 0)
(159.036 0 0)
(160.17 0 0)
(161.298 0 0)
(162.42 0 0)
(163.537 0 0)
(164.648 0 0)
(165.754 0 0)
(166.855 0 0)
(167.95 0 0)
(169.038 0 0)
(170.125 0 0)
(171.192 0 0)
(172.299 0 0)
(173.261 0 0)
(174.644 0 0)
(111.093 0 0)
(109.07 0 0)
(107.257 0 0)
(105.675 0 0)
(104.337 0 0)
(103.248 0 0)
(102.405 0 0)
(101.797 0 0)
(101.409 0 0)
(101.224 0 0)
(101.221 0 0)
(101.381 0 0)
(101.684 0 0)
(102.113 0 0)
(102.652 0 0)
(103.287 0 0)
(104.003 0 0)
(104.792 0 0)
(105.642 0 0)
(106.545 0 0)
(107.494 0 0)
(108.483 0 0)
(109.506 0 0)
(110.558 0 0)
(111.636 0 0)
(112.735 0 0)
(113.853 0 0)
(114.987 0 0)
(116.134 0 0)
(117.293 0 0)
(118.461 0 0)
(119.637 0 0)
(120.82 0 0)
(122.008 0 0)
(123.201 0 0)
(124.397 0 0)
(125.595 0 0)
(126.795 0 0)
(127.995 0 0)
(129.196 0 0)
(130.397 0 0)
(131.597 0 0)
(132.796 0 0)
(133.993 0 0)
(135.188 0 0)
(136.38 0 0)
(137.57 0 0)
(138.758 0 0)
(139.941 0 0)
(141.122 0 0)
(142.299 0 0)
(143.472 0 0)
(144.641 0 0)
(145.806 0 0)
(146.967 0 0)
(148.124 0 0)
(149.276 0 0)
(150.423 0 0)
(151.565 0 0)
(152.703 0 0)
(153.836 0 0)
(154.964 0 0)
(156.087 0 0)
(157.205 0 0)
(158.318 0 0)
(159.425 0 0)
(160.527 0 0)
(161.624 0 0)
(162.716 0 0)
(163.802 0 0)
(164.883 0 0)
(165.958 0 0)
(167.029 0 0)
(168.092 0 0)
(169.155 0 0)
(170.198 0 0)
(171.278 0 0)
(172.22 0 0)
(173.569 0 0)
(109.145 0 0)
(107.368 0 0)
(105.808 0 0)
(104.478 0 0)
(103.384 0 0)
(102.523 0 0)
(101.888 0 0)
(101.465 0 0)
(101.238 0 0)
(101.189 0 0)
(101.3 0 0)
(101.553 0 0)
(101.931 0 0)
(102.418 0 0)
(103.002 0 0)
(103.668 0 0)
(104.407 0 0)
(105.209 0 0)
(106.065 0 0)
(106.969 0 0)
(107.913 0 0)
(108.893 0 0)
(109.903 0 0)
(110.94 0 0)
(112 0 0)
(113.079 0 0)
(114.175 0 0)
(115.286 0 0)
(116.409 0 0)
(117.543 0 0)
(118.685 0 0)
(119.835 0 0)
(120.991 0 0)
(122.151 0 0)
(123.316 0 0)
(124.484 0 0)
(125.654 0 0)
(126.826 0 0)
(127.998 0 0)
(129.171 0 0)
(130.343 0 0)
(131.515 0 0)
(132.685 0 0)
(133.854 0 0)
(135.021 0 0)
(136.186 0 0)
(137.348 0 0)
(138.507 0 0)
(139.664 0 0)
(140.817 0 0)
(141.966 0 0)
(143.112 0 0)
(144.255 0 0)
(145.393 0 0)
(146.527 0 0)
(147.657 0 0)
(148.782 0 0)
(149.903 0 0)
(151.02 0 0)
(152.132 0 0)
(153.239 0 0)
(154.341 0 0)
(155.439 0 0)
(156.531 0 0)
(157.619 0 0)
(158.701 0 0)
(159.778 0 0)
(160.85 0 0)
(161.917 0 0)
(162.979 0 0)
(164.035 0 0)
(165.086 0 0)
(166.132 0 0)
(167.172 0 0)
(168.21 0 0)
(169.229 0 0)
(170.285 0 0)
(171.206 0 0)
(172.522 0 0)
(107.437 0 0)
(105.906 0 0)
(104.591 0 0)
(103.499 0 0)
(102.629 0 0)
(101.974 0 0)
(101.522 0 0)
(101.26 0 0)
(101.171 0 0)
(101.239 0 0)
(101.446 0 0)
(101.776 0 0)
(102.216 0 0)
(102.751 0 0)
(103.37 0 0)
(104.062 0 0)
(104.818 0 0)
(105.629 0 0)
(106.489 0 0)
(107.39 0 0)
(108.328 0 0)
(109.297 0 0)
(110.294 0 0)
(111.314 0 0)
(112.356 0 0)
(113.415 0 0)
(114.49 0 0)
(115.578 0 0)
(116.677 0 0)
(117.786 0 0)
(118.903 0 0)
(120.027 0 0)
(121.156 0 0)
(122.291 0 0)
(123.428 0 0)
(124.569 0 0)
(125.712 0 0)
(126.856 0 0)
(128.001 0 0)
(129.146 0 0)
(130.291 0 0)
(131.435 0 0)
(132.578 0 0)
(133.72 0 0)
(134.859 0 0)
(135.997 0 0)
(137.132 0 0)
(138.265 0 0)
(139.394 0 0)
(140.521 0 0)
(141.644 0 0)
(142.763 0 0)
(143.879 0 0)
(144.991 0 0)
(146.1 0 0)
(147.204 0 0)
(148.304 0 0)
(149.399 0 0)
(150.49 0 0)
(151.577 0 0)
(152.659 0 0)
(153.736 0 0)
(154.809 0 0)
(155.876 0 0)
(156.939 0 0)
(157.997 0 0)
(159.05 0 0)
(160.098 0 0)
(161.141 0 0)
(162.178 0 0)
(163.211 0 0)
(164.238 0 0)
(165.26 0 0)
(166.276 0 0)
(167.291 0 0)
(168.287 0 0)
(169.319 0 0)
(170.219 0 0)
(171.502 0 0)
(105.968 0 0)
(104.675 0 0)
(103.592 0 0)
(102.719 0 0)
(102.051 0 0)
(101.578 0 0)
(101.288 0 0)
(101.165 0 0)
(101.194 0 0)
(101.359 0 0)
(101.647 0 0)
(102.042 0 0)
(102.533 0 0)
(103.107 0 0)
(103.754 0 0)
(104.466 0 0)
(105.233 0 0)
(106.05 0 0)
(106.909 0 0)
(107.806 0 0)
(108.736 0 0)
(109.694 0 0)
(110.676 0 0)
(111.681 0 0)
(112.704 0 0)
(113.743 0 0)
(114.796 0 0)
(115.862 0 0)
(116.938 0 0)
(118.023 0 0)
(119.115 0 0)
(120.214 0 0)
(121.318 0 0)
(122.426 0 0)
(123.537 0 0)
(124.652 0 0)
(125.768 0 0)
(126.885 0 0)
(128.004 0 0)
(129.122 0 0)
(130.24 0 0)
(131.358 0 0)
(132.474 0 0)
(133.589 0 0)
(134.703 0 0)
(135.814 0 0)
(136.923 0 0)
(138.029 0 0)
(139.133 0 0)
(140.233 0 0)
(141.331 0 0)
(142.425 0 0)
(143.515 0 0)
(144.602 0 0)
(145.685 0 0)
(146.764 0 0)
(147.839 0 0)
(148.909 0 0)
(149.976 0 0)
(151.038 0 0)
(152.095 0 0)
(153.148 0 0)
(154.196 0 0)
(155.24 0 0)
(156.279 0 0)
(157.313 0 0)
(158.342 0 0)
(159.366 0 0)
(160.385 0 0)
(161.399 0 0)
(162.409 0 0)
(163.413 0 0)
(164.412 0 0)
(165.404 0 0)
(166.396 0 0)
(167.37 0 0)
(168.378 0 0)
(169.259 0 0)
(170.51 0 0)
(104.729 0 0)
(103.661 0 0)
(102.792 0 0)
(102.118 0 0)
(101.63 0 0)
(101.317 0 0)
(101.165 0 0)
(101.161 0 0)
(101.29 0 0)
(101.539 0 0)
(101.893 0 0)
(102.342 0 0)
(102.874 0 0)
(103.479 0 0)
(104.149 0 0)
(104.875 0 0)
(105.651 0 0)
(106.47 0 0)
(107.327 0 0)
(108.218 0 0)
(109.138 0 0)
(110.083 0 0)
(111.051 0 0)
(112.039 0 0)
(113.043 0 0)
(114.063 0 0)
(115.095 0 0)
(116.139 0 0)
(117.192 0 0)
(118.253 0 0)
(119.321 0 0)
(120.395 0 0)
(121.474 0 0)
(122.557 0 0)
(123.644 0 0)
(124.732 0 0)
(125.823 0 0)
(126.914 0 0)
(128.007 0 0)
(129.099 0 0)
(130.192 0 0)
(131.283 0 0)
(132.374 0 0)
(133.463 0 0)
(134.551 0 0)
(135.637 0 0)
(136.72 0 0)
(137.801 0 0)
(138.879 0 0)
(139.955 0 0)
(141.027 0 0)
(142.096 0 0)
(143.162 0 0)
(144.224 0 0)
(145.282 0 0)
(146.336 0 0)
(147.387 0 0)
(148.433 0 0)
(149.476 0 0)
(150.514 0 0)
(151.547 0 0)
(152.577 0 0)
(153.601 0 0)
(154.621 0 0)
(155.637 0 0)
(156.648 0 0)
(157.654 0 0)
(158.655 0 0)
(159.651 0 0)
(160.642 0 0)
(161.629 0 0)
(162.61 0 0)
(163.586 0 0)
(164.557 0 0)
(165.526 0 0)
(166.477 0 0)
(167.462 0 0)
(168.324 0 0)
(169.544 0 0)
(103.708 0 0)
(102.848 0 0)
(102.174 0 0)
(101.676 0 0)
(101.346 0 0)
(101.171 0 0)
(101.139 0 0)
(101.236 0 0)
(101.449 0 0)
(101.767 0 0)
(102.177 0 0)
(102.669 0 0)
(103.235 0 0)
(103.865 0 0)
(104.551 0 0)
(105.288 0 0)
(106.068 0 0)
(106.887 0 0)
(107.74 0 0)
(108.623 0 0)
(109.533 0 0)
(110.465 0 0)
(111.418 0 0)
(112.389 0 0)
(113.375 0 0)
(114.375 0 0)
(115.386 0 0)
(116.408 0 0)
(117.439 0 0)
(118.477 0 0)
(119.522 0 0)
(120.572 0 0)
(121.627 0 0)
(122.685 0 0)
(123.747 0 0)
(124.81 0 0)
(125.876 0 0)
(126.943 0 0)
(128.01 0 0)
(129.077 0 0)
(130.145 0 0)
(131.211 0 0)
(132.277 0 0)
(133.341 0 0)
(134.404 0 0)
(135.465 0 0)
(136.523 0 0)
(137.58 0 0)
(138.633 0 0)
(139.684 0 0)
(140.732 0 0)
(141.777 0 0)
(142.819 0 0)
(143.857 0 0)
(144.891 0 0)
(145.922 0 0)
(146.949 0 0)
(147.972 0 0)
(148.99 0 0)
(150.005 0 0)
(151.016 0 0)
(152.022 0 0)
(153.023 0 0)
(154.02 0 0)
(155.013 0 0)
(156.001 0 0)
(156.984 0 0)
(157.963 0 0)
(158.937 0 0)
(159.906 0 0)
(160.87 0 0)
(161.829 0 0)
(162.784 0 0)
(163.732 0 0)
(164.679 0 0)
(165.609 0 0)
(166.571 0 0)
(167.414 0 0)
(168.603 0 0)
(102.886 0 0)
(102.217 0 0)
(101.715 0 0)
(101.373 0 0)
(101.18 0 0)
(101.124 0 0)
(101.193 0 0)
(101.375 0 0)
(101.659 0 0)
(102.034 0 0)
(102.49 0 0)
(103.019 0 0)
(103.611 0 0)
(104.26 0 0)
(104.959 0 0)
(105.702 0 0)
(106.484 0 0)
(107.301 0 0)
(108.148 0 0)
(109.023 0 0)
(109.921 0 0)
(110.839 0 0)
(111.777 0 0)
(112.73 0 0)
(113.698 0 0)
(114.679 0 0)
(115.67 0 0)
(116.67 0 0)
(117.679 0 0)
(118.695 0 0)
(119.717 0 0)
(120.744 0 0)
(121.775 0 0)
(122.81 0 0)
(123.847 0 0)
(124.887 0 0)
(125.928 0 0)
(126.97 0 0)
(128.013 0 0)
(129.056 0 0)
(130.099 0 0)
(131.141 0 0)
(132.183 0 0)
(133.223 0 0)
(134.261 0 0)
(135.298 0 0)
(136.333 0 0)
(137.365 0 0)
(138.395 0 0)
(139.422 0 0)
(140.446 0 0)
(141.468 0 0)
(142.486 0 0)
(143.5 0 0)
(144.512 0 0)
(145.519 0 0)
(146.523 0 0)
(147.523 0 0)
(148.519 0 0)
(149.511 0 0)
(150.499 0 0)
(151.482 0 0)
(152.462 0 0)
(153.437 0 0)
(154.407 0 0)
(155.373 0 0)
(156.334 0 0)
(157.291 0 0)
(158.243 0 0)
(159.19 0 0)
(160.132 0 0)
(161.07 0 0)
(162.003 0 0)
(162.93 0 0)
(163.855 0 0)
(164.764 0 0)
(165.704 0 0)
(166.529 0 0)
(167.688 0 0)
(102.246 0 0)
(101.745 0 0)
(101.397 0 0)
(101.19 0 0)
(101.115 0 0)
(101.16 0 0)
(101.315 0 0)
(101.569 0 0)
(101.912 0 0)
(102.334 0 0)
(102.828 0 0)
(103.385 0 0)
(103.998 0 0)
(104.661 0 0)
(105.369 0 0)
(106.116 0 0)
(106.897 0 0)
(107.71 0 0)
(108.55 0 0)
(109.415 0 0)
(110.301 0 0)
(111.206 0 0)
(112.127 0 0)
(113.064 0 0)
(114.014 0 0)
(114.975 0 0)
(115.946 0 0)
(116.925 0 0)
(117.913 0 0)
(118.907 0 0)
(119.906 0 0)
(120.911 0 0)
(121.919 0 0)
(122.93 0 0)
(123.945 0 0)
(124.961 0 0)
(125.979 0 0)
(126.997 0 0)
(128.017 0 0)
(129.036 0 0)
(130.055 0 0)
(131.074 0 0)
(132.092 0 0)
(133.108 0 0)
(134.123 0 0)
(135.136 0 0)
(136.148 0 0)
(137.157 0 0)
(138.164 0 0)
(139.168 0 0)
(140.169 0 0)
(141.167 0 0)
(142.163 0 0)
(143.155 0 0)
(144.143 0 0)
(145.128 0 0)
(146.11 0 0)
(147.088 0 0)
(148.061 0 0)
(149.031 0 0)
(149.997 0 0)
(150.959 0 0)
(151.916 0 0)
(152.869 0 0)
(153.818 0 0)
(154.762 0 0)
(155.702 0 0)
(156.637 0 0)
(157.568 0 0)
(158.494 0 0)
(159.415 0 0)
(160.332 0 0)
(161.244 0 0)
(162.149 0 0)
(163.054 0 0)
(163.943 0 0)
(164.86 0 0)
(165.668 0 0)
(166.798 0 0)
(101.766 0 0)
(101.415 0 0)
(101.199 0 0)
(101.109 0 0)
(101.135 0 0)
(101.266 0 0)
(101.493 0 0)
(101.807 0 0)
(102.199 0 0)
(102.66 0 0)
(103.184 0 0)
(103.764 0 0)
(104.393 0 0)
(105.067 0 0)
(105.78 0 0)
(106.528 0 0)
(107.307 0 0)
(108.114 0 0)
(108.946 0 0)
(109.8 0 0)
(110.673 0 0)
(111.564 0 0)
(112.47 0 0)
(113.389 0 0)
(114.321 0 0)
(115.263 0 0)
(116.214 0 0)
(117.174 0 0)
(118.14 0 0)
(119.113 0 0)
(120.091 0 0)
(121.073 0 0)
(122.059 0 0)
(123.048 0 0)
(124.039 0 0)
(125.033 0 0)
(126.028 0 0)
(127.024 0 0)
(128.02 0 0)
(129.017 0 0)
(130.013 0 0)
(131.009 0 0)
(132.003 0 0)
(132.997 0 0)
(133.989 0 0)
(134.98 0 0)
(135.969 0 0)
(136.955 0 0)
(137.939 0 0)
(138.921 0 0)
(139.9 0 0)
(140.876 0 0)
(141.849 0 0)
(142.819 0 0)
(143.786 0 0)
(144.749 0 0)
(145.709 0 0)
(146.665 0 0)
(147.617 0 0)
(148.565 0 0)
(149.51 0 0)
(150.45 0 0)
(151.386 0 0)
(152.318 0 0)
(153.246 0 0)
(154.169 0 0)
(155.088 0 0)
(156.002 0 0)
(156.912 0 0)
(157.818 0 0)
(158.718 0 0)
(159.614 0 0)
(160.505 0 0)
(161.391 0 0)
(162.275 0 0)
(163.143 0 0)
(164.04 0 0)
(164.83 0 0)
(165.931 0 0)
(101.428 0 0)
(101.207 0 0)
(101.105 0 0)
(101.115 0 0)
(101.226 0 0)
(101.43 0 0)
(101.718 0 0)
(102.081 0 0)
(102.513 0 0)
(103.006 0 0)
(103.555 0 0)
(104.152 0 0)
(104.793 0 0)
(105.474 0 0)
(106.19 0 0)
(106.937 0 0)
(107.712 0 0)
(108.512 0 0)
(109.335 0 0)
(110.178 0 0)
(111.038 0 0)
(111.914 0 0)
(112.804 0 0)
(113.707 0 0)
(114.62 0 0)
(115.544 0 0)
(116.476 0 0)
(117.415 0 0)
(118.361 0 0)
(119.313 0 0)
(120.27 0 0)
(121.231 0 0)
(122.195 0 0)
(123.162 0 0)
(124.132 0 0)
(125.103 0 0)
(126.076 0 0)
(127.049 0 0)
(128.024 0 0)
(128.998 0 0)
(129.972 0 0)
(130.945 0 0)
(131.918 0 0)
(132.889 0 0)
(133.86 0 0)
(134.828 0 0)
(135.795 0 0)
(136.759 0 0)
(137.722 0 0)
(138.682 0 0)
(139.639 0 0)
(140.594 0 0)
(141.545 0 0)
(142.494 0 0)
(143.439 0 0)
(144.381 0 0)
(145.319 0 0)
(146.254 0 0)
(147.185 0 0)
(148.113 0 0)
(149.036 0 0)
(149.956 0 0)
(150.871 0 0)
(151.783 0 0)
(152.69 0 0)
(153.593 0 0)
(154.491 0 0)
(155.385 0 0)
(156.275 0 0)
(157.16 0 0)
(158.04 0 0)
(158.916 0 0)
(159.787 0 0)
(160.653 0 0)
(161.517 0 0)
(162.366 0 0)
(163.242 0 0)
(164.015 0 0)
(165.088 0 0)
(101.212 0 0)
(101.103 0 0)
(101.1 0 0)
(101.194 0 0)
(101.378 0 0)
(101.643 0 0)
(101.981 0 0)
(102.385 0 0)
(102.85 0 0)
(103.369 0 0)
(103.936 0 0)
(104.546 0 0)
(105.196 0 0)
(105.881 0 0)
(106.597 0 0)
(107.342 0 0)
(108.112 0 0)
(108.904 0 0)
(109.717 0 0)
(110.548 0 0)
(111.395 0 0)
(112.256 0 0)
(113.13 0 0)
(114.016 0 0)
(114.912 0 0)
(115.817 0 0)
(116.73 0 0)
(117.65 0 0)
(118.576 0 0)
(119.508 0 0)
(120.444 0 0)
(121.384 0 0)
(122.327 0 0)
(123.273 0 0)
(124.221 0 0)
(125.171 0 0)
(126.123 0 0)
(127.075 0 0)
(128.027 0 0)
(128.98 0 0)
(129.932 0 0)
(130.884 0 0)
(131.835 0 0)
(132.785 0 0)
(133.734 0 0)
(134.681 0 0)
(135.626 0 0)
(136.57 0 0)
(137.511 0 0)
(138.45 0 0)
(139.386 0 0)
(140.319 0 0)
(141.25 0 0)
(142.178 0 0)
(143.102 0 0)
(144.023 0 0)
(144.941 0 0)
(145.856 0 0)
(146.766 0 0)
(147.674 0 0)
(148.577 0 0)
(149.476 0 0)
(150.371 0 0)
(151.263 0 0)
(152.15 0 0)
(153.033 0 0)
(153.911 0 0)
(154.786 0 0)
(155.655 0 0)
(156.521 0 0)
(157.382 0 0)
(158.238 0 0)
(159.09 0 0)
(159.936 0 0)
(160.78 0 0)
(161.61 0 0)
(162.466 0 0)
(163.222 0 0)
(164.268 0 0)
(101.101 0 0)
(101.089 0 0)
(101.169 0 0)
(101.335 0 0)
(101.579 0 0)
(101.895 0 0)
(102.274 0 0)
(102.713 0 0)
(103.204 0 0)
(103.743 0 0)
(104.324 0 0)
(104.945 0 0)
(105.6 0 0)
(106.287 0 0)
(107.002 0 0)
(107.742 0 0)
(108.505 0 0)
(109.289 0 0)
(110.091 0 0)
(110.91 0 0)
(111.743 0 0)
(112.59 0 0)
(113.448 0 0)
(114.318 0 0)
(115.196 0 0)
(116.083 0 0)
(116.978 0 0)
(117.879 0 0)
(118.785 0 0)
(119.697 0 0)
(120.613 0 0)
(121.533 0 0)
(122.456 0 0)
(123.381 0 0)
(124.309 0 0)
(125.238 0 0)
(126.168 0 0)
(127.099 0 0)
(128.031 0 0)
(128.962 0 0)
(129.894 0 0)
(130.825 0 0)
(131.755 0 0)
(132.684 0 0)
(133.612 0 0)
(134.538 0 0)
(135.463 0 0)
(136.386 0 0)
(137.306 0 0)
(138.224 0 0)
(139.14 0 0)
(140.053 0 0)
(140.964 0 0)
(141.871 0 0)
(142.775 0 0)
(143.677 0 0)
(144.574 0 0)
(145.469 0 0)
(146.36 0 0)
(147.247 0 0)
(148.13 0 0)
(149.01 0 0)
(149.886 0 0)
(150.758 0 0)
(151.625 0 0)
(152.489 0 0)
(153.348 0 0)
(154.203 0 0)
(155.054 0 0)
(155.9 0 0)
(156.741 0 0)
(157.578 0 0)
(158.411 0 0)
(159.238 0 0)
(160.064 0 0)
(160.875 0 0)
(161.711 0 0)
(162.451 0 0)
(163.471 0 0)
(101.079 0 0)
(101.149 0 0)
(101.3 0 0)
(101.527 0 0)
(101.822 0 0)
(102.179 0 0)
(102.593 0 0)
(103.059 0 0)
(103.571 0 0)
(104.125 0 0)
(104.718 0 0)
(105.345 0 0)
(106.003 0 0)
(106.69 0 0)
(107.402 0 0)
(108.137 0 0)
(108.892 0 0)
(109.667 0 0)
(110.458 0 0)
(111.264 0 0)
(112.083 0 0)
(112.915 0 0)
(113.758 0 0)
(114.611 0 0)
(115.473 0 0)
(116.342 0 0)
(117.218 0 0)
(118.101 0 0)
(118.989 0 0)
(119.881 0 0)
(120.778 0 0)
(121.678 0 0)
(122.581 0 0)
(123.486 0 0)
(124.393 0 0)
(125.302 0 0)
(126.212 0 0)
(127.123 0 0)
(128.034 0 0)
(128.946 0 0)
(129.857 0 0)
(130.768 0 0)
(131.677 0 0)
(132.586 0 0)
(133.494 0 0)
(134.4 0 0)
(135.305 0 0)
(136.207 0 0)
(137.108 0 0)
(138.006 0 0)
(138.902 0 0)
(139.795 0 0)
(140.686 0 0)
(141.574 0 0)
(142.458 0 0)
(143.34 0 0)
(144.218 0 0)
(145.093 0 0)
(145.965 0 0)
(146.833 0 0)
(147.697 0 0)
(148.558 0 0)
(149.414 0 0)
(150.267 0 0)
(151.116 0 0)
(151.96 0 0)
(152.801 0 0)
(153.637 0 0)
(154.469 0 0)
(155.296 0 0)
(156.119 0 0)
(156.938 0 0)
(157.752 0 0)
(158.56 0 0)
(159.367 0 0)
(160.161 0 0)
(160.977 0 0)
(161.701 0 0)
(162.695 0 0)
(101.134 0 0)
(101.273 0 0)
(101.484 0 0)
(101.76 0 0)
(102.097 0 0)
(102.489 0 0)
(102.931 0 0)
(103.419 0 0)
(103.947 0 0)
(104.514 0 0)
(105.114 0 0)
(105.745 0 0)
(106.405 0 0)
(107.089 0 0)
(107.797 0 0)
(108.525 0 0)
(109.272 0 0)
(110.037 0 0)
(110.816 0 0)
(111.61 0 0)
(112.416 0 0)
(113.233 0 0)
(114.061 0 0)
(114.897 0 0)
(115.742 0 0)
(116.594 0 0)
(117.453 0 0)
(118.317 0 0)
(119.186 0 0)
(120.06 0 0)
(120.937 0 0)
(121.818 0 0)
(122.702 0 0)
(123.588 0 0)
(124.476 0 0)
(125.365 0 0)
(126.255 0 0)
(127.147 0 0)
(128.038 0 0)
(128.93 0 0)
(129.821 0 0)
(130.712 0 0)
(131.602 0 0)
(132.491 0 0)
(133.379 0 0)
(134.266 0 0)
(135.151 0 0)
(136.034 0 0)
(136.915 0 0)
(137.794 0 0)
(138.671 0 0)
(139.545 0 0)
(140.416 0 0)
(141.285 0 0)
(142.151 0 0)
(143.013 0 0)
(143.873 0 0)
(144.729 0 0)
(145.582 0 0)
(146.431 0 0)
(147.276 0 0)
(148.118 0 0)
(148.956 0 0)
(149.791 0 0)
(150.621 0 0)
(151.447 0 0)
(152.269 0 0)
(153.087 0 0)
(153.9 0 0)
(154.71 0 0)
(155.514 0 0)
(156.315 0 0)
(157.111 0 0)
(157.902 0 0)
(158.69 0 0)
(159.466 0 0)
(160.264 0 0)
(160.972 0 0)
(161.941 0 0)
(101.251 0 0)
(101.449 0 0)
(101.71 0 0)
(102.028 0 0)
(102.4 0 0)
(102.82 0 0)
(103.284 0 0)
(103.789 0 0)
(104.331 0 0)
(104.906 0 0)
(105.511 0 0)
(106.144 0 0)
(106.803 0 0)
(107.484 0 0)
(108.186 0 0)
(108.907 0 0)
(109.645 0 0)
(110.399 0 0)
(111.167 0 0)
(111.948 0 0)
(112.74 0 0)
(113.543 0 0)
(114.355 0 0)
(115.176 0 0)
(116.004 0 0)
(116.839 0 0)
(117.68 0 0)
(118.527 0 0)
(119.378 0 0)
(120.234 0 0)
(121.093 0 0)
(121.955 0 0)
(122.82 0 0)
(123.687 0 0)
(124.556 0 0)
(125.426 0 0)
(126.297 0 0)
(127.169 0 0)
(128.042 0 0)
(128.914 0 0)
(129.787 0 0)
(130.658 0 0)
(131.529 0 0)
(132.4 0 0)
(133.269 0 0)
(134.136 0 0)
(135.002 0 0)
(135.866 0 0)
(136.729 0 0)
(137.589 0 0)
(138.447 0 0)
(139.302 0 0)
(140.155 0 0)
(141.005 0 0)
(141.852 0 0)
(142.696 0 0)
(143.537 0 0)
(144.375 0 0)
(145.209 0 0)
(146.04 0 0)
(146.868 0 0)
(147.692 0 0)
(148.512 0 0)
(149.328 0 0)
(150.14 0 0)
(150.948 0 0)
(151.752 0 0)
(152.552 0 0)
(153.348 0 0)
(154.14 0 0)
(154.927 0 0)
(155.71 0 0)
(156.488 0 0)
(157.261 0 0)
(158.032 0 0)
(158.79 0 0)
(159.57 0 0)
(160.263 0 0)
(161.207 0 0)
(101.421 0 0)
(101.668 0 0)
(101.971 0 0)
(102.324 0 0)
(102.724 0 0)
(103.167 0 0)
(103.649 0 0)
(104.167 0 0)
(104.718 0 0)
(105.299 0 0)
(105.907 0 0)
(106.541 0 0)
(107.197 0 0)
(107.873 0 0)
(108.569 0 0)
(109.282 0 0)
(110.011 0 0)
(110.754 0 0)
(111.51 0 0)
(112.278 0 0)
(113.056 0 0)
(113.845 0 0)
(114.642 0 0)
(115.447 0 0)
(116.259 0 0)
(117.077 0 0)
(117.902 0 0)
(118.731 0 0)
(119.565 0 0)
(120.402 0 0)
(121.244 0 0)
(122.088 0 0)
(122.934 0 0)
(123.783 0 0)
(124.634 0 0)
(125.485 0 0)
(126.338 0 0)
(127.192 0 0)
(128.046 0 0)
(128.899 0 0)
(129.753 0 0)
(130.606 0 0)