/*--------------------------------*- C++ -*----------------------------------*\
| =========                 |                                                 |
| \\      /  F ield         | OpenFOAM: The Open Source CFD Toolbox           |
|  \\    /   O peration     | Version:  2312                                  |
|   \\  /    A nd           | Website:  www.openfoam.com                      |
|    \\/     M anipulation  |                                                 |
\*---------------------------------------------------------------------------*/
FoamFile
{
    version     2.0;
    format      ascii;
    arch        "LSB;label=32;scalar=64";
    class       surfaceScalarField;
    location    "0.82";
    object      phi;
}
// * * * * * * * * * * * * * * * * * * * * * * * * * * * * * * * * * * * * * //

dimensions      [0 3 -1 0 0 0 0];

oriented        oriented;

internalField   nonuniform List<scalar> 
62015
(
70.7707
0.137989
-71.6023
69.923
0.133819
69.0586
0.129613
68.1761
0.125372
67.2744
0.121102
66.3519
0.116803
65.407
0.112481
64.4378
0.108139
63.4421
0.103779
62.4175
0.099405
61.3612
0.0950204
60.2699
0.0906284
59.1397
0.0862321
57.9662
0.0818346
56.7438
0.077439
55.4662
0.0730479
54.1256
0.0686641
52.7124
0.0642898
51.2149
0.0599264
49.6187
0.0555761
47.9063
0.05124
46.0588
0.0469199
44.0647
0.0426249
41.937
0.0383818
39.7337
0.03425
37.5629
0.0303231
35.5572
0.0267027
33.83
0.0234606
32.441
0.0206104
31.3922
0.0181122
30.6456
0.0158961
30.147
0.0138874
29.8424
0.0120207
29.686
0.0102444
29.6419
0.00852143
29.6832
0.0068246
29.7897
0.00513544
29.947
0.00344073
30.1441
0.00173097
30.3729
0
30.6275
-0.00175691
30.9031
-0.00354311
31.1962
-0.00536044
31.504
-0.00721062
31.8242
-0.00909459
32.1551
-0.0110125
32.4953
-0.0129648
32.8435
-0.0149511
33.199
-0.0169713
33.5608
-0.0190248
33.9284
-0.0211109
34.3011
-0.0232287
34.6787
-0.0253774
35.0605
-0.0275563
35.4465
-0.0297639
35.8362
-0.0319995
36.2295
-0.0342615
36.6261
-0.036549
37.0259
-0.0388606
37.4287
-0.0411949
37.8345
-0.0435506
38.2431
-0.0459265
38.6544
-0.0483208
39.0684
-0.0507322
39.485
-0.0531595
39.9041
-0.0556009
40.3257
-0.0580548
40.7497
-0.0605198
41.1762
-0.0629944
41.6049
-0.0654768
42.0361
-0.0679656
42.4696
-0.0704588
42.9051
-0.0729557
43.3436
-0.0754527
43.7824
-0.0779529
44.2292
-0.0804411
44.6605
-0.0829571
45.1487
-0.0853699
-0.088083
45.4714
67.9223
0.26889
-68.7281
67.1007
0.260732
66.2629
0.252502
65.4076
0.244208
64.5338
0.235855
63.6397
0.227449
62.7239
0.218998
61.7845
0.210507
60.8193
0.201982
59.8258
0.193431
58.8014
0.184859
57.7426
0.176272
56.6457
0.167677
55.5061
0.159079
54.3185
0.150484
53.0764
0.141898
51.772
0.133324
50.3958
0.124767
48.936
0.11623
47.3786
0.107717
45.7067
0.0992292
43.9046
0.090776
41.9678
0.0823841
39.9204
0.0741252
37.831
0.0661362
35.8086
0.0586058
33.9737
0.0517158
32.4181
0.0455713
31.1821
0.0401664
30.256
0.0354061
29.6002
0.0311526
29.1641
0.0272675
28.8996
0.0236327
28.7665
0.0201577
28.7335
0.0167754
28.777
0.0134384
28.8796
0.0101128
29.0283
0.00677486
29.2136
0.00340794
29.4281
0
29.6666
-0.00345738
29.9246
-0.00697013
30.199
-0.0105424
30.4873
-0.0141768
30.7874
-0.017875
31.0976
-0.021638
31.4167
-0.0254658
31.7436
-0.0293585
32.0773
-0.0333152
32.4172
-0.037335
32.7627
-0.0414164
33.1132
-0.0455584
33.4683
-0.0497588
33.8277
-0.0540161
34.191
-0.0583279
34.5581
-0.0626924
34.9286
-0.0671073
35.3024
-0.0715701
35.6793
-0.0760783
36.0592
-0.0806295
36.442
-0.085221
36.8276
-0.0898501
37.2159
-0.0945143
37.6067
-0.0992105
38.0002
-0.103936
38.3961
-0.108688
38.7944
-0.113463
39.1951
-0.118258
39.5982
-0.123071
40.0036
-0.127898
40.4113
-0.132737
40.8213
-0.137583
41.2334
-0.142435
41.6482
-0.147287
42.0635
-0.152143
42.4863
-0.156977
42.8948
-0.161861
43.3563
-0.166549
-0.171803
43.6653
65.1442
0.392802
-65.9258
64.3472
0.380829
63.5346
0.368755
62.705
0.356586
61.8573
0.344333
60.99
0.332004
60.1014
0.319608
59.1896
0.307155
58.2527
0.294653
57.288
0.282112
56.2929
0.269542
55.2639
0.256949
54.1974
0.244344
53.0886
0.231734
51.9323
0.219127
50.7218
0.20653
49.4494
0.193949
48.1054
0.181391
46.6783
0.168859
45.1541
0.156358
43.5177
0.143895
41.7577
0.131491
39.8788
0.119208
37.9174
0.107183
35.9512
0.0956436
34.0869
0.0848654
32.4288
0.0750772
31.0466
0.0663759
29.9619
0.0587079
29.1561
0.0519136
28.5887
0.0457939
28.2137
0.0401591
27.9887
0.0348521
27.8791
0.0297529
27.8578
0.0247734
27.9047
0.0198506
28.0045
0.0149395
28.1459
0.010008
28.3207
0.00503364
28.5223
0
28.7459
-0.00510449
28.9877
-0.010288
29.2449
-0.0155563
29.515
-0.0209129
29.7963
-0.0263604
30.0872
-0.0319
30.3865
-0.0375318
30.6933
-0.0432558
31.0067
-0.0490706
31.3259
-0.0549752
31.6506
-0.0609676
31.9801
-0.0670457
32.3142
-0.0732068
32.6523
-0.0794486
32.9943
-0.0857679
33.34
-0.0921618
33.689
-0.0986271
34.0413
-0.10516
34.3966
-0.111758
34.7548
-0.118415
35.1159
-0.12513
35.4797
-0.131898
35.8461
-0.138715
36.2151
-0.145577
36.5866
-0.15248
36.9606
-0.159419
37.3369
-0.166391
37.7156
-0.173391
38.0965
-0.180414
38.4798
-0.187457
38.8653
-0.194515
39.253
-0.201582
39.6428
-0.208657
40.0353
-0.21573
40.4283
-0.222807
40.8284
-0.229851
41.2152
-0.236964
41.6514
-0.243799
-0.251433
41.9462
62.4555
0.509935
-63.2139
61.6822
0.494318
60.8935
0.47857
60.0885
0.462701
59.2656
0.446722
58.4236
0.430646
57.5608
0.414484
56.6753
0.398248
55.7649
0.381949
54.8273
0.365599
53.8596
0.34921
52.8584
0.332791
51.82
0.316355
50.7397
0.299912
49.612
0.28347
48.4304
0.267038
47.1868
0.250624
45.8718
0.234235
44.4738
0.217876
42.9795
0.201554
41.3761
0.185287
39.6585
0.169118
37.8418
0.153165
35.9745
0.13765
34.14
0.122896
32.4382
0.109241
30.9552
0.0969193
29.7393
0.0859852
28.7965
0.0763178
28.1019
0.0676928
27.616
0.059859
27.2973
0.0525884
27.109
0.0456964
27.0214
0.0390428
27.0115
0.0325247
27.0618
0.0260685
27.1595
0.0196208
27.2946
0.0131438
27.4599
0.00661004
27.6497
0
27.8598
-0.00670041
28.0867
-0.0135012
28.3279
-0.0204093
28.5812
-0.0274292
28.845
-0.0345643
29.1179
-0.0418154
29.3988
-0.0491834
29.6868
-0.0566675
29.9811
-0.0642667
30.281
-0.0719791
30.5862
-0.0798023
30.896
-0.0877335
31.2102
-0.0957698
31.5284
-0.103908
31.8504
-0.112143
32.1758
-0.120473
32.5046
-0.128892
32.8366
-0.137396
33.1715
-0.145981
33.5093
-0.154642
33.8499
-0.163375
34.1931
-0.172173
34.5389
-0.181033
34.8872
-0.189948
35.238
-0.198915
35.5912
-0.207926
35.9467
-0.216977
36.3045
-0.226062
36.6645
-0.235176
37.0268
-0.244313
37.3913
-0.253467
37.758
-0.262632
38.1266
-0.271803
38.4979
-0.280971
38.8697
-0.290143
39.2483
-0.299269
39.6146
-0.308482
40.027
-0.31734
-0.327208
40.3074
59.8624
0.620528
-60.5983
59.1119
0.601431
58.3464
0.582174
57.5649
0.562772
56.766
0.543237
55.9483
0.523584
55.1102
0.503827
54.2497
0.48398
53.3647
0.464056
52.4529
0.44407
51.5112
0.424035
50.5363
0.403963
49.5245
0.383868
48.4708
0.36376
47.37
0.343652
46.2151
0.323552
44.9984
0.303469
43.7101
0.28341
42.3391
0.263385
40.8732
0.243405
39.3033
0.223504
37.6319
0.20377
35.8851
0.184395
34.1215
0.165699
32.4256
0.148086
30.8865
0.131923
29.5712
0.117411
28.5092
0.104532
27.6947
0.0930931
27.0992
0.0828101
26.6854
0.073392
26.4164
0.0645845
26.2606
0.0561847
26.1924
0.0480401
26.1925
0.0400384
26.2458
0.0320983
26.3413
0.0241613
26.4705
0.0161849
26.6271
0.00813849
26.806
0
27.0034
-0.00824665
27.2165
-0.016613
27.4429
-0.0251068
27.6805
-0.0337333
27.928
-0.0424962
28.1841
-0.051397
28.4477
-0.060436
28.7181
-0.0696125
28.9945
-0.0789253
29.2763
-0.0883721
29.5631
-0.0979499
29.8545
-0.107656
30.15
-0.117485
30.4495
-0.127435
30.7525
-0.1375
31.059
-0.147676
31.3687
-0.157957
31.6815
-0.168339
31.9972
-0.178816
32.3157
-0.189382
32.6369
-0.200031
32.9608
-0.210758
33.2871
-0.221556
33.6159
-0.23242
33.9471
-0.243341
34.2806
-0.254315
34.6164
-0.265335
34.9545
-0.276393
35.2947
-0.287483
35.6372
-0.298598
35.9817
-0.309732
36.3284
-0.320877
36.6771
-0.332027
37.0283
-0.34317
37.3801
-0.354316
37.7383
-0.365405
38.085
-0.376594
38.4751
-0.387359
-0.399322
38.7414
57.3651
0.724813
-58.0792
56.6366
0.702394
55.8937
0.67979
55.1349
0.657016
54.3591
0.634088
53.5649
0.611022
52.7505
0.587834
51.914
0.564541
51.0534
0.541158
50.1661
0.517701
49.2493
0.494184
48.2995
0.470623
47.3128
0.447032
46.2845
0.423423
45.2089
0.399808
44.0793
0.376198
42.8877
0.352602
41.6246
0.329029
40.2793
0.305491
38.8419
0.282014
37.3081
0.258661
35.6891
0.235583
34.0217
0.213066
32.3707
0.191526
30.8176
0.171421
29.4378
0.153106
28.2795
0.136714
27.3571
0.122141
26.6564
0.109122
26.1477
0.0973258
25.7965
0.0864334
25.5705
0.076174
25.4426
0.0663353
25.3912
0.0567576
25.3996
0.0473231
25.4552
0.0379464
25.5484
0.0285652
25.6719
0.0191343
25.8202
0.00962057
25.9889
0
26.1746
-0.00974485
26.3747
-0.0196265
26.5871
-0.0296537
26.8101
-0.0398323
27.0423
-0.0501658
27.2827
-0.0606564
27.5301
-0.071304
27.784
-0.0821081
28.0436
-0.093067
28.3085
-0.104178
28.578
-0.115438
28.852
-0.126842
29.13
-0.138388
29.4118
-0.150069
29.6971
-0.161881
29.9857
-0.173819
30.2774
-0.185876
30.5721
-0.198046
30.8697
-0.210323
31.17
-0.222701
31.4729
-0.235172
31.7784
-0.24773
32.0863
-0.260368
32.3967
-0.273078
32.7094
-0.285854
33.0243
-0.298686
33.3415
-0.311569
33.6609
-0.324494
33.9824
-0.337452
34.3061
-0.350438
34.6318
-0.363441
34.9596
-0.376454
35.2894
-0.389471
35.6215
-0.402477
35.9544
-0.415483
36.2932
-0.428421
36.6215
-0.44147
36.9904
-0.45403
-0.467958
37.2431
54.9612
0.823012
-55.6542
54.2542
0.797424
53.533
0.771626
52.7962
0.745635
52.0428
0.719471
51.2711
0.693149
50.4795
0.666689
49.6662
0.640108
48.829
0.613424
47.9653
0.586654
47.0722
0.559814
46.1463
0.532921
45.1835
0.505989
44.1792
0.479032
43.1275
0.452063
42.0217
0.425092
40.8539
0.398131
39.6148
0.371192
38.2949
0.344294
36.8873
0.317485
35.394
0.290879
33.8354
0.264709
32.2568
0.239362
30.726
0.215336
29.317
0.193106
28.0898
0.172971
27.0764
0.154973
26.2787
0.138919
25.6779
0.12448
25.2443
0.111292
24.9471
0.099018
24.758
0.0873811
24.654
0.0761646
24.6168
0.0652065
24.6321
0.0543873
24.6892
0.0436188
24.7799
0.0328371
24.8978
0.0219949
25.0382
0.0110577
25.1972
0
25.3719
-0.0111965
25.5598
-0.0225451
25.7592
-0.0340552
25.9685
-0.045733
26.1864
-0.0575824
26.4119
-0.0696052
26.6442
-0.0818017
26.8826
-0.0941713
27.1265
-0.106711
27.3753
-0.11942
27.6287
-0.132292
27.8863
-0.145324
28.1478
-0.158512
28.413
-0.171849
28.6815
-0.185329
28.9533
-0.198948
29.2281
-0.212698
29.5058
-0.226571
29.7862
-0.240563
30.0693
-0.254663
30.355
-0.268866
30.6432
-0.283164
30.9338
-0.297548
31.2267
-0.31201
31.5219
-0.326542
31.8193
-0.341135
32.1189
-0.355781
32.4206
-0.370472
32.7244
-0.385197
33.0303
-0.399949
33.3382
-0.414718
33.6481
-0.429495
33.9599
-0.444272
34.2741
-0.459034
34.5889
-0.473792
34.9095
-0.488471
35.2202
-0.50327
35.5691
-0.517522
-0.533291
35.8089
52.6476
0.915332
-53.3201
51.9614
0.886722
51.2612
0.857879
50.5458
0.828822
49.8138
0.79957
49.0639
0.770144
48.2944
0.740563
47.5033
0.710846
46.6884
0.681012
45.8472
0.65108
44.9768
0.621067
44.0737
0.59099
43.1337
0.560865
42.152
0.530706
41.123
0.500527
40.0398
0.470339
38.8946
0.440155
37.6788
0.409993
36.3847
0.37989
35.0097
0.349928
33.5629
0.320293
32.0734
0.291316
30.5928
0.263484
29.1872
0.237341
27.9204
0.213337
26.8371
0.191683
25.9552
0.172314
25.2682
0.154956
24.7543
0.139231
24.3856
0.124751
24.1346
0.111176
23.9771
0.0982262
23.8934
0.0856873
23.868
0.073398
23.8889
0.0612389
23.9469
0.0491215
24.0348
0.036981
24.1474
0.0247693
24.2802
0.012451
24.4301
0
24.5944
-0.012603
24.7709
-0.0253718
24.9581
-0.0383161
25.1545
-0.0514425
25.359
-0.0647547
25.5706
-0.0782548
25.7887
-0.0919432
26.0126
-0.105818
26.2416
-0.119878
26.4754
-0.13412
26.7136
-0.148539
26.9558
-0.16313
27.2018
-0.177889
27.4513
-0.192809
27.7041
-0.207884
27.9599
-0.223107
28.2188
-0.238471
28.4804
-0.253969
28.7447
-0.269592
29.0117
-0.285332
29.2811
-0.301181
29.5529
-0.317131
29.8271
-0.333172
30.1035
-0.349296
30.3822
-0.365493
30.663
-0.381754
30.9459
-0.39807
31.231
-0.41443
31.518
-0.430826
31.8071
-0.447247
32.0982
-0.463683
32.3912
-0.480124
32.686
-0.496562
32.9831
-0.512979
33.2809
-0.529388
33.5842
-0.545706
33.8782
-0.562151
34.2082
-0.577995
-0.595488
34.4357
50.4211
1.00197
-51.0738
49.755
0.970481
49.0751
0.938737
48.3802
0.906756
47.669
0.874563
46.94
0.842176
46.1916
0.809618
45.4218
0.77691
44.6284
0.74407
43.8088
0.711119
42.96
0.678076
42.0785
0.644957
41.1601
0.611779
40.1999
0.578556
39.1923
0.545303
38.1305
0.512034
37.007
0.478764
35.8144
0.445525
34.5478
0.412378
33.2095
0.379465
31.8164
0.347058
30.4052
0.315597
29.03
0.285644
27.7518
0.257752
26.6226
0.2323
25.6728
0.209387
24.9091
0.188845
24.3193
0.170329
23.8807
0.153427
23.5678
0.137742
23.3564
0.122933
23.2259
0.108728
23.1594
0.0949168
23.1439
0.0813418
23.1693
0.0678852
23.2275
0.0544599
23.3126
0.041001
23.4199
0.0274605
23.5456
0.0138023
23.6868
0
23.8413
-0.013966
24.0071
-0.0281098
24.1828
-0.0424413
24.3671
-0.0569673
24.559
-0.0716917
24.7577
-0.0866164
24.9624
-0.101742
25.1726
-0.117066
25.3878
-0.132586
25.6075
-0.1483
25.8313
-0.164203
26.0591
-0.180289
26.2904
-0.196552
26.5252
-0.212986
26.7631
-0.229585
27.004
-0.24634
27.2478
-0.263244
27.4943
-0.280288
27.7434
-0.297465
27.9951
-0.314765
28.2491
-0.33218
28.5055
-0.349699
28.7642
-0.367314
29.0251
-0.385014
29.2882
-0.40279
29.5533
-0.420631
29.8205
-0.438527
30.0898
-0.456467
30.361
-0.474442
30.6342
-0.49244
30.9093
-0.51045
31.1863
-0.528461
31.4651
-0.546465
31.746
-0.564442
32.0277
-0.582405
32.3146
-0.600268
32.5928
-0.618259
32.9049
-0.635604
-0.65471
33.1208
48.2785
1.08312
-48.9119
47.6318
1.04889
46.9715
1.01438
46.2963
0.979612
45.6051
0.944614
44.8963
0.909405
44.1681
0.874009
43.4187
0.838446
42.6458
0.802739
41.8467
0.766906
41.0185
0.730966
40.1575
0.694939
39.2595
0.65884
38.3198
0.622684
37.3324
0.586488
36.291
0.550267
35.1889
0.514048
34.0201
0.47788
32.7836
0.441871
31.4876
0.406237
30.1565
0.371356
28.8319
0.337763
27.5674
0.306064
26.4162
0.276773
25.4176
0.250164
24.5899
0.226214
23.9313
0.204661
23.4263
0.185105
23.0528
0.167116
22.7877
0.150295
22.6102
0.134312
22.5025
0.118903
22.4507
0.103865
22.4435
0.0890467
22.4722
0.0743334
22.5303
0.0596395
22.6124
0.0449012
22.7146
0.0300709
22.8334
0.0151126
22.9665
0
23.1118
-0.0152867
23.2676
-0.0307619
23.4325
-0.0464355
23.6055
-0.062314
23.7856
-0.0784019
23.972
-0.0947005
24.1642
-0.11121
24.3616
-0.127929
24.5637
-0.144854
24.7701
-0.161982
24.9806
-0.179308
25.1947
-0.196826
25.4123
-0.21453
25.6332
-0.232413
25.8571
-0.250468
26.084
-0.268686
26.3136
-0.287059
26.5458
-0.305579
26.7806
-0.324236
27.0178
-0.343021
27.2574
-0.361924
27.4992
-0.380935
27.7433
-0.400043
27.9895
-0.419239
28.2378
-0.438511
28.4881
-0.457849
28.7405
-0.477241
28.9948
-0.496677
29.2511
-0.516144
29.5092
-0.535632
29.7692
-0.555128
30.0311
-0.574621
30.2947
-0.594101
30.5604
-0.613548
30.8268
-0.632976
31.0981
-0.652291
31.3614
-0.671737
31.6566
-0.690494
-0.711109
31.8614
46.2166
1.15897
-46.8314
45.5886
1.12212
44.9471
1.08497
44.2911
1.04755
43.619
1.00988
42.9295
0.971983
42.2207
0.93388
41.4908
0.895594
40.7374
0.857148
39.9579
0.818562
39.1492
0.779855
38.3076
0.741046
37.4291
0.702151
36.5085
0.663187
35.5405
0.624172
34.519
0.585128
33.4382
0.546098
32.295
0.507165
31.0926
0.4685
29.8458
0.430415
28.5849
0.393393
27.354
0.358044
26.2031
0.324969
25.1755
0.294599
24.2988
0.267082
23.5812
0.242277
23.0153
0.219841
22.584
0.199339
22.2664
0.180334
22.0423
0.162438
21.8937
0.145332
21.8055
0.128765
21.766
0.112544
21.7656
0.0965218
21.797
0.08059
21.8545
0.0646651
21.9336
0.048685
22.0308
0.032603
22.1432
0.0163834
22.2686
0
22.4052
-0.0165667
22.5515
-0.0333311
22.7063
-0.0503029
22.8687
-0.067489
23.0377
-0.0848932
23.2127
-0.102517
23.3931
-0.120361
23.5785
-0.138422
23.7683
-0.156698
23.9623
-0.175184
24.1601
-0.193877
24.3614
-0.212768
24.5661
-0.231852
24.7739
-0.251122
24.9847
-0.270569
25.1983
-0.290184
25.4145
-0.30996
25.6333
-0.329887
25.8546
-0.349954
26.0782
-0.370152
26.3041
-0.390471
26.5322
-0.410899
26.7624
-0.431427
26.9948
-0.452042
27.2292
-0.472733
27.4655
-0.493489
27.7038
-0.514298
27.944
-0.535148
28.1861
-0.556027
28.4301
-0.576922
28.6758
-0.597821
28.9234
-0.618712
29.1726
-0.639584
29.4238
-0.660416
29.6758
-0.681222
29.9324
-0.701905
30.1816
-0.722718
30.4607
-0.742804
-0.76483
30.655
44.2324
1.22968
-44.8293
43.6224
1.19034
42.9991
1.15069
42.3613
1.11074
41.7077
1.07052
41.0366
1.03005
40.3464
0.989369
39.6351
0.948484
38.9003
0.907422
38.1394
0.866205
37.3492
0.824851
36.526
0.783379
35.6658
0.741808
34.7636
0.700154
33.8141
0.658442
32.8122
0.616706
31.7537
0.575014
30.6388
0.533502
29.4759
0.492423
28.2858
0.452198
27.103
0.413402
25.9711
0.376677
24.9337
0.342574
24.0242
0.311407
23.2594
0.283187
22.6401
0.257669
22.1553
0.234451
21.7876
0.213078
21.5181
0.193117
21.329
0.174196
21.205
0.156012
21.1334
0.138328
21.1042
0.120962
21.1094
0.103775
21.1428
0.0866612
21.1994
0.0695418
21.2755
0.0523563
21.3678
0.0350592
21.4741
0.0176157
21.5922
0
21.7206
-0.0178072
21.8581
-0.0358199
22.0034
-0.054048
22.1558
-0.072498
22.3144
-0.0911736
22.4787
-0.110076
22.6481
-0.129205
22.8222
-0.148559
23.0005
-0.168135
23.1827
-0.187927
23.3686
-0.20793
23.558
-0.228139
23.7505
-0.248546
23.946
-0.269142
24.1444
-0.289921
24.3455
-0.310872
24.5492
-0.331987
24.7553
-0.353255
24.9638
-0.374666
25.1746
-0.39621
25.3876
-0.417876
25.6027
-0.439652
25.82
-0.461527
26.0392
-0.483489
26.2604
-0.505526
26.4836
-0.527626
26.7086
-0.549776
26.9355
-0.571964
27.1642
-0.594177
27.3947
-0.616402
27.627
-0.638627
27.861
-0.660836
28.0966
-0.683021
28.3341
-0.705157
28.5725
-0.727261
28.8152
-0.74923
29.051
-0.771329
29.3148
-0.792665
-0.816009
29.4992
42.323
1.29542
-42.9027
41.7303
1.25371
41.1245
1.21167
40.5042
1.16931
39.8682
1.12666
39.2148
1.08375
38.5423
1.0406
37.8487
0.997238
37.1316
0.953677
36.3883
0.909944
35.6156
0.866057
34.8099
0.822036
33.967
0.7779
33.0823
0.733673
32.1511
0.689385
31.1691
0.645094
30.1349
0.600909
29.0524
0.557037
27.9355
0.513831
26.8097
0.471816
25.7114
0.43163
24.6813
0.3939
23.7551
0.359084
22.9561
0.327354
22.2927
0.298594
21.7602
0.272472
21.3459
0.248547
21.033
0.22636
20.8046
0.205491
20.6454
0.185588
20.5423
0.166367
20.4848
0.147605
20.4643
0.12913
20.4741
0.110813
20.5088
0.092553
20.5643
0.0742741
20.6373
0.0559185
20.725
0.0374419
20.8254
0.0188108
20.9367
0
21.0575
-0.0190094
21.1866
-0.0382312
21.3231
-0.0576749
21.4661
-0.0773467
21.615
-0.0972502
21.7692
-0.117387
21.9282
-0.137756
22.0917
-0.158355
22.2592
-0.17918
22.4304
-0.200227
22.6052
-0.22149
22.7832
-0.242963
22.9643
-0.264637
23.1482
-0.286504
23.3349
-0.308557
23.5243
-0.330784
23.7161
-0.353177
23.9103
-0.375725
24.1068
-0.398418
24.3055
-0.421244
24.5063
-0.444191
24.7092
-0.467248
24.9142
-0.490404
25.1211
-0.513644
25.3299
-0.536958
25.5405
-0.560331
25.753
-0.583752
25.9673
-0.607206
26.1834
-0.630681
26.4012
-0.654163
26.6207
-0.677638
26.8419
-0.701092
27.0646
-0.724513
27.2892
-0.747879
27.5146
-0.771204
27.7442
-0.794384
27.9673
-0.817689
28.2168
-0.840202
-0.864778
28.3918
40.4855
1.35636
-41.0487
39.9095
1.31239
39.3204
1.26807
38.717
1.22342
38.0978
1.17845
37.4612
1.13321
36.8056
1.08771
36.1288
1.04197
35.4285
0.99602
34.7018
0.949879
33.9457
0.903567
33.1566
0.857105
32.3303
0.810515
31.4626
0.763829
30.5497
0.717094
29.5889
0.670402
28.5819
0.623921
27.5371
0.577949
26.4731
0.532947
25.4188
0.489521
24.4099
0.448333
23.4819
0.409943
22.662
0.374681
21.9648
0.342576
21.392
0.313398
20.9357
0.286752
20.5823
0.262176
20.3163
0.239219
20.1231
0.217482
19.9893
0.196634
19.9041
0.176411
19.8585
0.156605
19.8453
0.137057
19.8587
0.117644
19.8943
0.0982711
19.9485
0.0788666
20.0185
0.0593747
20.1018
0.0397533
20.1966
0.0199699
20.3014
0
20.415
-0.0201747
20.5363
-0.0405673
20.6644
-0.0611874
20.7986
-0.0820406
20.9384
-0.103131
21.0832
-0.124458
21.2325
-0.146022
21.386
-0.16782
21.5433
-0.189849
21.7042
-0.212103
21.8685
-0.234576
22.0359
-0.257261
22.2062
-0.28015
22.3793
-0.303235
22.5551
-0.326506
22.7333
-0.349954
22.9139
-0.373568
23.0969
-0.397338
23.2821
-0.421252
23.4694
-0.445299
23.6587
-0.469466
23.8501
-0.493742
24.0435
-0.518114
24.2387
-0.542568
24.4358
-0.567093
24.6347
-0.591674
24.8353
-0.616297
25.0377
-0.64095
25.2419
-0.665618
25.4476
-0.690287
25.6551
-0.714943
25.8641
-0.73957
26.0747
-0.764158
26.2871
-0.788681
26.5003
-0.813156
26.7174
-0.837475
26.9285
-0.861913
27.1644
-0.885533
-0.911258
27.3304
38.7173
1.41263
-39.2645
38.1573
1.36652
37.5842
1.32003
36.9968
1.27319
36.3936
1.22601
35.7732
1.17854
35.1336
1.13079
34.4728
1.08279
33.7883
1.03455
33.0775
0.986106
32.3371
0.937471
31.5636
0.888672
30.7534
0.839737
29.9027
0.790711
29.0087
0.74167
28.0714
0.692757
27.0958
0.644218
26.0948
0.596455
25.0907
0.550024
24.1138
0.505583
23.1969
0.463762
22.3689
0.425017
21.6487
0.389526
21.0439
0.357186
20.5513
0.327678
20.1611
0.300563
19.8601
0.275376
19.6344
0.251683
19.4711
0.22911
19.3591
0.20735
19.2891
0.186157
19.2535
0.16534
19.2463
0.144751
19.2626
0.124274
19.2987
0.103821
19.3515
0.0833233
19.4184
0.0627285
19.4974
0.0419956
19.587
0.021094
19.6857
0
19.7925
-0.0213041
19.9064
-0.0428309
20.0267
-0.0645894
20.1528
-0.0865852
20.2839
-0.108821
20.4198
-0.131298
20.56
-0.154015
20.7042
-0.176969
20.852
-0.200156
21.0032
-0.22357
21.1576
-0.247205
21.315
-0.271055
21.4752
-0.295109
21.6381
-0.31936
21.8035
-0.343798
21.9713
-0.368413
22.1415
-0.393194
22.3138
-0.41813
22.4883
-0.443209
22.6649
-0.468419
22.8435
-0.493748
23.024
-0.519183
23.2063
-0.544711
23.3906
-0.570318
23.5766
-0.595992
23.7644
-0.621717
23.9539
-0.64748
24.145
-0.673267
24.3378
-0.699063
24.5323
-0.724854
24.7283
-0.750625
24.9259
-0.776359
25.125
-0.802046
25.3258
-0.827661
25.5274
-0.853216
25.7327
-0.878606
25.9325
-0.904108
26.1555
-0.92877
-0.955568
26.313
37.0155
1.46439
-37.5475
36.4708
1.41623
35.9131
1.36767
35.341
1.31874
34.7532
1.26946
34.148
1.21986
33.5236
1.16996
32.8779
1.11979
32.2085
1.06936
31.5126
1.01871
30.7872
0.967853
30.0289
0.916819
29.2344
0.865651
28.401
0.814417
27.5277
0.763236
26.6171
0.712317
25.678
0.662006
24.7274
0.612803
23.7897
0.565339
22.8944
0.520274
22.0696
0.478157
21.3373
0.439307
20.7091
0.403754
20.1868
0.371279
19.7646
0.341496
19.4316
0.313947
19.1756
0.288177
18.9842
0.263776
18.8465
0.240394
18.7529
0.21775
18.6958
0.195617
18.6686
0.17382
18.6665
0.15222
18.6851
0.13071
18.7213
0.109208
18.7725
0.0876486
18.8364
0.0659825
18.9114
0.0441709
18.9959
0.0221843
19.0889
0
19.1893
-0.0223988
19.2964
-0.0450241
19.4093
-0.0678846
19.5277
-0.0909854
19.6508
-0.114329
19.7784
-0.137916
19.91
-0.161745
20.0454
-0.185812
20.1843
-0.210114
20.3264
-0.234645
20.4716
-0.259397
20.6196
-0.284364
20.7703
-0.309536
20.9235
-0.334905
21.0792
-0.360461
21.2372
-0.386192
21.3974
-0.412088
21.5598
-0.438137
21.7243
-0.464328
21.8907
-0.490647
22.0591
-0.517082
22.2293
-0.54362
22.4014
-0.570247
22.5752
-0.596949
22.7508
-0.623713
22.9281
-0.650523
23.107
-0.677366
23.2875
-0.704227
23.4697
-0.73109
23.6534
-0.75794
23.8386
-0.784763
24.0254
-0.811543
24.2136
-0.838265
24.4035
-0.864907
24.5942
-0.891481
24.7883
-0.917878
24.9773
-0.944379
25.1881
-0.97002
-0.997817
25.3377
35.3777
1.51176
-35.8951
34.8476
1.46165
34.3045
1.41112
33.747
1.3602
33.1738
1.3089
32.5831
1.25727
31.9731
1.20531
31.3418
1.15306
30.6866
1.10054
30.005
1.04778
29.2939
0.994793
28.5505
0.941632
27.772
0.888354
26.957
0.835063
26.1068
0.78194
25.2272
0.72928
24.3306
0.67753
23.4368
0.627277
22.5707
0.579182
21.7589
0.533857
21.0242
0.491732
20.3815
0.452972
19.8368
0.417474
19.3877
0.384926
19.0266
0.354901
18.7429
0.326941
18.5253
0.300607
18.3632
0.275516
18.2473
0.25135
18.1694
0.227847
18.1231
0.204801
18.1031
0.182052
18.1051
0.15947
18.1255
0.136958
18.1615
0.114436
18.211
0.0918463
18.2721
0.0691401
18.3431
0.0462813
18.4229
0.0232418
18.5105
0
18.6049
-0.0234599
18.7055
-0.0471495
18.8116
-0.0710765
18.9226
-0.0952461
19.0383
-0.11966
19.158
-0.144319
19.2817
-0.16922
19.4088
-0.194362
19.5393
-0.219737
19.6729
-0.245342
19.8093
-0.271169
19.9485
-0.297209
20.0902
-0.323454
20.2344
-0.349894
20.381
-0.376519
20.5297
-0.403319
20.6807
-0.430281
20.8336
-0.457394
20.9886
-0.484645
21.1455
-0.512022
21.3043
-0.53951
21.4648
-0.567098
21.6272
-0.59477
21.7912
-0.622512
21.9569
-0.650311
22.1243
-0.67815
22.2932
-0.706016
22.4638
-0.733893
22.6358
-0.761765
22.8094
-0.789617
22.9845
-0.817434
23.161
-0.845199
23.3389
-0.872898
23.5185
-0.900507
23.6988
-0.928038
23.8824
-0.955382
24.0613
-0.982821
24.2605
-1.00938
-1.03811
24.4025
33.8013
1.55488
-34.3047
33.2852
1.5029
32.756
1.45049
32.2124
1.39766
31.653
1.34444
31.076
1.29086
30.4797
1.23694
29.862
1.1827
29.2204
1.12817
28.5524
1.07339
27.8553
1.01838
27.1267
0.963201
26.365
0.907954
25.5705
0.852791
24.747
0.79797
23.9035
0.743884
23.0555
0.691073
22.2241
0.640178
21.433
0.59184
20.7047
0.546576
20.0559
0.504672
19.4958
0.466144
19.0256
0.430773
18.6407
0.398185
18.3324
0.367934
18.0909
0.339571
17.9062
0.312685
17.7691
0.286923
17.6717
0.26199
17.6072
0.237652
17.5701
0.21372
17.5561
0.190045
17.5614
0.16651
17.5831
0.143023
17.6188
0.119512
17.6665
0.0959204
17.7247
0.0722042
17.792
0.0483287
17.8674
0.0242674
17.9498
0
18.0386
-0.0244885
18.1331
-0.0492089
18.2327
-0.0741686
18.337
-0.0993719
18.4456
-0.124821
18.558
-0.150514
18.6741
-0.176451
18.7936
-0.202628
18.9162
-0.229038
19.0417
-0.255676
19.17
-0.282535
19.3008
-0.309607
19.4342
-0.336881
19.5699
-0.364349
19.7078
-0.392
19.8479
-0.419822
19.99
-0.447803
20.1342
-0.475932
20.2802
-0.504196
20.4281
-0.532581
20.5778
-0.561073
20.7292
-0.58966
20.8824
-0.618326
21.0372
-0.647057
21.1936
-0.675837
21.3516
-0.704653
21.5112
-0.733488
21.6722
-0.762327
21.8348
-0.791154
21.9988
-0.819953
22.1642
-0.848709
22.3311
-0.877403
22.4993
-0.906023
22.669
-0.934542
22.8395
-0.962974
23.0132
-0.991209
23.1824
-1.01953
23.3708
-1.04696
-1.07655
23.5055
32.2839
1.59384
-32.7739
31.781
1.54009
31.2651
1.48588
30.7347
1.43123
30.1884
1.37617
29.6245
1.32073
29.0411
1.26492
28.4363
1.20878
27.8077
1.15233
27.1529
1.09562
26.4698
1.03869
25.7566
0.981634
25.0132
0.924589
24.2421
0.867781
23.4497
0.811559
22.648
0.756411
21.8544
0.702946
21.0897
0.651813
20.3749
0.603585
19.7277
0.558647
19.1593
0.517132
18.674
0.478924
18.2698
0.443718
17.9406
0.4111
17.6778
0.380624
17.4724
0.351862
17.3157
0.324431
17.1999
0.298009
17.1182
0.272329
17.065
0.247178
17.0358
0.222382
17.0267
0.197807
17.0347
0.173345
17.0573
0.148911
17.0924
0.124439
17.1384
0.0998745
17.1939
0.0751774
17.2576
0.050315
17.3287
0.0252621
17.4063
0
17.4898
-0.0254856
17.5786
-0.0512048
17.6722
-0.0771641
17.7701
-0.103367
17.872
-0.129816
17.9776
-0.15651
18.0867
-0.183446
18.1989
-0.21062
18.3141
-0.238028
18.432
-0.265661
18.5526
-0.293513
18.6757
-0.321576
18.8012
-0.349839
18.9289
-0.378292
19.0587
-0.406925
19.1906
-0.435726
19.3245
-0.464683
19.4603
-0.493783
19.5979
-0.523013
19.7373
-0.55236
19.8785
-0.58181
20.0213
-0.611347
20.1658
-0.640959
20.3119
-0.670629
20.4595
-0.700343
20.6087
-0.730085
20.7594
-0.759839
20.9115
-0.789589
21.0651
-0.819319
21.22
-0.849013
21.3764
-0.878655
21.5341
-0.908226
21.6931
-0.937713
21.8536
-0.96709
22.0149
-0.99637
22.1791
-1.02544
22.3392
-1.05459
22.5173
-1.08283
-1.11323
22.6452
30.823
1.62877
-31.3004
30.3328
1.57332
29.8294
1.51739
29.3115
1.461
28.7777
1.40418
28.2261
1.34695
27.6551
1.28933
27.0626
1.23137
26.4466
1.17309
25.8049
1.11456
25.1361
1.05584
24.4397
0.997063
23.717
0.938433
22.973
0.880259
22.2169
0.822985
21.4626
0.767178
20.7281
0.713474
20.0327
0.662482
19.3935
0.614661
18.8234
0.570249
18.3287
0.529234
17.9102
0.491391
17.5638
0.456358
17.2827
0.423704
17.0589
0.392995
16.8843
0.36383
16.7515
0.335859
16.6537
0.308788
16.5854
0.282378
16.5418
0.256432
16.5192
0.230796
16.5142
0.205346
16.5244
0.179982
16.5476
0.154628
16.582
0.129221
16.6262
0.103712
16.679
0.0780625
16.7393
0.0522419
16.8064
0.026227
16.8795
0
16.958
-0.0264522
17.0414
-0.0531389
17.1293
-0.0800661
17.2213
-0.107237
17.317
-0.134653
17.4162
-0.162313
17.5186
-0.190213
17.624
-0.21835
17.7322
-0.246718
17.8431
-0.27531
17.9565
-0.304118
18.0723
-0.333133
18.1903
-0.362345
18.3105
-0.391744
18.4327
-0.421319
18.5569
-0.451057
18.683
-0.480947
18.811
-0.510976
18.9407
-0.541129
19.0721
-0.571394
19.2052
-0.601755
19.34
-0.6322
19.4763
-0.662711
19.6141
-0.693274
19.7535
-0.723874
19.8943
-0.754495
20.0366
-0.78512
20.1803
-0.815733
20.3253
-0.846318
20.4718
-0.876858
20.6195
-0.907336
20.7686
-0.937735
20.919
-0.968039
21.0707
-0.998224
21.2232
-1.0283
21.3785
-1.05816
21.5301
-1.08808
21.6984
-1.11708
-1.14824
21.8198
29.4164
1.65975
-29.8817
28.9382
1.60268
28.4468
1.54511
27.9408
1.48705
27.4187
1.42854
26.8789
1.36959
26.3197
1.31026
25.7391
1.25056
25.1355
1.19055
24.5073
1.13031
23.8538
1.06995
23.1761
1.00966
22.4774
0.949706
21.7651
0.890501
21.0505
0.832569
20.3486
0.776523
19.6766
0.72298
19.0509
0.672457
18.4848
0.625277
17.9864
0.581526
17.5583
0.541069
17.1987
0.503602
16.9024
0.468728
16.6627
0.436019
16.4723
0.405064
16.324
0.375491
16.2114
0.346982
16.129
0.319273
16.072
0.292145
16.0366
0.265425
16.0195
0.23897
16.018
0.212667
16.0299
0.186428
16.0534
0.160179
16.087
0.133864
16.1294
0.107437
16.1796
0.0808623
16.2367
0.0541113
16.3
0.0271628
16.3688
0
16.4426
-0.0273893
16.521
-0.0550135
16.6036
-0.0828778
16.6899
-0.110985
16.7798
-0.139336
16.873
-0.167929
16.9692
-0.196761
17.0682
-0.225827
17.1699
-0.25512
17.2742
-0.284635
17.3808
-0.314362
17.4897
-0.344293
17.6007
-0.374417
17.7138
-0.404724
17.8289
-0.435202
17.9458
-0.465839
18.0646
-0.496622
18.1852
-0.527538
18.3074
-0.558574
18.4314
-0.589715
18.5569
-0.620946
18.684
-0.652254
18.8126
-0.683621
18.9427
-0.715034
19.0742
-0.746476
19.2072
-0.77793
19.3416
-0.809381
19.4773
-0.840812
19.6143
-0.872205
19.7527
-0.903545
19.8923
-0.934814
20.0333
-0.965993
20.1754
-0.997069
20.3189
-1.02801
20.4631
-1.05884
20.61
-1.08944
20.7534
-1.12008
20.9125
-1.14981
-1.18166
21.0278
28.0619
1.68688
-28.5157
27.5951
1.62826
27.115
1.56911
26.6202
1.50946
26.1094
1.44932
25.5808
1.38875
25.033
1.32776
24.4642