/*--------------------------------*- C++ -*----------------------------------*\
| =========                 |                                                 |
| \\      /  F ield         | OpenFOAM: The Open Source CFD Toolbox           |
|  \\    /   O peration     | Version:  2312                                  |
|   \\  /    A nd           | Website:  www.openfoam.com                      |
|    \\/     M anipulation  |                                                 |
\*---------------------------------------------------------------------------*/
FoamFile
{
    version     2.0;
    format      ascii;
    arch        "LSB;label=32;scalar=64";
    class       surfaceScalarField;
    location    "0.157";
    object      phi;
}
// * * * * * * * * * * * * * * * * * * * * * * * * * * * * * * * * * * * * * //

dimensions      [0 3 -1 0 0 0 0];

oriented        oriented;

internalField   nonuniform List<scalar> 
62015
(
73.2306
0.385266
-73.9165
72.5438
0.375798
71.8562
0.366189
71.1675
0.356446
70.4778
0.346575
69.7867
0.336586
69.094
0.326485
68.3995
0.316282
67.7029
0.305983
67.0038
0.295597
66.3017
0.285134
65.5961
0.274601
64.8864
0.264007
64.1721
0.253363
63.4522
0.242675
62.7261
0.231956
61.9926
0.221213
61.2506
0.210458
60.4989
0.1997
59.736
0.188951
58.9601
0.17822
58.1693
0.167519
57.3613
0.15686
56.5332
0.146256
55.682
0.135718
54.8036
0.12526
53.8934
0.114896
52.9456
0.104641
51.9527
0.0945116
50.9052
0.084524
49.7903
0.0746971
48.5912
0.0650511
47.2849
0.0556123
45.831
0.0464093
44.1401
0.0374679
42.0487
0.0288023
39.3862
0.0204688
36.1792
0.0126735
32.7975
0.00577158
29.7827
0
27.4958
-0.00476321
25.9732
-0.00888719
25.0529
-0.0127244
24.5414
-0.0164882
24.2901
-0.0202787
24.203
-0.0241335
24.2221
-0.0280648
24.3129
-0.0320744
24.4543
-0.036162
24.6331
-0.0403251
24.8408
-0.044562
25.0716
-0.0488705
25.3217
-0.0532486
25.588
-0.057694
25.8686
-0.0622042
26.1618
-0.066777
26.4664
-0.07141
26.7815
-0.0761005
27.1063
-0.080846
27.4403
-0.0856434
27.783
-0.0904904
28.134
-0.0953838
28.4929
-0.100321
28.8597
-0.105298
29.2339
-0.110313
29.6156
-0.115362
30.0044
-0.120442
30.4004
-0.12555
30.8033
-0.130683
31.2131
-0.135836
31.6298
-0.141008
32.0533
-0.146194
32.4834
-0.151392
32.9206
-0.156595
33.3629
-0.16181
33.8164
-0.167003
34.2623
-0.172261
34.7584
-0.177302
-0.182995
35.1269
70.7652
0.756029
-71.4313
70.0984
0.737416
69.4311
0.718529
68.7632
0.699383
68.0945
0.679993
67.4248
0.660372
66.7539
0.640536
66.0815
0.620502
65.4073
0.600284
64.7309
0.579899
64.052
0.559364
63.37
0.538696
62.6844
0.517911
61.9946
0.497028
61.2997
0.476064
60.599
0.455039
59.8916
0.43397
59.1763
0.412879
58.452
0.391783
57.7172
0.370705
56.9703
0.349665
56.2094
0.328686
55.4323
0.307789
54.6364
0.286999
53.8186
0.26634
52.9752
0.245839
52.1018
0.225521
51.1929
0.205417
50.2414
0.185557
49.2384
0.165975
48.1718
0.146707
47.0258
0.127793
45.7788
0.109282
44.3934
0.0912311
42.7878
0.0736907
40.8108
0.0566929
38.2969
0.0403428
35.2528
0.0250262
32.0078
0.0114193
29.0746
0
26.8174
-0.00943263
25.2945
-0.0175811
24.362
-0.0251383
23.8351
-0.0325355
23.5681
-0.0399756
23.4656
-0.0475376
23.4695
-0.0552458
23.5449
-0.0631047
23.6708
-0.0711126
23.8338
-0.0792656
24.0255
-0.0875596
24.2401
-0.0959904
24.4735
-0.104554
24.7231
-0.113245
24.9865
-0.122061
25.2624
-0.130995
25.5494
-0.140044
25.8467
-0.149203
26.1535
-0.158465
26.4692
-0.167827
26.7933
-0.177282
27.1256
-0.186825
27.4656
-0.196451
27.8131
-0.206152
28.1679
-0.215924
28.5298
-0.225761
28.8987
-0.235655
29.2744
-0.245602
29.6569
-0.255594
30.046
-0.265625
30.4417
-0.275689
30.844
-0.285779
31.2526
-0.295889
31.668
-0.306009
32.0884
-0.316147
32.5194
-0.326244
32.9436
-0.33646
33.4144
-0.346265
-0.357293
33.7685
68.3661
1.11258
-69.013
67.7189
1.08514
67.0715
1.0573
66.4238
1.02909
65.7755
1.00052
65.1265
0.971615
64.4766
0.942402
63.8256
0.912901
63.173
0.883135
62.5187
0.853128
61.8621
0.822903
61.2028
0.792486
60.5403
0.761902
59.8738
0.731176
59.2029
0.700335
58.5266
0.669406
57.844
0.638417
57.1542
0.607395
56.4559
0.576371
55.7477
0.545373
55.0282
0.514434
54.2956
0.483585
53.5476
0.452859
52.7819
0.42229
51.9955
0.391915
51.1849
0.361772
50.3459
0.331899
49.4731
0.30234
48.56
0.273139
47.598
0.244345
46.5757
0.216012
45.478
0.188197
44.2846
0.160972
42.9601
0.13442
41.4288
0.108615
39.5493
0.0836075
37.1639
0.059551
34.2686
0.0369946
31.1611
0.0169083
28.3243
0
26.1173
-0.0139876
24.6115
-0.026058
23.6791
-0.0372273
23.1448
-0.0481396
22.8673
-0.0591029
22.7528
-0.0702369
22.7438
-0.0815802
22.8057
-0.0931397
22.9175
-0.104913
23.0662
-0.116894
23.243
-0.129077
23.4424
-0.141456
23.6604
-0.154024
23.8942
-0.166776
24.1416
-0.179704
24.4012
-0.192802
24.6716
-0.206063
24.9521
-0.219481
25.2419
-0.233047
25.5403
-0.246753
25.847
-0.260592
26.1615
-0.274557
26.4835
-0.288637
26.8128
-0.302826
27.1492
-0.317113
27.4925
-0.331492
27.8425
-0.345951
28.1991
-0.360484
28.5622
-0.375079
28.9318
-0.389728
29.3077
-0.404422
29.6898
-0.41915
30.0781
-0.433905
30.4729
-0.448671
30.8726
-0.46346
31.2823
-0.478188
31.6858
-0.493081
32.1328
-0.507389
-0.523422
32.4719
66.0398
1.45532
-66.6678
65.4117
1.41936
64.7837
1.3829
64.1556
1.34594
63.5272
1.30853
62.8984
1.27069
62.269
1.23245
61.6386
1.19384
61.007
1.15488
60.3739
1.11562
59.7389
1.07607
59.1015
1.03628
58.4611
0.99628
57.8173
0.956094
57.1692
0.915763
56.5163
0.875319
55.8575
0.8348
55.1919
0.794242
54.5184
0.753682
53.8357
0.713161
53.1423
0.672718
52.4364
0.632394
51.7161
0.592232
50.9789
0.552278
50.2221
0.512577
49.4424
0.473179
48.6356
0.434136
47.7966
0.395501
46.9193
0.357334
45.9954
0.319698
45.0141
0.282662
43.9609
0.246301
42.8164
0.210707
41.5469
0.175989
40.0808
0.142242
38.2855
0.109536
36.0115
0.078071
33.2505
0.0485531
30.2764
0.0222218
27.5443
0
25.4015
-0.0184163
23.9267
-0.0343049
23.0047
-0.0489845
22.4699
-0.0633034
22.1865
-0.0776725
22.0631
-0.0922543
22.0436
-0.107101
22.0939
-0.122222
22.1932
-0.137615
22.3288
-0.153273
22.492
-0.169188
22.6774
-0.185351
22.8811
-0.201755
23.1001
-0.218391
23.3325
-0.235252
23.5768
-0.252328
23.8317
-0.269611
24.0964
-0.28709
24.3701
-0.304758
24.6523
-0.322603
24.9424
-0.340616
25.2402
-0.358786
25.5453
-0.377103
25.8574
-0.395555
26.1764
-0.414131
26.502
-0.43282
26.8341
-0.45161
27.1727
-0.47049
27.5175
-0.489448
27.8685
-0.508471
28.2256
-0.527548
28.5887
-0.546665
28.9577
-0.565813
29.333
-0.58497
29.713
-0.604153
30.1025
-0.623256
30.4865
-0.642561
30.911
-0.661126
-0.681859
31.2353
63.788
1.78471
-64.3974
63.1788
1.74054
62.5698
1.69576
61.9609
1.65038
61.352
1.60446
60.7429
1.55801
60.1333
1.51108
59.5231
1.4637
58.9119
1.41591
58.2995
1.36775
57.6853
1.31924
57.069
1.27044
56.4502
1.22139
55.8281
1.17211
55.2022
1.12266
54.5717
1.07308
53.9359
1.02341
53.2937
0.973696
52.644
0.923983
51.9857
0.874318
51.3172
0.824752
50.637
0.775334
49.9431
0.726116
49.2332
0.677154
48.5047
0.628504
47.7542
0.580225
46.978
0.53238
46.1713
0.485035
45.3278
0.438263
44.4399
0.39214
43.4971
0.346749
42.4858
0.302183
41.387
0.258554
40.1686
0.215992
38.7623
0.174614
37.043
0.134506
34.8697
0.0959209
32.2327
0.0597092
29.3866
0.0273619
26.7602
0
24.6872
-0.0227193
23.2498
-0.0423242
22.3435
-0.0604155
21.8122
-0.0780373
21.5256
-0.0957014
21.3955
-0.113612
21.367
-0.131836
21.407
-0.150388
21.4951
-0.169264
21.6186
-0.188454
21.7693
-0.207951
21.9417
-0.227744
22.1319
-0.247822
22.3372
-0.268178
22.5555
-0.288799
22.7854
-0.309677
23.0257
-0.330799
23.2755
-0.352156
23.5341
-0.373735
23.8009
-0.395524
24.0755
-0.417511
24.3574
-0.439683
24.6465
-0.462028
24.9423
-0.484532
25.2448
-0.507182
25.5538
-0.529963
25.869
-0.552862
26.1904
-0.575865
26.5178
-0.598956
26.8512
-0.622123
27.1905
-0.645349
27.5356
-0.668619
27.8863
-0.691921
28.2431
-0.71523
28.6044
-0.738565
28.9747
-0.761798
29.3401
-0.785267
29.7434
-0.807851
-0.833003
30.0532
61.6105
2.10119
-62.2016
61.0198
2.04912
60.4294
1.99632
59.8394
1.94284
59.2495
1.88872
58.6596
1.83399
58.0695
1.77871
57.479
1.7229
56.8876
1.66661
56.2952
1.60989
55.7014
1.55278
55.1057
1.49532
54.5077
1.43757
53.9067
1.37957
53.3022
1.32136
52.6936
1.263
52.0798
1.20455
51.4602
1.14604
50.8335
1.08754
50.1987
1.0291
49.5543
0.970778
48.8988
0.912633
48.2302
0.854725
47.5465
0.797119
46.8451
0.739881
46.1228
0.68308
45.3759
0.626789
44.5998
0.571086
43.7888
0.516056
42.9352
0.461786
42.0291
0.408376
41.0575
0.355933
40.0021
0.304588
38.8319
0.254491
37.4819
0.20578
35.8335
0.158559
33.7541
0.113129
31.2335
0.0704803
28.5097
0.0323361
25.987
0
23.9848
-0.0269013
22.5871
-0.0501235
21.6988
-0.0715314
21.1729
-0.0923562
20.8847
-0.113208
20.749
-0.134334
20.7127
-0.155816
20.7434
-0.177671
20.8212
-0.199897
20.9336
-0.222484
21.0727
-0.24542
21.2329
-0.268694
21.4105
-0.292294
21.6029
-0.31621
21.808
-0.34043
22.0243
-0.364942
22.2509
-0.389732
22.4866
-0.414788
22.7309
-0.440097
22.9832
-0.465645
23.243
-0.491417
23.51
-0.517399
23.7839
-0.543576
24.0644
-0.569931
24.3513
-0.59645
24.6444
-0.623117
24.9435
-0.649914
25.2487
-0.676826
25.5596
-0.703836
25.8764
-0.730927
26.1987
-0.758081
26.5267
-0.785281
26.8601
-0.812512
27.1993
-0.839745
27.5429
-0.867001
27.895
-0.894137
28.2427
-0.921532
28.626
-0.947914
-0.977216
28.9218
59.5058
2.40521
-60.0789
58.9332
2.34552
58.3611
2.28501
57.7896
2.22374
57.2184
2.16173
56.6473
2.09904
56.0762
2.03572
55.5048
1.97181
54.9328
1.90736
54.36
1.84241
53.7859
1.77703
53.2102
1.71126
52.6324
1.64516
52.0519
1.57877
51.4682
1.51216
50.8806
1.44538
50.2883
1.37849
49.6905
1.31155
49.0861
1.24461
48.4739
1.17775
47.8528
1.11103
47.221
1.04451
46.5769
0.978265
45.9184
0.912366
45.2431
0.846888
44.5478
0.78191
43.8291
0.717515
43.0825
0.653793
42.3025
0.590837
41.4818
0.52875
40.611
0.467642
39.6773
0.407637
38.6634
0.348883
37.5393
0.291549
36.2428
0.235792
34.6617
0.181734
32.6711
0.129724
30.2609
0.0808841
27.654
0.0371519
25.2317
0
23.2992
-0.0309674
21.9414
-0.0577116
21.0721
-0.0823443
20.5525
-0.106275
20.2636
-0.130212
20.1233
-0.154443
20.08
-0.179067
20.1021
-0.204106
20.1704
-0.229556
20.2725
-0.255407
20.4006
-0.281646
20.5495
-0.30826
20.7153
-0.335236
20.8955
-0.362563
21.0881
-0.390226
21.2918
-0.418211
21.5053
-0.446506
21.7277
-0.475094
21.9586
-0.503961
22.1971
-0.533092
22.443
-0.56247
22.6959
-0.592077
22.9554
-0.621899
23.2213
-0.651916
23.4934
-0.682111
23.7715
-0.712467
24.0554
-0.742963
24.3452
-0.773583
24.6405
-0.804306
24.9414
-0.835114
25.2477
-0.865988
25.5595
-0.896905
25.8764
-0.927852
26.1989
-0.958794
26.5257
-0.989755
26.8606
-1.02057
27.1913
-1.05167
27.5556
-1.08164
-1.11484
27.8381
57.4718
2.69718
-58.0273
56.917
2.63016
56.363
2.56224
55.8095
2.49347
55.2566
2.42388
54.7039
2.35354
54.1513
2.2825
53.5986
2.2108
53.0455
2.13851
52.4917
2.06567
51.9369
1.99235
51.3806
1.9186
50.8224
1.84447
50.2619
1.77004
49.6983
1.69536
49.1312
1.6205
48.5596
1.54552
47.9829
1.47048
47.4
1.39545
46.8098
1.32051
46.211
1.24573
45.6023
1.17118
44.9818
1.09693
44.3476
1.02308
43.6973
0.949695
43.0281
0.876873
42.3365
0.804704
41.6183
0.733286
40.8681
0.662726
40.079
0.593136
39.2419
0.52464
38.3447
0.457376
37.3706
0.391507
36.2906
0.327224
35.0453
0.264695
33.5286
0.204066
31.6226
0.14573
29.3177
0.0909365
26.8226
0.0418158
24.4969
0
22.6323
-0.0349219
21.3139
-0.0650969
20.4637
-0.0928655
19.9509
-0.119809
19.6619
-0.146731
19.5176
-0.173962
19.468
-0.201618
19.4823
-0.229723
19.5417
-0.258277
19.6342
-0.287267
19.7521
-0.316678
19.8902
-0.346498
20.045
-0.376712
20.2137
-0.407305
20.3946
-0.438263
20.5862
-0.469572
20.7875
-0.501214
20.9974
-0.533175
21.2155
-0.565438
21.4411
-0.597984
21.6738
-0.630796
21.9132
-0.663857
22.1591
-0.697146
22.4112
-0.730644
22.6693
-0.764333
22.9332
-0.798191
23.2028
-0.832199
23.4779
-0.866335
23.7584
-0.900578
24.0443
-0.934907
24.3354
-0.969302
24.6317
-1.00374
24.9331
-1.0382
25.2397
-1.07265
25.5505
-1.10711
25.869
-1.1414
26.1837
-1.176
26.53
-1.20935
-1.24621
26.7997
55.5066
2.97752
-56.0447
54.9693
2.90346
54.4328
2.82841
53.8971
2.75243
53.3619
2.67557
52.8272
2.59788
52.2927
2.51941
51.7583
2.44024
51.2235
2.36042
50.6883
2.28
50.1522
2.19905
49.6148
2.11764
49.0757
2.03582
48.5344
1.95367
47.9904
1.87125
47.4431
1.78863
46.8917
1.70588
46.3353
1.62308
45.7732
1.54029
45.2042
1.4576
44.6271
1.37509
44.0406
1.29283
43.4429
1.21092
42.8321
1.12943
42.206
1.04846
41.5619
0.968117
40.8964
0.88849
40.2054
0.809691
39.4839
0.731834
38.7252
0.655045
37.9206
0.579459
37.0584
0.505226
36.1224
0.432527
35.0849
0.361568
33.8887
0.292534
32.4336
0.225587
30.6086
0.161173
28.4042
0.100651
26.016
0.0463341
23.7833
0
21.9844
-0.0387692
20.7047
-0.0722861
19.8735
-0.103105
19.3678
-0.132972
19.0792
-0.162784
18.9315
-0.192914
18.876
-0.223494
18.8831
-0.254556
18.9342
-0.286097
19.0178
-0.318106
19.1261
-0.350566
19.2542
-0.383463
19.3985
-0.416781
19.5565
-0.450505
19.7263
-0.484618
19.9066
-0.519105
20.0962
-0.553948
20.2944
-0.58913
20.5004
-0.624632
20.7137
-0.660436
20.9339
-0.696522
21.1607
-0.73287
21.3937
-0.769459
21.6327
-0.806268
21.8775
-0.843276
22.1279
-0.880461
22.3839
-0.917801
22.6451
-0.955272
22.9116
-0.992853
23.1832
-1.03052
23.4599
-1.06825
23.7416
-1.10601
24.0281
-1.14379
24.3198
-1.18156
24.6154
-1.21932
24.9183
-1.2569
25.2179
-1.29479
25.547
-1.33135
-1.37164
25.8045
53.608
3.24663
-54.1291
53.0878
3.1658
52.5685
3.08391
52.0501
3.00101
51.5324
2.91715
51.0152
2.8324
50.4983
2.74682
49.9816
2.66047
49.4648
2.57342
48.9476
2.48572
48.4296
2.39746
47.9106
2.3087
47.39
2.2195
46.8675
2.12994
46.3424
2.0401
45.8143
1.95004
45.2823
1.85984
44.7458
1.76959
44.2037
1.67936
43.6552
1.58924
43.0991
1.49931
42.5339
1.40967
41.9582
1.32039
41.37
1.23159
40.7673
1.14335
40.1473
1.05579
39.5069
0.969005
38.8422
0.883124
38.1483
0.798268
37.4188
0.714571
36.6454
0.63218
35.8168
0.551259
34.9175
0.472002
33.9206
0.394631
32.7717
0.319347
31.3757
0.24633
29.6281
0.176071
27.5198
0.11004
25.234
0.0507113
23.0905
0
21.3552
-0.0425123
20.1133
-0.0792859
19.301
-0.113073
18.8027
-0.145777
18.5149
-0.178386
18.3641
-0.211318
18.3034
-0.244721
18.3038
-0.278633
18.3473
-0.313052
18.4224
-0.347965
18.5218
-0.383355
18.6405
-0.419207
18.775
-0.455503
18.9228
-0.492227
19.0822
-0.529362
19.2518
-0.56689
19.4304
-0.604793
19.6174
-0.643052
19.812
-0.681647
20.0137
-0.720558
20.2222
-0.759764
20.4369
-0.799243
20.6577
-0.838973
20.8844
-0.878931
21.1166
-0.919095
21.3543
-0.95944
21.5972
-0.999943
21.8453
-1.04058
22.0985
-1.08132
22.3566
-1.12215
22.6196
-1.16303
22.8874
-1.20395
23.1599
-1.24488
23.4372
-1.28577
23.7184
-1.32666
24.0066
-1.36734
24.2917
-1.40833
24.6047
-1.44791
-1.49142
24.8506
51.774
3.50491
-52.2784
51.2705
3.41758
50.768
3.32912
50.2665
3.23957
49.7657
3.149
49.2656
3.05747
48.766
2.96506
48.2665
2.87182
47.7671
2.77783
47.2674
2.68316
46.7671
2.58788
46.2659
2.49207
45.7633
2.39579
45.2589
2.29913
44.7522
2.20216
44.2426
2.10497
43.7295
2.00763
43.2121
1.91024
42.6895
1.81288
42.1608
1.71563
41.6249
1.61859
41.0804
1.52186
40.5258
1.42553
39.9595
1.32971
39.3792
1.2345
38.7824
1.14001
38.1663
1.04637
37.5269
0.953699
36.8595
0.862128
36.1581
0.771804
35.4146
0.682884
34.6183
0.595543
33.7542
0.50999
32.7963
0.426461
31.6928
0.345172
30.3535
0.266321
28.68
0.190446
26.6636
0.119114
24.4758
0.054952
22.4181
0
20.7443
-0.0461544
19.5392
-0.0861015
18.7457
-0.122777
18.2549
-0.158235
17.9682
-0.193554
17.8149
-0.229195
17.7495
-0.265324
17.7437
-0.301983
17.78
-0.339174
17.8473
-0.376882
17.9383
-0.415089
18.0481
-0.453779
18.1734
-0.492933
18.3117
-0.532533
18.4613
-0.572563
18.6207
-0.613002
18.7891
-0.653831
18.9655
-0.69503
19.1493
-0.736578
19.3401
-0.778454
19.5373
-0.820635
19.7407
-0.863097
19.95
-0.905818
20.1649
-0.948772
20.3852
-0.991936
20.6107
-1.03528
20.8414
-1.07879
21.0771
-1.12243
21.3176
-1.16617
21.563
-1.20999
21.813
-1.25387
22.0676
-1.29776
22.3267
-1.34166
22.5905
-1.38551
22.858
-1.42935
23.1322
-1.47296
23.4036
-1.51689
23.7012
-1.55932
-1.60584
23.9361
50.0024
3.75273
-50.4906
49.5153
3.65917
49.0292
3.5644
48.5442
3.46847
48.06
3.37146
47.5765
3.27343
47.0936
3.17446
46.6109
3.07462
46.1284
2.97398
45.6457
2.87262
45.1626
2.77061
44.6786
2.66803
44.1935
2.56497
43.7067
2.4615
43.2178
2.3577
42.7262
2.25367
42.2313
2.14949
41.7324
2.04525
41.2286
1.94105
40.719
1.83697
40.2026
1.73312
39.678
1.62959
39.1439
1.5265
38.5985
1.42395
38.0399
1.32205
37.4656
1.22093
36.8727
1.12071
36.2576
1.02152
35.6158
0.923513
34.9413
0.826831
34.2266
0.731646
33.4613
0.638144
32.631
0.546547
31.7107
0.457105
30.6507
0.370045
29.3658
0.285588
27.7633
0.204314
25.8346
0.127884
23.7405
0.0590608
21.7653
0
20.151
-0.0496985
18.982
-0.0927386
18.207
-0.132226
17.7239
-0.170359
17.4387
-0.208302
17.2832
-0.246563
17.2135
-0.285323
17.2021
-0.324634
17.2318
-0.364495
17.2917
-0.404893
17.3748
-0.44581
17.4763
-0.487226
17.593
-0.529124
17.7223
-0.571483
17.8626
-0.614286
18.0125
-0.657512
18.1711
-0.701141
18.3375
-0.745151
18.5112
-0.789519
18.6915
-0.834225
18.8782
-0.879242
19.0709
-0.924547
19.2692
-0.970115
19.473
-1.01592
19.682
-1.06194
19.8961
-1.10814
20.1152
-1.1545
20.339
-1.20098
20.5676
-1.24757
20.8007
-1.29423
21.0384
-1.34094
21.2805
-1.38766
21.527
-1.43436
21.7779
-1.48102
22.0325
-1.52764
22.2933
-1.57402
22.5517
-1.6207
22.8347
-1.66583
-1.71518
23.0591
48.2915
3.99048
-48.7638
47.8202
3.89094
47.3502
3.79011
46.8812
3.68806
46.4131
3.58488
45.9458
3.48062
45.4791
3.37536
45.0129
3.26919
44.5468
3.16217
44.0806
3.0544
43.6141
2.94594
43.1469
2.83688
42.6786
2.72731
42.2089
2.61731
41.7372
2.50697
41.263
2.39638
40.7857
2.28564
40.3047
2.17484
39.819
2.06408
39.3279
1.95345
38.8303
1.84307
38.325
1.73303
37.8106
1.62346
37.2855
1.51446
36.7477
1.40615
36.1949
1.29867
35.6245
1.19214
35.0327
1.08671
34.4155
0.982517
33.767
0.879736
33.0799
0.778539
32.3444
0.679124
31.5465
0.581725
30.6622
0.486604
29.644
0.394002
28.4112
0.304158
26.8766
0.217695
25.0318
0.136361
23.0275
0.0630413
21.1315
0
19.5748
-0.0531468
18.4409
-0.0992022
17.6843
-0.141428
17.2091
-0.182158
16.9256
-0.222645
16.7684
-0.26344
16.6948
-0.304743
16.6782
-0.346611
16.7017
-0.389046
16.7548
-0.432035
16.8306
-0.475557
16.9243
-0.519595
17.0328
-0.564126
17.1536
-0.609133
17.2852
-0.654594
17.4262
-0.700489
17.5755
-0.746797
17.7325
-0.793494
17.8966
-0.840558
18.0671
-0.887964
18.2438
-0.935687
18.4263
-0.983702
18.6142
-1.03198
18.8075
-1.0805
19.0058
-1.12923
19.2091
-1.17814
19.4171
-1.22721
19.6298
-1.2764
19.847
-1.32569
20.0686
-1.37504
20.2946
-1.42443
20.5248
-1.47382
20.7593
-1.52318
20.998
-1.57248
21.2402
-1.62173
21.4884
-1.67072
21.7345
-1.72001
22.0036
-1.76768
-1.81968
22.218
46.6391
4.21852
-47.0959
46.1834
4.11323
45.729
4.0066
45.2756
3.89869
44.8232
3.78959
44.3717
3.67935
43.9208
3.56807
43.4703
3.45583
43.0202
3.3427
42.5701
3.22877
42.1197
3.11413
41.6687
2.99886
41.2168
2.88306
40.7636
2.7668
40.3085
2.65019
39.8512
2.53333
39.391
2.4163
38.9272
2.29921
38.4591
2.18216
37.9858
2.06526
37.5063
1.94862
37.0196
1.83234
36.5242
1.71656
36.0185
1.60137
35.5008
1.48693
34.9689
1.37334
34.4199
1.26077
33.8507
1.14934
33.257
1.03923
32.6335
0.930598
31.973
0.823634
31.2661
0.718545
30.4993
0.615577
29.6496
0.515003
28.6715
0.417077
27.4887
0.322055
26.0191
0.230605
24.2545
0.144554
22.3359
0.0668977
20.5161
0
19.0151
-0.0565024
17.9155
-0.105497
17.1771
-0.150389
16.7099
-0.193643
16.4285
-0.236596
16.2699
-0.279843
16.1928
-0.323602
16.1714
-0.367938
16.1892
-0.412856
16.236
-0.45834
16.3049
-0.50437
16.3913
-0.550927
16.4921
-0.597989
16.605
-0.645535
16.7283
-0.693546
16.8608
-0.741998
17.0015
-0.79087
17.1496
-0.840137
17.3045
-0.889776
17.4658
-0.939761
17.633
-0.990067
17.8058
-1.04067
17.984
-1.09153
18.1673
-1.14263
18.3555
-1.19394
18.5485
-1.24543
18.746
-1.29707
18.9481
-1.34883
19.1545
-1.40068
19.3652
-1.45258
19.5801
-1.50451
19.7991
-1.55642
20.0221
-1.60831
20.2493
-1.6601
20.4798
-1.71184
20.716
-1.76329
20.9503
-1.81504
21.2063
-1.86511
-1.9196
21.4112
45.0435
4.4372
-45.4852
44.603
4.32641
44.1637
4.21422
43.7255
4.10069
43.2884
3.98591
42.8521
3.86995
42.4166
3.7529
41.9815
3.63483
41.5469
3.51585
41.1123
3.39603
40.6775
3.27547
40.2423
3.15425
39.8062
3.03247
39.369
2.91022
38.93
2.78761
38.489
2.66472
38.0452
2.54167
37.5981
2.41856
37.1469
2.29549
36.6908
2.17258
36.2289
2.04994
35.76
1.92769
35.2829
1.80595
34.7961
1.68484
34.2977
1.5645
33.7858
1.44507
33.2576
1.3267
32.71
1.20953
32.139
1.09374
31.5394
0.979495
30.9044
0.866999
30.225
0.756466
29.4881
0.648152
28.6715
0.542342
27.732
0.439301
26.5971
0.339304
25.1897
0.243061
23.5016
0.152472
21.6652
0.0706338
19.9185
0
18.4714
-0.0597676
17.4054
-0.111628
16.6849
-0.159118
16.2258
-0.204824
15.9467
-0.250169
15.787
-0.295788
15.7069
-0.341922
15.6811
-0.388641
15.6937
-0.435951
15.7345
-0.483839
15.7969
-0.532284
15.8765
-0.581263
15.9701
-0.630756
16.0755
-0.680741
16.1911
-0.731197
16.3156
-0.7821
16.448
-0.833427
16.5878
-0.885153
16.7341
-0.937254
16.8866
-0.989703
17.0449
-1.04247
17.2086
-1.09554
17.3775
-1.14886
17.5513
-1.20242
17.7299
-1.25619
17.9131
-1.31013
18.1008
-1.36422
18.2927
-1.41841
18.4889
-1.47269
18.6893
-1.52701
18.8936
-1.58134
19.102
-1.63565
19.3142
-1.68992
19.5304
-1.74408
19.7498
-1.79816
19.9746
-1.85194
20.1978
-1.906
20.4412
-1.95835
-2.01515
20.637
43.5028
4.64686
-43.9299
43.077
4.5308
42.6525
4.41328
42.2291
4.29437
41.8067
4.17415
41.3853
4.05271
40.9647
3.93013
40.5446
3.8065
40.1249
3.68191
39.7054
3.55645
39.2858
3.43021
38.8658
3.30329
38.4451
3.17579
38.0232
3.0478
37.5999
2.91943
37.1746
2.79079
36.7467
2.66197
36.3157
2.53308
35.8809
2.40425
35.4414
2.27558
34.9964
2.1472
34.5447
2.01922
34.0853
1.89177
33.6165
1.76499
33.1368
1.63901
32.6441
1.51397
32.1359
1.39004
31.6091
1.26737
31.0599
1.14613
30.4833
1.0265
29.8728
0.9087
29.2198
0.792943
28.5116
0.679498
27.7269
0.568661
26.8243
0.460706
25.7354
0.35593
24.3874
0.25508
22.7726
0.160126
21.0148
0.0742535
19.3383
-1.37142e-07
17.9433
-0.0629449
16.9099
-0.1176
16.2072
-0.16762
15.7563
-0.215712
15.4797
-0.263375
15.3194
-0.311291
15.2365
-0.35972
15.2067
-0.40874
15.2144
-0.45836
15.2497
-0.508564
15.3061
-0.559333
15.3792
-0.610643
15.4661
-0.662473
15.5644
-0.7148
15.6727
-0.767601
15.7897
-0.820853
15.9144
-0.874531
16.0462
-0.928611
16.1844
-0.983066
16.3286
-1.03787
16.4784
-1.09299
16.6335
-1.14841
16.7936
-1.20408
16.9585
-1.25999
17.128
-1.31609
17.302
-1.37236
17.4802
-1.42877
17.6627
-1.48528
17.8492
-1.54186
18.0396
-1.59847
18.234
-1.65509
18.4322
-1.71166
18.6341
-1.76818
18.8399
-1.82457
19.0488
-1.88088
19.2628
-1.93686
19.4754
-1.99309
19.707
-2.04759
-2.10657
19.8941
42.0153
4.84783
-42.428
41.6038
4.72673
41.1936
4.60411
40.7845
4.48004
40.3766
4.35462
39.9696
4.22793
39.5634
4.10005
39.1578
3.97109
38.7526
3.84113
38.3477
3.71027
37.9428
3.5786
37.5375
3.44623
37.1316
3.31325
36.7247
3.17977
36.3164
3.04589
35.9063
2.91172
35.4938
2.77738
35.0784
2.64297
34.6593
2.50861
34.2358
2.37443
33.8071
2.24054
33.3721
2.10707
32.9296
1.97416
32.4783
1.84194
32.0166
1.71055
31.5423
1.58015
31.0533
1.45089
30.5465
1.32294
30.0183
1.19648
29.4639
1.07169
28.8769
0.948799
28.2492
0.82803
27.5686
0.709661
26.8144
0.593996
25.9473
0.481322
24.9025
0.371954
23.6114
0.266677
22.0665
0.167523
20.3839
0.0777603
18.7749
0
17.4302
-0.0660372
16.4287
-0.123418
15.7436
-0.175904
15.301
-0.226314
15.0271
-0.276227
14.8663
-0.326367
14.7811
-0.377016
14.7476
-0.428258
14.7508
-0.480106
14.7809
-0.532544
14.8317
-0.585551
14.8988
-0.639104
14.9793
-0.69318
15.0711
-0.747756
15.1725
-0.802809
15.2823
-0.858313
15.3998
-0.914245
15.524
-0.970578
15.6546
-1.02728
15.791
-1.08434
15.9327
-1.14171
16.0797
-1.19936
16.2315
-1.25728
16.3879
-1.31541
16.5488
-1.37374
16.714
-1.43223
16.8833
-1.49085
17.0567
-1.54956
17.234
-1.60832
17.4152
-1.66711
17.6001
-1.72589
17.7887
-1.78461
17.9808
-1.84326
18.1767
-1.90177
18.3755
-1.96016
18.5793
-2.01822
18.7818
-2.07651
19.0021
-2.13303
-2.19405
19.1811
40.5791
5.04045
-40.9779
40.1815
4.91452
39.7852
4.78701
39.3901
4.65802
38.9961
4.52761
38.6031
4.3959
38.2109
4.26296
37.8194
4.12889
37.4283
3.99379
37.0375
3.85776
36.6468
3.72089
36.2558
3.58329
35.8642
3.44507
35.4718
3.30633
35.078
3.16718
34.6826
3.02773
34.2849
2.88809
33.8845
2.7484
33.4806
2.60875
33.0726
2.46929
32.6596
2.33013
32.2406
2.1914
31.8145
2.05326
31.38
1.91583
30.9355
1.77926
30.4791
1.64371
30.0085
1.50935
29.521
1.37634
29.0129
1.24487
28.4797
1.11514
27.9154
0.987359
27.312
0.861781
26.6578
0.738686
25.933
0.618386
25.1
0.501179
24.0974
0.387398
22.8607
0.277866
21.3827
0.174674
19.772
0.081158
18.2278
0
16.9318
-0.069046
15.9614
-0.129085
15.2935
-0.183975
14.8592
-0.23664
14.5884
-0.288736
14.4273
-0.341031
14.34
-0.393826
14.3032
-0.447216
14.3022
-0.501214
14.3276
-0.555806
14.3731
-0.610969
14.4347
-0.666681
14.5092
-0.722918
14.5947
-0.779655
14.6896
-0.836869
14.7928
-0.894535
14.9033
-0.952626
15.0205
-1.01112
15.1438
-1.06998
15.2728
-1.12918
15.407
-1.1887
15.5462
-1.2485
15.6901
-1.30854
15.8385
-1.36881
15.9912
-1.42926
16.1481
-1.48986
16.309
-1.55057
16.4738
-1.61137
16.6424
-1.67221
16.8147
-1.73306
16.9906
-1.79389
17.1701
-1.85465
17.353
-1.91531
17.5394
-1.97581
17.7288
-2.03619
17.9228
-2.0962
18.1158
-2.15644
18.3255
-2.21487
-2.2778
18.4966
39.1926
5.22502
-39.5779
38.8085
5.09447
38.4257
4.9623
38.0441
4.82858
37.6637
4.69341
37.2842
4.55688
36.9056
4.4191
36.5277
4.28015
36.1502
4.14013
35.7731
3.99915
35.3961
3.85731
35.0189
3.71471
34.6412
3.57147
34.2627
3.4277
33.8831
3.2835
33.5018
3.13899
33.1185
2.9943
32.7325
2.84953
32.3434
2.70483
31.9502
2.5603
31.5524
2.4161
31.1488
2.27235
30.7385
2.12918
30.3202
1.98676
29.8923
1.84523
29.453
1.70476
29.0002
1.5655
28.5311
1.42764
28.0424
1.29137
27.5297
1.1569
26.9871
1.02444
26.407
0.894246
25.7782
0.766615
25.0816
0.641866
24.2812
0.520305
23.3192
0.402285
22.1345
0.288664
20.7204
0.181586
19.1785
0.0844498
17.6966
0
16.4476
-0.0719743
15.5074
-0.134606
14.8566
-0.19184
14.4307
-0.246698
14.163
-0.300913
14.002
-0.355296
13.9129
-0.410168
13.8731
-0.465633
13.8683
-0.521707
13.8892
-0.578376
13.9298
-0.635618
13.9861
-0.693409
14.055
-0.751724
14.1347
-0.810538
14.2235
-0.869828
14.3204
-0.929567
14.4244
-0.989728
14.5349
-1.05029
14.6514
-1.11121
14.7733
-1.17247
14.9004
-1.23404
15.0322
-1.29588
15.1687
-1.35796
15.3095
-1.42026
15.4545
-1.48273
15.6035
-1.54533
15.7564
-1.60805
15.9131
-1.67083
16.0734
-1.73364
16.2373
-1.79645
16.4047
-1.85922
16.5755
-1.9219
16.7496
-1.98447
16.9271
-2.04687
17.1074
-2.10911
17.2922
-2.17098
17.4761
-2.23304
17.6756
-2.29328
-2.35799
17.8393
37.8541
5.40185
-38.2262
37.4831
5.26688
37.1134
5.13024
36.745
4.99201
36.3776
4.85229
36.0113
4.71116
35.6458
4.56874
35.2811
4.42512
34.9169
4.2804
34.553
4.13468
34.1893
3.98808
33.8254
3.84071
33.4611
3.69267
33.0961
3.54408
32.73
3.39505
32.3625
3.2457
31.993
3.09616
31.621
2.94655
31.246
2.797
30.8672
2.64764
30.4839
2.4986
30.0953
2.35003
29.7002
2.20207
29.2974
2.05487
28.8855
1.90858
28.4627
1.76338
28.027
1.61944
27.5757
1.47693
27.1056
1.33606
26.6125
1.19704
26.0908
1.06009
25.5331
0.925473
24.9286
0.79349
24.2591
0.664469
23.4901
0.538726
22.5669
0.416634
21.4321
0.299083
20.079
0.188267
18.6029
0.0876392
17.1807
0
15.9771
-0.0748241
15.0665
-0.139985
14.4325
-0.199504
14.0149
-0.256498
13.7505
-0.31277
13.5898
-0.369175
13.4992
-0.426057
13.4567
-0.483528
13.4483
-0.541607
13.4651
-0.60028
13.5012
-0.659526
13.5525
-0.719318
13.6162
-0.779633
13.6904
-0.840445
13.7735
-0.901729
13.8644
-0.963458
13.9623
-1.02561
14.0665
-1.08814
14.1765
-1.15104
14.2918
-1.21427
14.412
-1.2778
14.537
-1.34159
14.6664
-1.40562
14.8
-1.46985
14.9377
-1.53424
15.0792
-1.59876
15.2245
-1.66337
15.3735
-1.72804
15.5259
-1.79273
15.6819
-1.85739
15.8411
-1.922
16.0037
-1.98651
16.1695
-2.05088
16.3385
-2.11507
16.5103
-2.17908
16.6863
-2.2427
16.8615
-2.30648
17.0515
-2.36842
-2.4348
17.208
36.562
5.57123
-36.9214
36.2037
5.43204
35.8468
5.29113
35.491
5.14859
35.1364
5.00451
34.7828
4.85899
34.4301
4.71213
34.0781
4.56404
33.7266
4.41483
33.3756
4.26459
33.0247
4.11344
32.6737
3.96149
32.3224
3.80886
31.9704
3.65566
31.6174
3.50201
31.2631
3.34803
30.9069
3.19386
30.5484
3.03961
30.1871
2.88542
29.8222
2.73142
29.453
2.57776
29.0786
2.42458
28.6981
2.27202
28.3103
2.12024
27.9138
1.96941
27.5069
1.81969
27.0876
1.67125
26.6534
1.52429
26.2012
1.37901
25.727
1.23563
25.2253
1.09437
24.6891
0.955509
24.1081
0.819349
23.4645
0.686228
22.7256
0.55647
21.8397
0.430464
20.7525
0.309138
19.4578
0.194726
18.0446
0.0907296
16.6798
-1.37493e-07
15.5201
-0.0775976
14.6382
-0.145225
14.0207
-0.206973
13.6115
-0.266045
13.3505
-0.324315
13.1904
-0.382682
13.0984
-0.441509
13.0535
-0.50092
13.0419
-0.560935
13.0549
-0.621542
13.0867
-0.68272
13.1334
-0.744441
13.1922
-0.806682
13.2611
-0.869415
13.3388
-0.932615
13.4242
-0.996255
13.5163
-1.06031
13.6145
-1.12474
13.7184
-1.18953
13.8274
-1.25464
13.9413
-1.32005
14.0597
-1.38571
14.1824
-1.45159
14.3092
-1.51766
14.4399
-1.58389
14.5744
-1.65023
14.7125
-1.71665
14.8541
-1.78311
14.9991
-1.84958
15.1475
-1.91601
15.2991
-1.98236
15.4539
-2.0486
15.6117
-2.11468
15.7727
-2.18056
15.9364
-2.24624
16.104
-2.31151
16.2711
-2.37691
16.4519
-2.44047
-2.50841
16.6016
35.3147
5.73345
-35.6618
34.9688
5.59023
34.6242
5.44524
34.2808
5.29857
33.9385
5.15033
33.5972
5.00061
33.2568
4.84952
32.9171
4.69716
32.578
4.54364
32.2393
4.38908
31.9008
4.23358
31.5623
4.07726
31.2235
3.92023
30.8841
3.76263
30.5438
3.60456
30.2023
3.44615
29.859
3.28754
29.5135
3.12886
29.1653
2.97023
28.8137
2.8118
28.4581
2.65372
28.0975
2.49612
27.7311
2.33916
27.3577
2.183
26.976
2.02781
26.5844
1.87375
26.1809
1.72102
25.7632
1.56979
25.3282
1.42028
24.872
1.27272
24.3896
1.12733
23.8741
0.9844
23.3155
0.844233
22.6968
0.707175
21.9869
0.57356
21.1366
0.443796
20.0951
0.31884
18.8561
0.200969
17.5032
0.0937236
16.1934
0
15.076
-0.0802968
14.2221
-0.150332
13.6208
-0.214254
13.22
-0.275349
12.9626
-0.335559
12.8031
-0.395827
12.7102
-0.456539
12.663
-0.517825
12.6485
-0.579711
12.658
-0.642186
12.6858
-0.705226
12.7281
-0.768807
12.7823
-0.832901
12.8465
-0.897482
12.9191
-0.962525
12.9991
-1.028
13.0858
-1.09388