/*--------------------------------*- C++ -*----------------------------------*\
| =========                 |                                                 |
| \\      /  F ield         | OpenFOAM: The Open Source CFD Toolbox           |
|  \\    /   O peration     | Version:  2312                                  |
|   \\  /    A nd           | Website:  www.openfoam.com                      |
|    \\/     M anipulation  |                                                 |
\*---------------------------------------------------------------------------*/
FoamFile
{
    version     2.0;
    format      ascii;
    arch        "LSB;label=32;scalar=64";
    class       volScalarField;
    location    "0.1";
    object      gradTx;
}
// * * * * * * * * * * * * * * * * * * * * * * * * * * * * * * * * * * * * * //

dimensions      [0 -1 0 1 0 0 0];

internalField   nonuniform List<scalar> 
100
(
-5.88375
-5.58571
-5.29512
-5.01241
-4.73795
-4.47205
-4.21498
-3.96694
-3.72808
-3.49851
-3.2783
-3.06746
-2.86597
-2.67378
-2.49081
-2.31692
-2.15197
-1.99578
-1.84816
-1.70889
-1.57773
-1.45443
-1.33873
-1.23035
-1.12902
-1.03443
-0.946311
-0.864352
-0.788262
-0.717747
-0.652514
-0.592276
-0.536748
-0.485654
-0.438724
-0.395695
-0.356313
-0.320334
-0.287522
-0.257652
-0.23051
-0.20589
-0.183599
-0.163451
-0.145275
-0.128906
-0.114192
-0.100989
-0.0891634
-0.0785909
-0.0691557
-0.0607508
-0.0532773
-0.0466441
-0.0407675
-0.0355707
-0.0309835
-0.0269417
-0.023387
-0.0202665
-0.0175321
-0.0151405
-0.0130525
-0.011233
-0.00965042
-0.00827636
-0.00708558
-0.00605554
-0.00516619
-0.00439974
-0.00374043
-0.00317433
-0.00268916
-0.00227413
-0.00191976
-0.00161773
-0.00136081
-0.00114265
-0.000957747
-0.000801328
-0.000669243
-0.000557912
-0.000464241
-0.000385569
-0.000319609
-0.000264396
-0.00021825
-0.000179735
-0.000147623
-0.000120869
-9.85807e-05
-7.99982e-05
-6.44728e-05
-5.14498e-05
-4.04527e-05
-3.10692e-05
-2.29391e-05
-1.57434e-05
-9.19358e-06
-3.02287e-06
)
;

boundaryField
{
    movingWall
    {
        type            calculated;
        value           uniform -6.03458;
    }
    fixedWalls
    {
        type            calculated;
        value           nonuniform List<scalar> 
201
(
-5.88375
-5.58571
-5.29512
-5.01241
-4.73795
-4.47205
-4.21498
-3.96694
-3.72808
-3.49851
-3.2783
-3.06746
-2.86597
-2.67378
-2.49081
-2.31692
-2.15197
-1.99578
-1.84816
-1.70889
-1.57773
-1.45443
-1.33873
-1.23035
-1.12902
-1.03443
-0.946311
-0.864352
-0.788262
-0.717747
-0.652514
-0.592276
-0.536748
-0.485654
-0.438724
-0.395695
-0.356313
-0.320334
-0.287522
-0.257652
-0.23051
-0.20589
-0.183599
-0.163451
-0.145275
-0.128906
-0.114192
-0.100989
-0.0891634
-0.0785909
-0.0691557
-0.0607508
-0.0532773
-0.0466441
-0.0407675
-0.0355707
-0.0309835
-0.0269417
-0.023387
-0.0202665
-0.0175321
-0.0151405
-0.0130525
-0.011233
-0.00965042
-0.00827636
-0.00708558
-0.00605554
-0.00516619
-0.00439974
-0.00374043
-0.00317433
-0.00268916
-0.00227413
-0.00191976
-0.00161773
-0.00136081
-0.00114265
-0.000957747
-0.000801328
-0.000669243
-0.000557912
-0.000464241
-0.000385569
-0.000319609
-0.000264396
-0.00021825
-0.000179735
-0.000147623
-0.000120869
-9.85807e-05
-7.99982e-05
-6.44728e-05
-5.14498e-05
-4.04527e-05
-3.10692e-05
-2.29391e-05
-1.57434e-05
-9.19358e-06
-3.02287e-06
0
-5.88375
-5.58571
-5.29512
-5.01241
-4.73795
-4.47205
-4.21498
-3.96694
-3.72808
-3.49851
-3.2783
-3.06746
-2.86597
-2.67378
-2.49081
-2.31692
-2.15197
-1.99578
-1.84816
-1.70889
-1.57773
-1.45443
-1.33873
-1.23035
-1.12902
-1.03443
-0.946311
-0.864352
-0.788262
-0.717747
-0.652514
-0.592276
-0.536748
-0.485654
-0.438724
-0.395695
-0.356313
-0.320334
-0.287522
-0.257652
-0.23051
-0.20589
-0.183599
-0.163451
-0.145275
-0.128906
-0.114192
-0.100989
-0.0891634
-0.0785909
-0.0691557
-0.0607508
-0.0532773
-0.0466441
-0.0407675
-0.0355707
-0.0309835
-0.0269417
-0.023387
-0.0202665
-0.0175321
-0.0151405
-0.0130525
-0.011233
-0.00965042
-0.00827636
-0.00708558
-0.00605554
-0.00516619
-0.00439974
-0.00374043
-0.00317433
-0.00268916
-0.00227413
-0.00191976
-0.00161773
-0.00136081
-0.00114265
-0.000957747
-0.000801328
-0.000669243
-0.000557912
-0.000464241
-0.000385569
-0.000319609
-0.000264396
-0.00021825
-0.000179735
-0.000147623
-0.000120869
-9.85807e-05
-7.99982e-05
-6.44728e-05
-5.14498e-05
-4.04527e-05
-3.10692e-05
-2.29391e-05
-1.57434e-05
-9.19358e-06
-3.02287e-06
)
;
    }
    frontAndBack
    {
        type            empty;
    }
}


// ************************************************************************* //
