/*--------------------------------*- C++ -*----------------------------------*\
| =========                 |                                                 |
| \\      /  F ield         | OpenFOAM: The Open Source CFD Toolbox           |
|  \\    /   O peration     | Version:  2312                                  |
|   \\  /    A nd           | Website:  www.openfoam.com                      |
|    \\/     M anipulation  |                                                 |
\*---------------------------------------------------------------------------*/
FoamFile
{
    version     2.0;
    format      ascii;
    arch        "LSB;label=32;scalar=64";
    class       surfaceScalarField;
    location    "0.426";
    object      phi;
}
// * * * * * * * * * * * * * * * * * * * * * * * * * * * * * * * * * * * * * //

dimensions      [0 3 -1 0 0 0 0];

oriented        oriented;

internalField   nonuniform List<scalar> 
62015
(
83.5432
0.162929
-84.0883
82.9885
0.158847
82.4242
0.154707
81.8499
0.150513
81.2652
0.146267
80.6695
0.141973
80.0626
0.137635
79.4437
0.133255
78.8123
0.128838
78.1677
0.124386
77.5092
0.119904
76.8359
0.115396
76.1469
0.110864
75.4411
0.106314
74.7173
0.101749
73.9743
0.0971727
73.2104
0.0925905
72.424
0.088006
71.6131
0.0834234
70.7754
0.0788479
69.9083
0.0742841
69.0088
0.0697363
68.0733
0.0652101
67.0974
0.0607108
66.0759
0.0562434
65.0027
0.0518141
63.8697
0.0474285
62.6669
0.0430936
61.3813
0.0388157
59.9952
0.0346021
58.4854
0.0304608
56.8168
0.0264014
54.9223
0.022433
52.6716
0.0185577
49.8826
0.0147772
46.4585
0.0111242
42.5956
0.00770908
38.8023
0.00468654
35.6099
0.00213697
33.271
0
31.732
-0.00186627
30.7977
-0.00359358
30.272
-0.0052665
30.0105
-0.00693044
29.9195
-0.00860715
29.9412
-0.0103063
30.0399
-0.0120327
30.1931
-0.0137882
30.3866
-0.0155736
30.6106
-0.0173893
30.8586
-0.0192348
31.1258
-0.0211097
31.4088
-0.0230134
31.7049
-0.0249454
32.0123
-0.0269045
32.3294
-0.0288902
32.6549
-0.0309011
32.9879
-0.0329365
33.3277
-0.0349952
33.6734
-0.0370758
34.0247
-0.0391775
34.3811
-0.041299
34.7421
-0.0434388
35.1075
-0.0455957
35.4771
-0.0477686
35.8505
-0.049956
36.2276
-0.0521565
36.6082
-0.0543687
36.9921
-0.0565914
37.3793
-0.0588229
37.7696
-0.0610621
38.163
-0.063307
38.5591
-0.065557
38.9587
-0.0678089
39.3593
-0.0700656
39.7679
-0.072313
40.1628
-0.0745879
40.6109
-0.0767695
-0.0792303
40.9066
80.6345
0.319333
-81.1652
80.0948
0.311315
79.5461
0.303186
78.9882
0.294951
78.4205
0.286618
77.8426
0.278191
77.2542
0.26968
76.6546
0.261089
76.0433
0.252425
75.4197
0.243696
74.7829
0.23491
74.1323
0.226072
73.4669
0.217191
72.7857
0.208274
72.0875
0.199329
71.3711
0.190365
70.6351
0.181388
69.8777
0.172408
69.0972
0.163434
68.2913
0.154473
67.4576
0.145536
66.5931
0.136631
65.6944
0.127769
64.7574
0.118959
63.7772
0.110212
62.7478
0.101541
61.6617
0.0929545
60.5093
0.0844673
59.2781
0.0760914
57.9515
0.0678415
56.5075
0.0597327
54.9126
0.0517837
53.1037
0.0440109
50.9595
0.0364212
48.3098
0.0290171
45.0598
0.0218651
41.3835
0.0151741
37.7498
0.0092393
34.6635
0.00421826
32.3783
0
30.8576
-0.00368485
29.9223
-0.00709099
29.3865
-0.0103853
29.1105
-0.0136575
29.0029
-0.0169509
29.0066
-0.0202859
29.0865
-0.0236713
29.2205
-0.0271117
29.3942
-0.0306084
29.5981
-0.034162
29.8257
-0.037772
30.0724
-0.0414378
30.3346
-0.045158
30.6098
-0.0489315
30.8961
-0.0527564
31.192
-0.0566313
31.4963
-0.0605542
31.808
-0.064523
32.1263
-0.0685357
32.4505
-0.0725902
32.7802
-0.076684
33.115
-0.0808149
33.4543
-0.0849806
33.798
-0.0891783
34.1457
-0.0934056
34.4973
-0.0976601
34.8525
-0.101939
35.2111
-0.10624
35.573
-0.11056
35.9381
-0.114896
36.3063
-0.119245
36.6775
-0.123606
37.0513
-0.127974
37.4285
-0.132346
37.8068
-0.136726
38.1928
-0.141088
38.566
-0.1455
38.9888
-0.149736
-0.154496
39.2714
77.8024
0.469332
-78.3192
77.2772
0.457521
76.7437
0.445549
76.2015
0.433425
75.6502
0.421159
75.0895
0.408759
74.5188
0.396235
73.9378
0.383597
73.3457
0.370855
72.742
0.35802
72.1259
0.345101
71.4968
0.332109
70.8537
0.319055
70.1957
0.305951
69.5217
0.292807
68.8304
0.279635
68.1204
0.266447
67.3903
0.253256
66.6381
0.240073
65.8619
0.226912
65.0591
0.213786
64.2271
0.200709
63.3625
0.187694
62.4614
0.174758
61.519
0.161915
60.5297
0.149181
59.4862
0.136574
58.3794
0.124112
57.1973
0.111813
55.9239
0.0996986
54.5379
0.0877908
53.0072
0.0761166
51.2708
0.0646995
49.2138
0.0535485
46.6777
0.0426711
43.5765
0.0321689
40.0747
0.022347
36.6098
0.0136265
33.655
0.00623051
31.4526
0
29.9743
-0.00545055
29.0553
-0.0104882
28.5207
-0.0153559
28.2377
-0.0201852
28.1185
-0.0250409
28.1079
-0.0299534
28.1719
-0.0349362
28.2888
-0.0399961
28.4447
-0.0451354
28.6303
-0.0503551
28.8392
-0.0556545
29.0667
-0.0610328
29.3095
-0.0664882
29.5652
-0.0720189
29.8319
-0.0776226
30.1079
-0.083297
30.3922
-0.0890392
30.6838
-0.0948464
30.9819
-0.100716
31.2859
-0.106644
31.5953
-0.112627
31.9096
-0.118663
32.2285
-0.124748
32.5517
-0.130878
32.8788
-0.137049
33.2097
-0.143258
33.5442
-0.149501
33.882
-0.155774
34.2231
-0.162073
34.5673
-0.168395
34.9146
-0.174735
35.2647
-0.181089
35.6175
-0.187453
35.9736
-0.193822
36.3308
-0.2002
36.6952
-0.206551
37.048
-0.212972
37.4468
-0.219142
-0.226052
37.7159
75.0568
0.613108
-75.5598
74.546
0.597645
74.0274
0.581976
73.5007
0.566112
72.9655
0.550064
72.4215
0.533845
71.8682
0.517467
71.305
0.500944
70.7315
0.484287
70.1471
0.46751
69.551
0.450627
68.9426
0.43365
68.321
0.416596
67.6852
0.399477
67.0343
0.382308
66.3669
0.365105
65.6819
0.347883
64.9776
0.330658
64.2524
0.313445
63.5042
0.296262
62.7308
0.279126
61.9294
0.262055
61.0969
0.245066
60.2295
0.22818
59.3227
0.211416
58.3709
0.194796
57.3672
0.17834
56.3026
0.162073
55.1658
0.14602
53.9412
0.130206
52.6084
0.114662
51.1355
0.0994202
49.4634
0.0845117
47.4816
0.0699468
45.043
0.0557396
42.0733
0.0420306
38.7339
0.029219
35.4368
0.0178409
32.6226
0.00817046
30.5167
0
29.0939
-0.00716217
28.2011
-0.0137847
27.6749
-0.0201798
27.39
-0.0265182
27.2629
-0.0328853
27.241
-0.0393205
27.2914
-0.0458429
27.3933
-0.052461
27.5332
-0.0591785
27.7021
-0.0659966
27.8937
-0.0729149
28.1036
-0.0799321
28.3286
-0.0870464
28.5661
-0.0942553
28.8143
-0.101556
29.0718
-0.108945
29.3373
-0.11642
29.6101
-0.123976
29.8893
-0.13161
30.1743
-0.139318
30.4645
-0.147095
30.7596
-0.154938
31.0592
-0.162841
31.363
-0.170801
31.6707
-0.178812
31.9821
-0.186869
32.297
-0.194969
32.6153
-0.203106
32.9367
-0.211274
33.2612
-0.219469
33.5886
-0.227686
33.9189
-0.235919
34.2518
-0.244164
34.5879
-0.252412
34.9251
-0.26067
35.2692
-0.268893
35.6025
-0.277202
35.9789
-0.285192
-0.294115
36.2344
72.4007
0.750862
-72.8899
71.9042
0.731888
71.4004
0.712664
70.8891
0.693205
70.3698
0.673525
69.8422
0.653638
69.3059
0.633561
68.7603
0.613308
68.205
0.592896
67.6394
0.572338
67.0628
0.551654
66.4745
0.530859
65.8737
0.50997
65.2595
0.489005
64.6308
0.467981
63.9867
0.446918
63.3256
0.425832
62.6463
0.404745
61.947
0.383674
61.2258
0.362642
60.4805
0.341668
59.7085
0.320774
58.9068
0.299983
58.0716
0.279317
57.1986
0.258802
56.2825
0.238462
55.3165
0.218325
54.2922
0.198417
53.1982
0.178771
52.0198
0.159417
50.7368
0.140391
49.3182
0.121735
47.7055
0.103482
45.793
0.0856444
43.4438
0.0682457
40.596
0.0514682
37.4102
0.0358035
34.2755
0.0218895
31.6008
0.0100406
29.5936
0
28.2297
-0.00882123
27.3668
-0.0169834
26.852
-0.0248616
26.5676
-0.0326631
26.4347
-0.0404921
26.4032
-0.0483982
26.4416
-0.0564047
26.53
-0.0645226
26.6553
-0.0727569
26.8088
-0.0811092
26.9845
-0.0895793
27.178
-0.0981657
27.3862
-0.106866
27.6067
-0.115678
27.8377
-0.124599
28.0778
-0.133623
28.3258
-0.142748
28.5809
-0.151968
28.8423
-0.16128
29.1093
-0.170679
29.3816
-0.180159
29.6586
-0.189715
29.94
-0.199342
30.2256
-0.209035
30.515
-0.218787
30.808
-0.228593
31.1044
-0.238448
31.4041
-0.248345
31.707
-0.258278
32.0128
-0.268241
32.3215
-0.278228
32.633
-0.288232
32.9471
-0.298249
33.2642
-0.308266
33.5826
-0.318294
33.9074
-0.328277
34.2223
-0.33836
34.5775
-0.348062
-0.358869
34.8197
69.8336
0.882793
-70.309
69.3513
0.860444
68.8623
0.837806
68.3661
0.814895
67.8626
0.791728
67.3512
0.768324
66.8316
0.744697
66.3034
0.720868
65.7659
0.696855
65.2187
0.672675
64.6611
0.648348
64.0925
0.623894
63.512
0.599333
62.9187
0.574685
62.3118
0.54997
61.6901
0.52521
61.0524
0.500427
60.3972
0.475643
59.723
0.450882
59.0278
0.426166
58.3097
0.40152
57.566
0.376969
56.7938
0.35254
55.9896
0.32826
55.1492
0.304156
54.2674
0.280259
53.3376
0.256599
52.3517
0.23321
51.2988
0.210126
50.1644
0.187384
48.9291
0.165028
47.562
0.143102
46.0058
0.121645
44.159
0.100672
41.8949
0.0802149
39.1632
0.0605025
36.1238
0.0421149
33.1445
0.0257811
30.6044
0.0118448
28.6936
0
27.3882
-0.01043
26.5556
-0.0200881
26.0533
-0.0294064
25.7706
-0.0386267
25.6332
-0.0478705
25.5932
-0.0571972
25.6208
-0.0666348
25.6968
-0.0761967
25.8086
-0.0858893
25.9478
-0.0957144
26.1086
-0.105672
26.2869
-0.115762
26.4794
-0.12598
26.6841
-0.136324
26.8989
-0.146789
27.1227
-0.157373
27.3542
-0.16807
27.5927
-0.178874
27.8373
-0.189782
28.0875
-0.200787
28.3428
-0.211883
28.6027
-0.223065
28.867
-0.234327
29.1353
-0.245661
29.4074
-0.257061
29.6831
-0.268522
29.9621
-0.280036
30.2443
-0.291595
30.5296
-0.303194
30.8178
-0.314825
31.1088
-0.326481
31.4026
-0.338154
31.6989
-0.349839
31.9981
-0.361523
32.2985
-0.373215
32.6051
-0.384853
32.9026
-0.396602
33.2379
-0.407915
-0.420485
33.4673
67.3535
1.00909
-67.8152
66.8854
0.983504
66.411
0.95759
65.9299
0.931368
65.4419
0.904858
64.9466
0.878078
64.4435
0.851051
63.9322
0.823794
63.4122
0.796331
62.8831
0.768681
62.3441
0.740866
61.7946
0.712909
61.2339
0.684832
60.6611
0.656658
60.0753
0.628412
59.4754
0.600115
58.8603
0.571795
58.2285
0.543475
57.5786
0.515182
56.9087
0.486944
56.2168
0.458786
55.5004
0.430739
54.7568
0.402831
53.9825
0.375094
53.1734
0.347559
52.3246
0.32026
51.4297
0.293232
50.4808
0.266512
49.4673
0.24014
48.3752
0.214158
47.1856
0.188614
45.8678
0.163559
44.3658
0.139034
42.5822
0.115056
40.3999
0.0916699
37.7798
0.0691518
34.8807
0.0481669
32.0498
0.0295236
29.6384
0.013586
27.8201
0
26.5714
-0.0119906
25.7687
-0.0231022
25.2791
-0.0338197
24.9988
-0.0444155
24.8575
-0.0550291
24.8101
-0.0657283
24.8278
-0.0765462
24.8923
-0.0874991
24.9916
-0.0985938
25.1176
-0.109833
25.2645
-0.121219
25.4285
-0.132747
25.6064
-0.144418
25.7961
-0.156226
25.9958
-0.168167
26.2042
-0.180238
26.4203
-0.192432
26.6431
-0.204745
26.8719
-0.217171
27.1062
-0.229702
27.3455
-0.242333
27.5894
-0.255058
27.8375
-0.267868
28.0896
-0.280757
28.3454
-0.293718
28.6047
-0.306743
28.8672
-0.319825
29.1329
-0.332956
29.4016
-0.346127
29.6732
-0.359332
29.9475
-0.372561
30.2244
-0.385807
30.5039
-0.399062
30.7861
-0.412314
31.0697
-0.425571
31.3591
-0.438766
31.64
-0.45208
31.9564
-0.464905
-0.479123
32.1736
64.958
1.12995
-65.406
64.504
1.10125
64.0441
1.0722
63.578
1.0428
63.1053
1.01309
62.6257
0.983075
62.1388
0.952789
61.6442
0.922251
61.1414
0.891484
60.6299
0.860512
60.1091
0.829359
59.5783
0.79805
59.0369
0.766609
58.484
0.735063
57.9187
0.703437
57.3401
0.671759
56.7468
0.640055
56.1378
0.608355
55.5114
0.576686
54.8659
0.545079
54.1993
0.513565
53.5094
0.482175
52.7933
0.450942
52.0479
0.4199
51.2691
0.389085
50.4521
0.358533
49.5907
0.328285
48.6774
0.298381
47.7018
0.268865
46.6504
0.239784
45.5046
0.211191
44.2342
0.183141
42.7842
0.155679
41.0615
0.128821
38.9585
0.102631
36.4461
0.077432
33.6815
0.0539703
30.9922
0.0331232
28.7034
0.0152665
26.9735
0
25.7793
-0.0135044
25.0058
-0.0260291
24.529
-0.0381058
24.2515
-0.0500363
24.1071
-0.061976
24.0529
-0.0740018
24.0616
-0.086152
24.1155
-0.0984444
24.2032
-0.110888
24.3168
-0.123487
24.4508
-0.136241
24.6014
-0.14915
24.7656
-0.16221
24.9413
-0.175417
25.1268
-0.188769
25.3208
-0.202258
25.5222
-0.21588
25.7303
-0.229629
25.9443
-0.243499
26.1637
-0.257481
26.3879
-0.27157
26.6166
-0.285758
26.8495
-0.300037
27.0863
-0.3144
27.3267
-0.328838
27.5705
-0.343343
27.8175
-0.357907
28.0676
-0.372521
28.3206
-0.387177
28.5764
-0.401866
28.8349
-0.416579
29.096
-0.431306
29.3595
-0.446041
29.6258
-0.460767
29.8933
-0.475496
30.1664
-0.490154
30.4317
-0.504936
30.7302
-0.519185
-0.534942
30.9359
62.6448
1.24555
-63.0792
62.2047
1.21388
61.7591
1.18181
61.3077
1.14937
60.85
1.11659
60.3859
1.08348
59.9149
1.05008
59.4367
1.0164
58.9507
0.982469
58.4564
0.948319
57.9533
0.913972
57.4408
0.879457
56.9182
0.8448
56.3847
0.810029
55.8393
0.775173
55.2813
0.740261
54.7093
0.705324
54.1223
0.670392
53.5186
0.635497
52.8967
0.600672
52.2547
0.56595
51.5903
0.531365
50.9009
0.496954
50.1832
0.462754
49.4336
0.428804
48.6472
0.395145
47.8182
0.361819
46.9391
0.328871
45.9999
0.296349
44.9877
0.264305
43.8839
0.232795
42.659
0.201881
41.2591
0.171606
39.5952
0.141991
37.569
0.113116
35.1606
0.0853568
32.5249
0.0595348
29.9708
0.0365856
27.7988
0.016889
26.1532
0
25.0115
-0.0149733
24.2664
-0.0288717
23.8022
-0.0422692
23.528
-0.0554946
23.381
-0.0687189
23.3208
-0.0820278
23.3212
-0.0954636
23.3654
-0.109047
23.4423
-0.12279
23.5443
-0.136694
23.6663
-0.150763
23.8043
-0.164994
23.9557
-0.179384
24.1183
-0.193931
24.2904
-0.208629
24.4709
-0.223473
24.6586
-0.238456
24.8528
-0.253573
25.0528
-0.268816
25.2581
-0.284178
25.4682
-0.299652
25.6826
-0.315229
25.9011
-0.330901
26.1234
-0.34666
26.3493
-0.362496
26.5785
-0.378402
26.8108
-0.394367
27.0462
-0.410383
27.2844
-0.42644
27.5253
-0.442529
27.7689
-0.45864
28.015
-0.474763
28.2634
-0.49089
28.5145
-0.507004
28.767
-0.523116
29.0246
-0.539149
29.2751
-0.555309
29.5568
-0.570896
-0.58809
29.7516
60.4112
1.35607
-60.8322
59.9849
1.32154
59.5534
1.28659
59.1164
1.25125
58.6736
1.21553
58.2247
1.17946
57.7693
1.14307
57.307
1.10638
56.8374
1.06943
56.36
1.03225
55.8742
0.994847
55.3795
0.957267
54.8751
0.919535
54.3604
0.881683
53.8345
0.84374
53.2964
0.80574
52.745
0.767713
52.1793
0.729694
51.5977
0.691717
50.9986
0.653817
50.3803
0.61603
49.7406
0.578394
49.0768
0.540948
48.386
0.503731
47.6644
0.466787
46.9075
0.430158
46.1097
0.393891
45.2635
0.358034
44.3594
0.322639
43.3847
0.287762
42.3214
0.253464
41.1401
0.219808
39.7882
0.186841
38.1812
0.154585
36.2294
0.123142
33.9213
0.09294
31.4093
0.0648697
28.9841
0.0399157
26.9233
0.018455
25.3584
0
24.2671
-0.0163985
23.5495
-0.0316325
23.0981
-0.0463141
22.8273
-0.0607964
22.6784
-0.0752656
22.6128
-0.0898152
22.6056
-0.104493
22.6408
-0.119322
22.7077
-0.134314
22.7991
-0.149474
22.9097
-0.164805
23.0361
-0.180304
23.1754
-0.195969
23.3257
-0.211797
23.4853
-0.227782
23.653
-0.243918
23.8278
-0.2602
24.009
-0.276621
24.1959
-0.293172
24.3879
-0.309846
24.5846
-0.326635
24.7856
-0.343531
24.9906
-0.360524
25.1992
-0.377605
25.4114
-0.394766
25.6268
-0.411997
25.8453
-0.429287
26.0667
-0.446627
26.2909
-0.464007
26.5178
-0.481417
26.7473
-0.498846
26.9792
-0.516283
27.2134
-0.53372
27.4502
-0.551139
27.6883
-0.568553
27.9314
-0.585876
28.1679
-0.60333
28.4336
-0.620173
-0.638708
28.618
58.2549
1.46169
-58.6627
57.8422
1.42443
57.4245
1.38672
57.0017
1.34859
56.5735
1.31006
56.1394
1.27116
55.6993
1.23192
55.2526
1.19237
54.799
1.15253
54.338
1.11244
53.8691
1.07212
53.3917
1.03161
52.9051
0.990944
52.4086
0.950147
51.9015
0.909257
51.3828
0.868306
50.8514
0.827329
50.3062
0.786362
49.746
0.745442
49.169
0.704606
48.5736
0.663893
47.9576
0.623344
47.3186
0.582998
46.6536
0.542901
45.9591
0.503096
45.2307
0.463632
44.4627
0.424555
43.6482
0.38592
42.7778
0.34778
41.8392
0.310195
40.8147
0.273231
39.6753
0.236953
38.3697
0.201409
36.8176
0.166626
34.9378
0.132727
32.7264
0.100194
30.3331
0.0699835
28.0309
0.0431185
26.0761
0.019967
24.5882
0
23.5453
-0.0177815
22.8546
-0.0343142
22.4157
-0.050244
22.1488
-0.065947
21.9984
-0.0816227
21.928
-0.0973732
21.914
-0.11325
21.9409
-0.12928
21.9985
-0.145476
22.0799
-0.161845
22.18
-0.178388
22.2954
-0.195104
22.4235
-0.211991
22.5622
-0.229044
22.7101
-0.24626
22.8658
-0.263631
23.0286
-0.281152
23.1975
-0.298814
23.372
-0.316611
23.5515
-0.334533
23.7356
-0.352572
23.9239
-0.37072
24.1161
-0.388967
24.312
-0.407302
24.5112
-0.425717
24.7136
-0.444201
24.919
-0.462744
25.1273
-0.481336
25.3383
-0.499965
25.5519
-0.51862
25.7681
-0.537291
25.9866
-0.555967
26.2074
-0.574637
26.4306
-0.593284
26.6552
-0.611919
26.8845
-0.630456
27.1077
-0.649122
27.3584
-0.667146
-0.68693
27.533
56.1735
1.56257
-56.5682
55.7741
1.5227
55.3701
1.48236
54.9612
1.44157
54.5472
1.40036
54.1277
1.35875
53.7024
1.31678
53.271
1.27449
52.833
1.23189
52.388
1.18902
51.9355
1.14592
51.4749
1.10262
51.0055
1.05915
50.5268
1.01554
50.0379
0.971837
49.5379
0.92807
49.0259
0.884277
48.5007
0.840497
47.961
0.796767
47.4054
0.753129
46.832
0.709623
46.239
0.666292
45.6239
0.62318
44.9839
0.580333
44.3154
0.537798
43.6143
0.495625
42.8751
0.453866
42.0911
0.412577
41.2531
0.371815
40.3492
0.331643
39.3618
0.29213
38.2627
0.253345
37.0015
0.215335
35.5026
0.178132
33.6925
0.141887
31.5745
0.107132
29.2949
0.0748849
27.11
0.0461984
25.2562
0.0214263
23.8417
0
22.8453
-0.0191233
22.1807
-0.036919
21.7544
-0.0540629
21.4916
-0.0709514
21.3402
-0.0877973
21.2656
-0.10471
21.2454
-0.121746
21.2647
-0.138935
21.3137
-0.156292
21.3858
-0.173823
21.4761
-0.19153
21.5813
-0.209414
21.6988
-0.227472
21.8267
-0.2457
21.9635
-0.264093
22.1081
-0.282644
22.2595
-0.301347
22.4169
-0.320193
22.5797
-0.339176
22.7475
-0.358286
22.9197
-0.377514
23.0961
-0.396851
23.2763
-0.416287
23.46
-0.435811
23.647
-0.455414
23.8372
-0.475085
24.0303
-0.494813
24.2261
-0.514586
24.4247
-0.534394
24.6258
-0.554224
24.8293
-0.574067
25.0352
-0.593908
25.2432
-0.613739
25.4537
-0.63354
25.6655
-0.653324
25.8818
-0.673
26.0924
-0.692803
26.3288
-0.711936
-0.732885
26.4941
54.1646
1.65888
-54.5465
53.7783
1.61653
53.3876
1.57367
52.9924
1.53033
52.5923
1.48656
52.187
1.44237
51.7763
1.3978
51.3597
1.35289
50.9369
1.30766
50.5075
1.26214
50.0709
1.21639
49.6266
1.17041
49.174
1.12427
48.7125
1.07798
48.2412
1.03159
47.7594
0.985137
47.2661
0.938657
46.7602
0.892192
46.2404
0.845783
45.7054
0.799471
45.1534
0.7533
44.5825
0.707316
43.9904
0.661563
43.3744
0.616092
42.731
0.570951
42.0562
0.526193
41.3447
0.481874
40.59
0.43805
39.7832
0.394784
38.9125
0.352141
37.9609
0.310193
36.9002
0.269011
35.6819
0.228641
34.2343
0.189124
32.4918
0.150636
30.4639
0.113765
28.2932
0.0795821
26.2202
0.0491605
24.4625
0.0228351
23.1182
0
22.1666
-0.0204255
21.5273
-0.0394496
21.1134
-0.0577744
20.855
-0.0758146
20.703
-0.0937954
20.6248
-0.111834
20.5989
-0.129991
20.6112
-0.148299
20.6523
-0.166774
20.7157
-0.185424
20.7969
-0.204252
20.8926
-0.223257
21.0002
-0.242438
21.118
-0.261791
21.2445
-0.28131
21.3785
-0.300988
21.5192
-0.32082
21.6658
-0.340796
21.8177
-0.360909
21.9744
-0.38115
22.1355
-0.401508
22.3006
-0.421975
22.4694
-0.44254
22.6417
-0.463191
22.8173
-0.48392
22.9959
-0.504714
23.1773
-0.525561
23.3615
-0.546452
23.5483
-0.567373
23.7375
-0.588312
23.9291
-0.609258
24.1231
-0.630197
24.3191
-0.651121
24.5175
-0.672007
24.7172
-0.692869
24.9212
-0.713615
25.12
-0.734484
25.3429
-0.754659
-0.776692
25.4994
52.226
1.7508
-52.5954
51.8525
1.70606
51.4749
1.6608
51.093
1.61504
50.7065
1.56882
50.3151
1.52217
49.9185
1.47512
49.5164
1.4277
49.1084
1.37996
48.6941
1.33193
48.273
1.28363
47.8445
1.23512
47.4082
1.18642
46.9633
1.13757
46.5092
1.08862
46.045
1.03961
45.5698
0.990567
45.0825
0.941542
44.5819
0.892577
44.0668
0.843715
43.5354
0.795003
42.9858
0.746487
42.4159
0.698217
41.823
0.650242
41.2038
0.602615
40.5543
0.555391
39.8695
0.508628
39.1429
0.462386
38.366
0.416729
37.5272
0.371726
36.6099
0.327451
35.5863
0.283977
34.4092
0.24135
33.0112
0.199619
31.3341
0.158991
29.3931
0.120105
27.3268
0.0840827
25.3605
0.0520089
23.6943
0.024195
22.417
0
21.5083
-0.0216891
20.8936
-0.0419082
20.492
-0.0613818
20.2382
-0.0805413
20.0861
-0.0996235
20.0047
-0.118753
19.9736
-0.137994
19.9795
-0.157383
20.0133
-0.176936
20.0688
-0.196664
20.1415
-0.216569
20.2282
-0.236652
20.3267
-0.256911
20.435
-0.277341
20.5518
-0.297938
20.676
-0.318695
20.8066
-0.339605
20.943
-0.360659
21.0846
-0.381849
21.2309
-0.403166
21.3815
-0.4246
21.536
-0.44614
21.6942
-0.467776
21.8557
-0.489498
22.0204
-0.511293
22.1881
-0.53315
22.3586
-0.555057
22.5317
-0.577003
22.7074
-0.598975
22.8854
-0.62096
23.0658
-0.642946
23.2485
-0.66492
23.4331
-0.686871
23.6201
-0.708778
23.8084
-0.730653
24.0007
-0.752403
24.1883
-0.774271
24.3985
-0.795424
-0.818466
24.5466
50.3554
1.83847
-50.7124
49.9944
1.79146
49.6296
1.74391
49.2607
1.69584
48.8874
1.64728
48.5096
1.59828
48.1268
1.54887
47.7388
1.49907
47.3452
1.44894
46.9456
1.39849
46.5395
1.34778
46.1264
1.29684
45.7058
1.24571
45.2771
1.19443
44.8395
1.14304
44.3923
1.09158
43.9345
1.0401
43.4653
0.988635
42.9833
0.937233
42.4873
0.885941
41.9758
0.834807
41.4468
0.783878
40.8983
0.733206
40.3276
0.682845
39.7316
0.632847
39.1065
0.583271
38.4473
0.534176
37.7478
0.485626
36.9996
0.437687
36.1915
0.39043
35.3071
0.343934
34.319
0.298269
33.1816
0.253484
31.8317
0.209636
30.218
0.166966
28.3607
0.126164
26.3944
0.0883951
24.5298
0.0547479
22.9508
0.0255078
21.7373
0
20.8699
-0.0229155
20.279
-0.0442971
19.8896
-0.0648883
19.6406
-0.0851362
19.4887
-0.105287
19.4046
-0.125474
19.3689
-0.145764
19.369
-0.166197
19.396
-0.186791
19.4441
-0.207557
19.5089
-0.228499
19.5873
-0.249618
19.6771
-0.270911
19.7766
-0.292375
19.8843
-0.314004
19.9992
-0.335793
20.1205
-0.357732
20.2473
-0.379815
20.3793
-0.402033
20.5158
-0.424375
20.6565
-0.446832
20.801
-0.469393
20.9491
-0.492047
21.1005
-0.514782
21.255
-0.537588
21.4124
-0.560452
21.5725
-0.583362
21.7352
-0.606305
21.9004
-0.62927
22.0679
-0.652241
22.2377
-0.675208
22.4097
-0.698156
22.5836
-0.721074
22.7598
-0.74394
22.9373
-0.766767
23.1186
-0.789459
23.2956
-0.812263
23.4937
-0.834334
-0.858315
23.634
48.5506
1.92205
-48.8956
48.2019
1.87288
47.8495
1.82314
47.4933
1.77287
47.133
1.72209
46.7683
1.67085
46.399
1.61918
46.0246
1.56712
45.645
1.5147
45.2596
1.46197
44.8681
1.40896
44.4699
1.35571
44.0646
1.30226
43.6515
1.24866
43.2299
1.19494
42.7992
1.14116
42.3583
1.08735
41.9064
1.03356
41.4424
0.979835
40.9649
0.926227
40.4725
0.872784
39.9633
0.819556
39.4354
0.766596
38.8861
0.713959
38.3126
0.661701
37.7109
0.609882
37.0763
0.558564
36.4028
0.507812
35.6822
0.457695
34.9036
0.408288
34.0507
0.359669
33.0967
0.311911
31.9975
0.265062
30.6942
0.219193
29.142
0.174576
27.3655
0.131953
25.4949
0.092526
23.7272
0.057382
22.231
0.0267751
21.0785
0
20.2507
-0.0241056
19.683
-0.0466182
19.3055
-0.0682974
19.0615
-0.0896035
18.9101
-0.110793
18.8237
-0.132004
18.784
-0.15331
18.7787
-0.174752
18.7995
-0.196351
18.8407
-0.218118
18.8981
-0.240058
18.9689
-0.262172
19.0506
-0.284459
19.1418
-0.306914
19.241
-0.329533
19.3472
-0.352308
19.4597
-0.375233
19.5776
-0.398298
19.7004
-0.421496
19.8277
-0.444814
19.9591
-0.468245
20.0943
-0.491776
20.2329
-0.515397
20.3747
-0.539096
20.5196
-0.56286
20.6673
-0.586677
20.8176
-0.610536
20.9705
-0.634422
21.1258
-0.658324
21.2834
-0.682227
21.4431
-0.706118
21.605
-0.729983
21.7689
-0.75381
21.9349
-0.777578
22.1022
-0.801299
22.2731
-0.824875
22.44
-0.848556
22.6268
-0.871488
-0.896341
22.7596
46.8095
2.00169
-47.1427
46.4727
1.95046
46.1325
1.89864
45.7886
1.84627
45.4409
1.79338
45.089
1.74001
44.7327
1.68619
44.3717
1.63197
44.0056
1.57738
43.6341
1.52246
43.2567
1.46726
42.873
1.41181
42.4824
1.35616
42.0844
1.30035
41.6783
1.24442
41.2635
1.18842
40.839
1.13239
40.4039
1.07639
39.9572
1.02046
39.4975
0.964646
39.0235
0.909004
38.5335
0.853586
38.0253
0.798446
37.4967
0.743641
36.9447
0.68923
36.3655
0.635273
35.7546
0.581835
35.1061
0.528984
34.412
0.47679
33.6617
0.42533
32.839
0.374685
31.9177
0.324927
30.8554
0.276105
29.5973
0.228305
28.1046
0.181833
26.4059
0.137482
24.627
0.0964831
22.9517
0.059915
21.5344
0.0279985
20.44
0
19.6501
-0.0252608
19.1048
-0.0488738
18.7392
-0.071612
18.5003
-0.0939474
18.3497
-0.116145
18.2614
-0.13835
18.2181
-0.16064
18.2079
-0.183058
18.223
-0.205627
18.2578
-0.22836
18.3084
-0.251261
18.372
-0.274333
18.4462
-0.297574
18.5297
-0.320981
18.6209
-0.344547
18.719
-0.368268
18.8231
-0.392134
18.9326
-0.416138
19.0469
-0.44027
19.1656
-0.464521
19.2882
-0.488879
19.4145
-0.513333
19.5442
-0.537872
19.6771
-0.562485
19.8129
-0.587158
19.9514
-0.611879
20.0926
-0.636635
20.2362
-0.661413
20.3822
-0.6862
20.5304
-0.710981
20.6807
-0.735743
20.8331
-0.760472
20.9874
-0.785155
21.1437
-0.809771
21.3014
-0.834331
21.4625
-0.858737
21.6199
-0.883238
21.7959
-0.906978
-0.932642
21.9216
45.13
2.07754
-45.4517
44.8048
2.02435
44.4764
1.97055
44.1446
1.91618
43.8091
1.86128
43.4697
1.80588
43.1261
1.75002
42.778
1.69375
42.4251
1.63709
42.0669
1.5801
41.7032
1.52281
41.3335
1.46527
40.9572
1.40752
40.5738
1.3496
40.1827
1.29157
39.7832
1.23346
39.3745
1.17533
38.9556
1.11722
38.5255
1.05918
38.0831
1.00127
37.6269
0.943535
37.1552
0.886032
36.6662
0.828816
36.1574
0.771947
35.6261
0.715483
35.0686
0.65949
34.4805
0.604032
33.8559
0.549179
33.1873
0.495005
32.4641
0.441587
31.6705
0.389008
30.7806
0.337339
29.7539
0.286633
28.5395
0.23699
27.1045
0.188752
25.4809
0.142761
23.7897
0.100273
22.2023
0.0623507
20.86
0.0291796
19.821
0
19.0675
-0.0263819
18.5439
-0.0510658
18.19
-0.0748352
17.9563
-0.0981717
17.8068
-0.12135
17.717
-0.144519
17.6704
-0.167762
17.6559
-0.191124
17.6657
-0.214631
17.6947
-0.238295
17.739
-0.262122
17.7958
-0.286116
17.8631
-0.310275
17.9393
-0.334594
18.0231
-0.35907
18.1135
-0.383696
18.2099
-0.408464
18.3115
-0.433365
18.4178
-0.458389
18.5283
-0.483528
18.6427
-0.508769
18.7607
-0.534102
18.882
-0.559514
19.0064
-0.584995
19.1336
-0.61053
19.2636
-0.636107
19.3961
-0.661713
19.5309
-0.687334
19.6681
-0.712957
19.8074
-0.738567
19.9488
-0.764151
20.0922
-0.789693
20.2375
-0.815182
20.3848
-0.840594
20.5333
-0.865941
20.6852
-0.891126
20.8337
-0.916396
20.9995
-0.940894
-0.967309
21.1185
43.5099
2.14973
-43.8205
43.1961
2.09468
42.8793
2.039
42.5592
1.98274
42.2356
1.92592
41.9083
1.86859
41.577
1.81079
41.2414
1.75256
40.9012
1.69394
40.5561
1.63498
40.2056
1.5757
39.8494
1.51617
39.4869
1.45643
39.1177
1.39651
38.7411
1.33648
38.3564
1.27637
37.9628
1.21623
37.5596
1.15612
37.1456
1.09608
36.7198
1.03617
36.2807
0.976442
35.8267
0.916954
35.3561
0.857763
34.8664
0.798927
34.355
0.740511
33.8183
0.682577
33.2521
0.625195
32.6506
0.568435
32.0064
0.512373
31.3093
0.457088
30.5435
0.402663
29.6838
0.349169
28.6914
0.296664
27.5194
0.245262
26.1404
0.195346
24.5891
0.147801
22.9819
0.103903
21.4782
0.064693
20.2072
0.0303198
19.221
0
18.5025
-0.02747
17.9999
-0.0531963
17.6574
-0.0779696
17.429
-0.102281
17.2809
-0.126411
17.1899
-0.150516
17.1405
-0.174683
17.1219
-0.19896
17.1269
-0.223372
17.1505
-0.247935
17.1889
-0.272656
17.2395
-0.297537
17.3003
-0.322578
17.3697
-0.347775
17.4465
-0.373124
17.5299
-0.398617
17.619
-0.424247
17.7131
-0.450005
17.8119
-0.475883
17.9148
-0.501868
18.0215
-0.527951
18.1317
-0.55412
18.2451
-0.580363
18.3615
-0.606668
18.4807
-0.633021
18.6025
-0.65941
18.7268
-0.68582
18.8534
-0.712239
18.9823
-0.738652
19.1133
-0.765045
19.2462
-0.791403
19.3812
-0.817711
19.5179
-0.843957
19.6566
-0.870118
19.7966
-0.896205
19.9396
-0.92212
20.0797
-0.948108
20.2359
-0.973319
-1.00043
20.3486
41.9475
2.2184
-42.2472
41.6447
2.16158
41.3391
2.10412
41.0304
2.04605
40.7183
1.98742
40.4027
1.92826
40.0833
1.86862
39.7599
1.80853
39.432
1.74805
39.0995
1.6872
38.7619
1.62605
38.4187
1.56463
38.0696
1.50299
37.7141
1.44117
37.3514
1.37923
36.981
1.31722
36.6022
1.25517
36.214
1.19316
35.8156
1.13122
35.4057
1.06941
34.9831
1.00779
34.5462
0.946411
34.0932
0.88534
33.622
0.824635
33.1297
0.764359
32.613
0.704579
32.0678
0.645364
31.4885
0.586787
30.8678
0.528925
30.1956
0.47186
29.4565
0.415674
28.6259
0.360439
27.6667
0.306215
26.5358
0.253137
25.211
0.201627
23.7294
0.152611
22.2025
0.107379
20.7785
0.0669452
19.5753
0.0314207
18.6394
0
17.9543
-0.0285263
17.4721
-0.0552668
17.1409
-0.0810181
16.9178
-0.106278
16.7713
-0.131334
16.6795
-0.156349
16.6275
-0.181411
16.6053
-0.206573
16.606
-0.231861
16.6246
-0.257293
16.6575
-0.282875
16.7023
-0.308611
16.757
-0.334501
16.8201
-0.360541
16.8905
-0.386727
16.9672
-0.413052
17.0494
-0.439508
17.1366
-0.466087
17.2283
-0.492779
17.324
-0.519573
17.4235
-0.546459
17.5263
-0.573424
17.6323
-0.600457
17.7412
-0.627545
17.8528
-0.654675
17.967
-0.681832
18.0836
-0.709005
18.2024
-0.736178
18.3235
-0.763338
18.4466
-0.790469
18.5716
-0.817558
18.6986
-0.844588
18.8273
-0.871547
18.9579
-0.898412
19.0897
-0.925192
19.2245
-0.951792
19.3565
-0.978453
19.5037
-1.00433
-1.03209
19.6103
40.4406
2.2837
-40.7297
40.1486
2.22519
39.8539
2.16604
39.5562
2.10626
39.2553
2.0459
38.9511
1.985
38.6433
1.92361
38.3316
1.86176
38.0157
1.79951
37.6954
1.73688
37.3701
1.67394
37.0397
1.61073
36.7035
1.54729
36.3611
1.48367
36.0119
1.41992
35.6554
1.35609
35.2907
1.29224
34.9171
1.22841
34.5336
1.16466
34.1391
1.10105
33.7324
1.03763
33.3119
0.97446
32.8759
0.911601
32.4223
0.849117
31.9485
0.787072
31.4511
0.725535
30.926
0.664575
30.368
0.604269
29.7698
0.544693
29.1216
0.485931
28.4081
0.428065
27.6055
0.371167
26.6783
0.315304
25.5873
0.26063
24.3151
0.207606
22.9006
0.1572
21.4505
0.110708
20.1024
0.0691112
18.9636
0.0324837
18.0757
0
17.4226
-0.0295516
16.96
-0.0572795
16.6399
-0.0839833
16.4222
-0.110167
16.2774
-0.136124
16.1851
-0.162021
16.131
-0.187953
16.1056
-0.213972
16.1022
-0.240108
16.1162
-0.266378
16.1441
-0.292792
16.1836
-0.319352
16.2326
-0.346059
16.2898
-0.37291
16.3541
-0.3999
16.4245
-0.427023
16.5004
-0.454271
16.5811
-0.481635
16.6661
-0.509105
16.7551
-0.536672
16.8477
-0.564323
16.9437
-0.592047
17.0426
-0.619831
17.1445
-0.647664
17.249
-0.675531
17.3559
-0.703419
17.4653
-0.731313
17.5768
-0.759201
17.6905
-0.787066
17.8061
-0.814895
17.9237
-0.842672
18.0431
-0.870382
18.1642
-0.898011
18.2871
-0.925537
18.4113
-0.952969
18.5383
-0.980211
18.6628
-1.0075
18.8014
-1.03401
-1.06236
18.9023
38.9875
2.34573
-39.2663
38.7059
2.28564
38.4217
2.22487
38.1347
2.16347
37.8448
2.10148
37.5516
2.03893
37.255
1.97588
36.9547
1.91236
36.6504
1.84843
36.3418
1.78411
36.0286
1.71948
35.7103
1.65456
35.3866
1.58941
35.057
1.52408
34.7208
1.45861
34.3776
1.39307