/*--------------------------------*- C++ -*----------------------------------*\
| =========                 |                                                 |
| \\      /  F ield         | OpenFOAM: The Open Source CFD Toolbox           |
|  \\    /   O peration     | Version:  2312                                  |
|   \\  /    A nd           | Website:  www.openfoam.com                      |
|    \\/     M anipulation  |                                                 |
\*---------------------------------------------------------------------------*/
FoamFile
{
    version     2.0;
    format      ascii;
    arch        "LSB;label=32;scalar=64";
    class       volVectorField;
    location    "0.8";
    object      flux;
}
// * * * * * * * * * * * * * * * * * * * * * * * * * * * * * * * * * * * * * //

dimensions      [0 1 -1 1 0 0 0];

internalField   nonuniform List<vector> 
100
(
(3.65384 0 0)
(3.75386 0 0)
(3.8383 0 0)
(3.908 0 0)
(3.96382 0 0)
(4.00654 0 0)
(4.03697 0 0)
(4.05587 0 0)
(4.06397 0 0)
(4.06199 0 0)
(4.05062 0 0)
(4.03053 0 0)
(4.00235 0 0)
(3.96671 0 0)
(3.92419 0 0)
(3.87537 0 0)
(3.8208 0 0)
(3.76099 0 0)
(3.69645 0 0)
(3.62765 0 0)
(3.55505 0 0)
(3.47908 0 0)
(3.40015 0 0)
(3.31866 0 0)
(3.23498 0 0)
(3.14946 0 0)
(3.06242 0 0)
(2.97419 0 0)
(2.88506 0 0)
(2.7953 0 0)
(2.70518 0 0)
(2.61494 0 0)
(2.5248 0 0)
(2.43499 0 0)
(2.34569 0 0)
(2.25709 0 0)
(2.16935 0 0)
(2.08264 0 0)
(1.99709 0 0)
(1.91284 0 0)
(1.83001 0 0)
(1.74869 0 0)
(1.669 0 0)
(1.59101 0 0)
(1.5148 0 0)
(1.44044 0 0)
(1.36799 0 0)
(1.2975 0 0)
(1.22901 0 0)
(1.16256 0 0)
(1.09817 0 0)
(1.03587 0 0)
(0.975671 0 0)
(0.917579 0 0)
(0.861601 0 0)
(0.807735 0 0)
(0.755974 0 0)
(0.706307 0 0)
(0.658719 0 0)
(0.61319 0 0)
(0.569699 0 0)
(0.528218 0 0)
(0.488718 0 0)
(0.451168 0 0)
(0.415531 0 0)
(0.38177 0 0)
(0.349847 0 0)
(0.31972 0 0)
(0.291344 0 0)
(0.264675 0 0)
(0.239667 0 0)
(0.216271 0 0)
(0.194439 0 0)
(0.17412 0 0)
(0.155262 0 0)
(0.137815 0 0)
(0.121725 0 0)
(0.10694 0 0)
(0.0934039 0 0)
(0.0810641 0 0)
(0.0698656 0 0)
(0.0597534 0 0)
(0.0506721 0 0)
(0.0425663 0 0)
(0.0353805 0 0)
(0.0290588 0 0)
(0.0235456 0 0)
(0.0187849 0 0)
(0.0147209 0 0)
(0.0112976 0 0)
(0.00845917 0 0)
(0.0061498 0 0)
(0.00431363 0 0)
(0.00289487 0 0)
(0.00183776 0 0)
(0.00108658 0 0)
(0.00058566 0 0)
(0.000279347 0 0)
(0.00011202 0 0)
(2.80755e-05 0 0)
)
;

boundaryField
{
    movingWall
    {
        type            calculated;
        value           uniform (3.59983 0 0);
    }
    fixedWalls
    {
        type            calculated;
        value           nonuniform List<vector> 
201
(
(3.65384 0 0)
(3.75386 0 0)
(3.8383 0 0)
(3.908 0 0)
(3.96382 0 0)
(4.00654 0 0)
(4.03697 0 0)
(4.05587 0 0)
(4.06397 0 0)
(4.06199 0 0)
(4.05062 0 0)
(4.03053 0 0)
(4.00235 0 0)
(3.96671 0 0)
(3.92419 0 0)
(3.87537 0 0)
(3.8208 0 0)
(3.76099 0 0)
(3.69645 0 0)
(3.62765 0 0)
(3.55505 0 0)
(3.47908 0 0)
(3.40015 0 0)
(3.31866 0 0)
(3.23498 0 0)
(3.14946 0 0)
(3.06242 0 0)
(2.97419 0 0)
(2.88506 0 0)
(2.7953 0 0)
(2.70518 0 0)
(2.61494 0 0)
(2.5248 0 0)
(2.43499 0 0)
(2.34569 0 0)
(2.25709 0 0)
(2.16935 0 0)
(2.08264 0 0)
(1.99709 0 0)
(1.91284 0 0)
(1.83001 0 0)
(1.74869 0 0)
(1.669 0 0)
(1.59101 0 0)
(1.5148 0 0)
(1.44044 0 0)
(1.36799 0 0)
(1.2975 0 0)
(1.22901 0 0)
(1.16256 0 0)
(1.09817 0 0)
(1.03587 0 0)
(0.975671 0 0)
(0.917579 0 0)
(0.861601 0 0)
(0.807735 0 0)
(0.755974 0 0)
(0.706307 0 0)
(0.658719 0 0)
(0.61319 0 0)
(0.569699 0 0)
(0.528218 0 0)
(0.488718 0 0)
(0.451168 0 0)
(0.415531 0 0)
(0.38177 0 0)
(0.349847 0 0)
(0.31972 0 0)
(0.291344 0 0)
(0.264675 0 0)
(0.239667 0 0)
(0.216271 0 0)
(0.194439 0 0)
(0.17412 0 0)
(0.155262 0 0)
(0.137815 0 0)
(0.121725 0 0)
(0.10694 0 0)
(0.0934039 0 0)
(0.0810641 0 0)
(0.0698656 0 0)
(0.0597534 0 0)
(0.0506721 0 0)
(0.0425663 0 0)
(0.0353805 0 0)
(0.0290588 0 0)
(0.0235456 0 0)
(0.0187849 0 0)
(0.0147209 0 0)
(0.0112976 0 0)
(0.00845917 0 0)
(0.0061498 0 0)
(0.00431363 0 0)
(0.00289487 0 0)
(0.00183776 0 0)
(0.00108658 0 0)
(0.00058566 0 0)
(0.000279347 0 0)
(0.00011202 0 0)
(2.80755e-05 0 0)
(0 0 0)
(3.65384 0 0)
(3.75386 0 0)
(3.8383 0 0)
(3.908 0 0)
(3.96382 0 0)
(4.00654 0 0)
(4.03697 0 0)
(4.05587 0 0)
(4.06397 0 0)
(4.06199 0 0)
(4.05062 0 0)
(4.03053 0 0)
(4.00235 0 0)
(3.96671 0 0)
(3.92419 0 0)
(3.87537 0 0)
(3.8208 0 0)
(3.76099 0 0)
(3.69645 0 0)
(3.62765 0 0)
(3.55505 0 0)
(3.47908 0 0)
(3.40015 0 0)
(3.31866 0 0)
(3.23498 0 0)
(3.14946 0 0)
(3.06242 0 0)
(2.97419 0 0)
(2.88506 0 0)
(2.7953 0 0)
(2.70518 0 0)
(2.61494 0 0)
(2.5248 0 0)
(2.43499 0 0)
(2.34569 0 0)
(2.25709 0 0)
(2.16935 0 0)
(2.08264 0 0)
(1.99709 0 0)
(1.91284 0 0)
(1.83001 0 0)
(1.74869 0 0)
(1.669 0 0)
(1.59101 0 0)
(1.5148 0 0)
(1.44044 0 0)
(1.36799 0 0)
(1.2975 0 0)
(1.22901 0 0)
(1.16256 0 0)
(1.09817 0 0)
(1.03587 0 0)
(0.975671 0 0)
(0.917579 0 0)
(0.861601 0 0)
(0.807735 0 0)
(0.755974 0 0)
(0.706307 0 0)
(0.658719 0 0)
(0.61319 0 0)
(0.569699 0 0)
(0.528218 0 0)
(0.488718 0 0)
(0.451168 0 0)
(0.415531 0 0)
(0.38177 0 0)
(0.349847 0 0)
(0.31972 0 0)
(0.291344 0 0)
(0.264675 0 0)
(0.239667 0 0)
(0.216271 0 0)
(0.194439 0 0)
(0.17412 0 0)
(0.155262 0 0)
(0.137815 0 0)
(0.121725 0 0)
(0.10694 0 0)
(0.0934039 0 0)
(0.0810641 0 0)
(0.0698656 0 0)
(0.0597534 0 0)
(0.0506721 0 0)
(0.0425663 0 0)
(0.0353805 0 0)
(0.0290588 0 0)
(0.0235456 0 0)
(0.0187849 0 0)
(0.0147209 0 0)
(0.0112976 0 0)
(0.00845917 0 0)
(0.0061498 0 0)
(0.00431363 0 0)
(0.00289487 0 0)
(0.00183776 0 0)
(0.00108658 0 0)
(0.00058566 0 0)
(0.000279347 0 0)
(0.00011202 0 0)
(2.80755e-05 0 0)
)
;
    }
    frontAndBack
    {
        type            empty;
    }
}


// ************************************************************************* //
