/*--------------------------------*- C++ -*----------------------------------*\
| =========                 |                                                 |
| \\      /  F ield         | OpenFOAM: The Open Source CFD Toolbox           |
|  \\    /   O peration     | Version:  2312                                  |
|   \\  /    A nd           | Website:  www.openfoam.com                      |
|    \\/     M anipulation  |                                                 |
\*---------------------------------------------------------------------------*/
FoamFile
{
    version     2.0;
    format      ascii;
    arch        "LSB;label=32;scalar=64";
    class       volScalarField;
    location    "0.8";
    object      gradTx;
}
// * * * * * * * * * * * * * * * * * * * * * * * * * * * * * * * * * * * * * //

dimensions      [0 -1 0 1 0 0 0];

internalField   nonuniform List<scalar> 
100
(
3.65384
3.75386
3.8383
3.908
3.96382
4.00654
4.03697
4.05587
4.06397
4.06199
4.05062
4.03053
4.00235
3.96671
3.92419
3.87537
3.8208
3.76099
3.69645
3.62765
3.55505
3.47908
3.40015
3.31866
3.23498
3.14946
3.06242
2.97419
2.88506
2.7953
2.70518
2.61494
2.5248
2.43499
2.34569
2.25709
2.16935
2.08264
1.99709
1.91284
1.83001
1.74869
1.669
1.59101
1.5148
1.44044
1.36799
1.2975
1.22901
1.16256
1.09817
1.03587
0.975671
0.917579
0.861601
0.807735
0.755974
0.706307
0.658719
0.61319
0.569699
0.528218
0.488718
0.451168
0.415531
0.38177
0.349847
0.31972
0.291344
0.264675
0.239667
0.216271
0.194439
0.17412
0.155262
0.137815
0.121725
0.10694
0.0934039
0.0810641
0.0698656
0.0597534
0.0506721
0.0425663
0.0353805
0.0290588
0.0235456
0.0187849
0.0147209
0.0112976
0.00845917
0.0061498
0.00431363
0.00289487
0.00183776
0.00108658
0.00058566
0.000279347
0.00011202
2.80755e-05
)
;

boundaryField
{
    movingWall
    {
        type            calculated;
        value           uniform 3.59983;
    }
    fixedWalls
    {
        type            calculated;
        value           nonuniform List<scalar> 
201
(
3.65384
3.75386
3.8383
3.908
3.96382
4.00654
4.03697
4.05587
4.06397
4.06199
4.05062
4.03053
4.00235
3.96671
3.92419
3.87537
3.8208
3.76099
3.69645
3.62765
3.55505
3.47908
3.40015
3.31866
3.23498
3.14946
3.06242
2.97419
2.88506
2.7953
2.70518
2.61494
2.5248
2.43499
2.34569
2.25709
2.16935
2.08264
1.99709
1.91284
1.83001
1.74869
1.669
1.59101
1.5148
1.44044
1.36799
1.2975
1.22901
1.16256
1.09817
1.03587
0.975671
0.917579
0.861601
0.807735
0.755974
0.706307
0.658719
0.61319
0.569699
0.528218
0.488718
0.451168
0.415531
0.38177
0.349847
0.31972
0.291344
0.264675
0.239667
0.216271
0.194439
0.17412
0.155262
0.137815
0.121725
0.10694
0.0934039
0.0810641
0.0698656
0.0597534
0.0506721
0.0425663
0.0353805
0.0290588
0.0235456
0.0187849
0.0147209
0.0112976
0.00845917
0.0061498
0.00431363
0.00289487
0.00183776
0.00108658
0.00058566
0.000279347
0.00011202
2.80755e-05
0
3.65384
3.75386
3.8383
3.908
3.96382
4.00654
4.03697
4.05587
4.06397
4.06199
4.05062
4.03053
4.00235
3.96671
3.92419
3.87537
3.8208
3.76099
3.69645
3.62765
3.55505
3.47908
3.40015
3.31866
3.23498
3.14946
3.06242
2.97419
2.88506
2.7953
2.70518
2.61494
2.5248
2.43499
2.34569
2.25709
2.16935
2.08264
1.99709
1.91284
1.83001
1.74869
1.669
1.59101
1.5148
1.44044
1.36799
1.2975
1.22901
1.16256
1.09817
1.03587
0.975671
0.917579
0.861601
0.807735
0.755974
0.706307
0.658719
0.61319
0.569699
0.528218
0.488718
0.451168
0.415531
0.38177
0.349847
0.31972
0.291344
0.264675
0.239667
0.216271
0.194439
0.17412
0.155262
0.137815
0.121725
0.10694
0.0934039
0.0810641
0.0698656
0.0597534
0.0506721
0.0425663
0.0353805
0.0290588
0.0235456
0.0187849
0.0147209
0.0112976
0.00845917
0.0061498
0.00431363
0.00289487
0.00183776
0.00108658
0.00058566
0.000279347
0.00011202
2.80755e-05
)
;
    }
    frontAndBack
    {
        type            empty;
    }
}


// ************************************************************************* //
