/*--------------------------------*- C++ -*----------------------------------*\
| =========                 |                                                 |
| \\      /  F ield         | OpenFOAM: The Open Source CFD Toolbox           |
|  \\    /   O peration     | Version:  2312                                  |
|   \\  /    A nd           | Website:  www.openfoam.com                      |
|    \\/     M anipulation  |                                                 |
\*---------------------------------------------------------------------------*/
FoamFile
{
    version     2.0;
    format      ascii;
    arch        "LSB;label=32;scalar=64";
    class       volVectorField;
    location    "0.644";
    object      U;
}
// * * * * * * * * * * * * * * * * * * * * * * * * * * * * * * * * * * * * * //

dimensions      [0 1 -1 0 0 0 0];

internalField   nonuniform List<vector> 
31205
(
(100.081 0 0)
(100.318 0 0)
(100.869 0 0)
(101.704 0 0)
(102.79 0 0)
(104.092 0 0)
(105.575 0 0)
(107.209 0 0)
(108.964 0 0)
(110.817 0 0)
(112.746 0 0)
(114.736 0 0)
(116.772 0 0)
(118.841 0 0)
(120.935 0 0)
(123.045 0 0)
(125.165 0 0)
(127.29 0 0)
(129.415 0 0)
(131.537 0 0)
(133.653 0 0)
(135.762 0 0)
(137.86 0 0)
(139.947 0 0)
(142.021 0 0)
(144.081 0 0)
(146.127 0 0)
(148.158 0 0)
(150.174 0 0)
(152.174 0 0)
(154.157 0 0)
(156.125 0 0)
(158.076 0 0)
(160.011 0 0)
(161.929 0 0)
(163.831 0 0)
(165.716 0 0)
(167.585 0 0)
(169.438 0 0)
(171.275 0 0)
(173.095 0 0)
(174.9 0 0)
(176.689 0 0)
(178.463 0 0)
(180.221 0 0)
(181.964 0 0)
(183.691 0 0)
(185.404 0 0)
(187.101 0 0)
(188.784 0 0)
(190.452 0 0)
(192.106 0 0)
(193.745 0 0)
(195.371 0 0)
(196.982 0 0)
(198.579 0 0)
(200.162 0 0)
(201.732 0 0)
(203.288 0 0)
(204.831 0 0)
(206.361 0 0)
(207.877 0 0)
(209.381 0 0)
(210.871 0 0)
(212.349 0 0)
(213.814 0 0)
(215.266 0 0)
(216.706 0 0)
(218.133 0 0)
(219.548 0 0)
(220.951 0 0)
(222.341 0 0)
(223.72 0 0)
(225.085 0 0)
(226.444 0 0)
(227.772 0 0)
(229.15 0 0)
(230.323 0 0)
(232.077 0 0)
(100.273 0 0)
(100.776 0 0)
(101.553 0 0)
(102.574 0 0)
(103.805 0 0)
(105.216 0 0)
(106.775 0 0)
(108.456 0 0)
(110.237 0 0)
(112.096 0 0)
(114.017 0 0)
(115.987 0 0)
(117.992 0 0)
(120.024 0 0)
(122.075 0 0)
(124.138 0 0)
(126.207 0 0)
(128.279 0 0)
(130.35 0 0)
(132.417 0 0)
(134.478 0 0)
(136.53 0 0)
(138.572 0 0)
(140.602 0 0)
(142.621 0 0)
(144.626 0 0)
(146.617 0 0)
(148.594 0 0)
(150.556 0 0)
(152.503 0 0)
(154.435 0 0)
(156.352 0 0)
(158.252 0 0)
(160.138 0 0)
(162.007 0 0)
(163.861 0 0)
(165.7 0 0)
(167.522 0 0)
(169.33 0 0)
(171.122 0 0)
(172.899 0 0)
(174.66 0 0)
(176.407 0 0)
(178.138 0 0)
(179.855 0 0)
(181.558 0 0)
(183.245 0 0)
(184.919 0 0)
(186.578 0 0)
(188.223 0 0)
(189.854 0 0)
(191.471 0 0)
(193.074 0 0)
(194.664 0 0)
(196.24 0 0)
(197.803 0 0)
(199.352 0 0)
(200.889 0 0)
(202.413 0 0)
(203.923 0 0)
(205.421 0 0)
(206.906 0 0)
(208.379 0 0)
(209.839 0 0)
(211.287 0 0)
(212.722 0 0)
(214.146 0 0)
(215.557 0 0)
(216.956 0 0)
(218.344 0 0)
(219.719 0 0)
(221.083 0 0)
(222.436 0 0)
(223.775 0 0)
(225.109 0 0)
(226.411 0 0)
(227.763 0 0)
(228.919 0 0)
(230.628 0 0)
(100.75 0 0)
(101.488 0 0)
(102.459 0 0)
(103.633 0 0)
(104.98 0 0)
(106.474 0 0)
(108.088 0 0)
(109.8 0 0)
(111.592 0 0)
(113.447 0 0)
(115.351 0 0)
(117.293 0 0)
(119.264 0 0)
(121.255 0 0)
(123.26 0 0)
(125.274 0 0)
(127.292 0 0)
(129.31 0 0)
(131.326 0 0)
(133.338 0 0)
(135.342 0 0)
(137.338 0 0)
(139.324 0 0)
(141.299 0 0)
(143.262 0 0)
(145.212 0 0)
(147.149 0 0)
(149.072 0 0)
(150.982 0 0)
(152.877 0 0)
(154.758 0 0)
(156.623 0 0)
(158.475 0 0)
(160.311 0 0)
(162.132 0 0)
(163.939 0 0)
(165.731 0 0)
(167.508 0 0)
(169.271 0 0)
(171.018 0 0)
(172.752 0 0)
(174.471 0 0)
(176.175 0 0)
(177.866 0 0)
(179.542 0 0)
(181.204 0 0)
(182.853 0 0)
(184.488 0 0)
(186.109 0 0)
(187.716 0 0)
(189.31 0 0)
(190.891 0 0)
(192.459 0 0)
(194.014 0 0)
(195.555 0 0)
(197.084 0 0)
(198.6 0 0)
(200.104 0 0)
(201.595 0 0)
(203.074 0 0)
(204.54 0 0)
(205.995 0 0)
(207.437 0 0)
(208.867 0 0)
(210.285 0 0)
(211.692 0 0)
(213.086 0 0)
(214.469 0 0)
(215.841 0 0)
(217.201 0 0)
(218.55 0 0)
(219.887 0 0)
(221.213 0 0)
(222.527 0 0)
(223.835 0 0)
(225.114 0 0)
(226.439 0 0)
(227.577 0 0)
(229.246 0 0)
(101.469 0 0)
(102.402 0 0)
(103.529 0 0)
(104.823 0 0)
(106.259 0 0)
(107.812 0 0)
(109.462 0 0)
(111.191 0 0)
(112.983 0 0)
(114.825 0 0)
(116.706 0 0)
(118.617 0 0)
(120.549 0 0)
(122.498 0 0)
(124.456 0 0)
(126.42 0 0)
(128.387 0 0)
(130.352 0 0)
(132.314 0 0)
(134.271 0 0)
(136.221 0 0)
(138.162 0 0)
(140.093 0 0)
(142.013 0 0)
(143.922 0 0)
(145.819 0 0)
(147.703 0 0)
(149.575 0 0)
(151.433 0 0)
(153.277 0 0)
(155.108 0 0)
(156.924 0 0)
(158.727 0 0)
(160.516 0 0)
(162.29 0 0)
(164.051 0 0)
(165.797 0 0)
(167.53 0 0)
(169.248 0 0)
(170.953 0 0)
(172.644 0 0)
(174.321 0 0)
(175.984 0 0)
(177.634 0 0)
(179.271 0 0)
(180.894 0 0)
(182.504 0 0)
(184.101 0 0)
(185.685 0 0)
(187.256 0 0)
(188.814 0 0)
(190.359 0 0)
(191.892 0 0)
(193.412 0 0)
(194.92 0 0)
(196.415 0 0)
(197.898 0 0)
(199.37 0 0)
(200.829 0 0)
(202.276 0 0)
(203.711 0 0)
(205.135 0 0)
(206.547 0 0)
(207.948 0 0)
(209.337 0 0)
(210.715 0 0)
(212.081 0 0)
(213.436 0 0)
(214.78 0 0)
(216.113 0 0)
(217.435 0 0)
(218.746 0 0)
(220.046 0 0)
(221.334 0 0)
(222.617 0 0)
(223.872 0 0)
(225.171 0 0)
(226.289 0 0)
(227.921 0 0)
(102.382 0 0)
(103.471 0 0)
(104.719 0 0)
(106.103 0 0)
(107.601 0 0)
(109.193 0 0)
(110.863 0 0)
(112.595 0 0)
(114.378 0 0)
(116.201 0 0)
(118.053 0 0)
(119.929 0 0)
(121.822 0 0)
(123.727 0 0)
(125.638 0 0)
(127.553 0 0)
(129.469 0 0)
(131.382 0 0)
(133.292 0 0)
(135.195 0 0)
(137.091 0 0)
(138.979 0 0)
(140.857 0 0)
(142.725 0 0)
(144.581 0 0)
(146.426 0 0)
(148.259 0 0)
(150.08 0 0)
(151.888 0 0)
(153.683 0 0)
(155.465 0 0)
(157.234 0 0)
(158.99 0 0)
(160.732 0 0)
(162.461 0 0)
(164.177 0 0)
(165.879 0 0)
(167.568 0 0)
(169.244 0 0)
(170.907 0 0)
(172.556 0 0)
(174.193 0 0)
(175.816 0 0)
(177.427 0 0)
(179.024 0 0)
(180.609 0 0)
(182.182 0 0)
(183.742 0 0)
(185.289 0 0)
(186.824 0 0)
(188.347 0 0)
(189.857 0 0)
(191.355 0 0)
(192.842 0 0)
(194.316 0 0)
(195.779 0 0)
(197.23 0 0)
(198.669 0 0)
(200.097 0 0)
(201.514 0 0)
(202.918 0 0)
(204.312 0 0)
(205.695 0 0)
(207.066 0 0)
(208.426 0 0)
(209.775 0 0)
(211.114 0 0)
(212.441 0 0)
(213.758 0 0)
(215.064 0 0)
(216.36 0 0)
(217.644 0 0)
(218.919 0 0)
(220.182 0 0)
(221.44 0 0)
(222.67 0 0)
(223.944 0 0)
(225.041 0 0)
(226.638 0 0)
(103.446 0 0)
(104.654 0 0)
(105.991 0 0)
(107.439 0 0)
(108.978 0 0)
(110.592 0 0)
(112.269 0 0)
(113.995 0 0)
(115.761 0 0)
(117.558 0 0)
(119.379 0 0)
(121.218 0 0)
(123.069 0 0)
(124.929 0 0)
(126.794 0 0)
(128.66 0 0)
(130.526 0 0)
(132.388 0 0)
(134.246 0 0)
(136.098 0 0)
(137.942 0 0)
(139.778 0 0)
(141.605 0 0)
(143.421 0 0)
(145.227 0 0)
(147.022 0 0)
(148.806 0 0)
(150.578 0 0)
(152.337 0 0)
(154.085 0 0)
(155.82 0 0)
(157.543 0 0)
(159.253 0 0)
(160.95 0 0)
(162.635 0 0)
(164.307 0 0)
(165.967 0 0)
(167.614 0 0)
(169.248 0 0)
(170.87 0 0)
(172.479 0 0)
(174.076 0 0)
(175.661 0 0)
(177.233 0 0)
(178.793 0 0)
(180.34 0 0)
(181.876 0 0)
(183.4 0 0)
(184.912 0 0)
(186.411 0 0)
(187.9 0 0)
(189.376 0 0)
(190.841 0 0)
(192.294 0 0)
(193.736 0 0)
(195.167 0 0)
(196.586 0 0)
(197.994 0 0)
(199.391 0 0)
(200.777 0 0)
(202.152 0 0)
(203.516 0 0)
(204.87 0 0)
(206.212 0 0)
(207.544 0 0)
(208.865 0 0)
(210.176 0 0)
(211.476 0 0)
(212.766 0 0)
(214.046 0 0)
(215.315 0 0)
(216.574 0 0)
(217.824 0 0)
(219.061 0 0)
(220.294 0 0)
(221.5 0 0)
(222.749 0 0)
(223.826 0 0)
(225.389 0 0)
(104.623 0 0)
(105.919 0 0)
(107.32 0 0)
(108.809 0 0)
(110.372 0 0)
(111.995 0 0)
(113.667 0 0)
(115.379 0 0)
(117.122 0 0)
(118.89 0 0)
(120.676 0 0)
(122.476 0 0)
(124.285 0 0)
(126.1 0 0)
(127.918 0 0)
(129.736 0 0)
(131.553 0 0)
(133.365 0 0)
(135.173 0 0)
(136.975 0 0)
(138.769 0 0)
(140.555 0 0)
(142.332 0 0)
(144.099 0 0)
(145.856 0 0)
(147.603 0 0)
(149.338 0 0)
(151.063 0 0)
(152.776 0 0)
(154.477 0 0)
(156.167 0 0)
(157.845 0 0)
(159.511 0 0)
(161.165 0 0)
(162.807 0 0)
(164.437 0 0)
(166.055 0 0)
(167.661 0 0)
(169.255 0 0)
(170.837 0 0)
(172.408 0 0)
(173.966 0 0)
(175.512 0 0)
(177.047 0 0)
(178.57 0 0)
(180.082 0 0)
(181.582 0 0)
(183.071 0 0)
(184.548 0 0)
(186.013 0 0)
(187.468 0 0)
(188.911 0 0)
(190.343 0 0)
(191.764 0 0)
(193.174 0 0)
(194.574 0 0)
(195.962 0 0)
(197.339 0 0)
(198.706 0 0)
(200.062 0 0)
(201.408 0 0)
(202.743 0 0)
(204.068 0 0)
(205.382 0 0)
(206.686 0 0)
(207.98 0 0)
(209.264 0 0)
(210.537 0 0)
(211.801 0 0)
(213.054 0 0)
(214.298 0 0)
(215.531 0 0)
(216.755 0 0)
(217.968 0 0)
(219.177 0 0)
(220.359 0 0)
(221.582 0 0)
(222.639 0 0)
(224.169 0 0)
(105.882 0 0)
(107.24 0 0)
(108.683 0 0)
(110.196 0 0)
(111.769 0 0)
(113.389 0 0)
(115.049 0 0)
(116.741 0 0)
(118.457 0 0)
(120.192 0 0)
(121.941 0 0)
(123.701 0 0)
(125.467 0 0)
(127.238 0 0)
(129.009 0 0)
(130.78 0 0)
(132.549 0 0)
(134.313 0 0)
(136.072 0 0)
(137.825 0 0)
(139.57 0 0)
(141.308 0 0)
(143.036 0 0)
(144.756 0 0)
(146.466 0 0)
(148.165 0 0)
(149.855 0 0)
(151.534 0 0)
(153.201 0 0)
(154.858 0 0)
(156.504 0 0)
(158.139 0 0)
(159.762 0 0)
(161.374 0 0)
(162.975 0 0)
(164.564 0 0)
(166.142 0 0)
(167.708 0 0)
(169.263 0 0)
(170.807 0 0)
(172.339 0 0)
(173.86 0 0)
(175.37 0 0)
(176.868 0 0)
(178.356 0 0)
(179.832 0 0)
(181.297 0 0)
(182.752 0 0)
(184.195 0 0)
(185.627 0 0)
(187.049 0 0)
(188.46 0 0)
(189.86 0 0)
(191.25 0 0)
(192.629 0 0)
(193.997 0 0)
(195.355 0 0)
(196.703 0 0)
(198.04 0 0)
(199.367 0 0)
(200.684 0 0)
(201.991 0 0)
(203.288 0 0)
(204.574 0 0)
(205.851 0 0)
(207.118 0 0)
(208.375 0 0)
(209.622 0 0)
(210.859 0 0)
(212.087 0 0)
(213.305 0 0)
(214.514 0 0)
(215.713 0 0)
(216.901 0 0)
(218.086 0 0)
(219.244 0 0)
(220.443 0 0)
(221.48 0 0)
(222.977 0 0)
(107.197 0 0)
(108.596 0 0)
(110.064 0 0)
(111.588 0 0)
(113.159 0 0)
(114.769 0 0)
(116.41 0 0)
(118.076 0 0)
(119.762 0 0)
(121.462 0 0)
(123.173 0 0)
(124.892 0 0)
(126.616 0 0)
(128.342 0 0)
(130.068 0 0)
(131.792 0 0)
(133.514 0 0)
(135.231 0 0)
(136.942 0 0)
(138.648 0 0)
(140.346 0 0)
(142.036 0 0)
(143.719 0 0)
(145.392 0 0)
(147.056 0 0)
(148.71 0 0)
(150.355 0 0)
(151.99 0 0)
(153.614 0 0)
(155.228 0 0)
(156.831 0 0)
(158.424 0 0)
(160.006 0 0)
(161.577 0 0)
(163.138 0 0)
(164.687 0 0)
(166.226 0 0)
(167.754 0 0)
(169.271 0 0)
(170.777 0 0)
(172.273 0 0)
(173.758 0 0)
(175.232 0 0)
(176.695 0 0)
(178.148 0 0)
(179.59 0 0)
(181.021 0 0)
(182.442 0 0)
(183.852 0 0)
(185.252 0 0)
(186.642 0 0)
(188.021 0 0)
(189.39 0 0)
(190.749 0 0)
(192.098 0 0)
(193.436 0 0)
(194.765 0 0)
(196.083 0 0)
(197.392 0 0)
(198.69 0 0)
(199.979 0 0)
(201.258 0 0)
(202.527 0 0)
(203.787 0 0)
(205.037 0 0)
(206.277 0 0)
(207.508 0 0)
(208.729 0 0)
(209.941 0 0)
(211.144 0 0)
(212.337 0 0)
(213.521 0 0)
(214.696 0 0)
(215.86 0 0)
(217.02 0 0)
(218.156 0 0)
(219.331 0 0)
(220.348 0 0)
(221.812 0 0)
(108.548 0 0)
(109.972 0 0)
(111.45 0 0)
(112.974 0 0)
(114.536 0 0)
(116.129 0 0)
(117.746 0 0)
(119.383 0 0)
(121.036 0 0)
(122.7 0 0)
(124.372 0 0)
(126.05 0 0)
(127.73 0 0)
(129.412 0 0)
(131.094 0 0)
(132.773 0 0)
(134.448 0 0)
(136.119 0 0)
(137.785 0 0)
(139.445 0 0)
(141.097 0 0)
(142.742 0 0)
(144.379 0 0)
(146.008 0 0)
(147.627 0 0)
(149.238 0 0)
(150.84 0 0)
(152.431 0 0)
(154.014 0 0)
(155.586 0 0)
(157.148 0 0)
(158.7 0 0)
(160.242 0 0)
(161.774 0 0)
(163.296 0 0)
(164.807 0 0)
(166.308 0 0)
(167.799 0 0)
(169.279 0 0)
(170.749 0 0)
(172.209 0 0)
(173.658 0 0)
(175.098 0 0)
(176.527 0 0)
(177.946 0 0)
(179.354 0 0)
(180.753 0 0)
(182.141 0 0)
(183.52 0 0)
(184.888 0 0)
(186.247 0 0)
(187.595 0 0)
(188.934 0 0)
(190.263 0 0)
(191.582 0 0)
(192.891 0 0)
(194.19 0 0)
(195.48 0 0)
(196.761 0 0)
(198.031 0 0)
(199.293 0 0)
(200.545 0 0)
(201.787 0 0)
(203.02 0 0)
(204.244 0 0)
(205.458 0 0)
(206.663 0 0)
(207.859 0 0)
(209.046 0 0)
(210.224 0 0)
(211.393 0 0)
(212.552 0 0)
(213.703 0 0)
(214.844 0 0)
(215.98 0 0)
(217.093 0 0)
(218.244 0 0)
(219.241 0 0)
(220.674 0 0)
(109.918 0 0)
(111.353 0 0)
(112.832 0 0)
(114.348 0 0)
(115.894 0 0)
(117.464 0 0)
(119.054 0 0)
(120.66 0 0)
(122.278 0 0)
(123.904 0 0)
(125.537 0 0)
(127.174 0 0)
(128.812 0 0)
(130.451 0 0)
(132.088 0 0)
(133.723 0 0)
(135.354 0 0)
(136.98 0 0)
(138.601 0 0)
(140.216 0 0)
(141.824 0 0)
(143.425 0 0)
(145.019 0 0)
(146.604 0 0)
(148.181 0 0)
(149.749 0 0)
(151.309 0 0)
(152.859 0 0)
(154.401 0 0)
(155.933 0 0)
(157.455 0 0)
(158.968 0 0)
(160.472 0 0)
(161.965 0 0)
(163.449 0 0)
(164.923 0 0)
(166.388 0 0)
(167.842 0 0)
(169.287 0 0)
(170.722 0 0)
(172.147 0 0)
(173.562 0 0)
(174.968 0 0)
(176.363 0 0)
(177.749 0 0)
(179.126 0 0)
(180.492 0 0)
(181.849 0 0)
(183.196 0 0)
(184.534 0 0)
(185.862 0 0)
(187.181 0 0)
(188.49 0 0)
(189.789 0 0)
(191.079 0 0)
(192.36 0 0)
(193.632 0 0)
(194.894 0 0)
(196.147 0 0)
(197.39 0 0)
(198.624 0 0)
(199.85 0 0)
(201.066 0 0)
(202.273 0 0)
(203.471 0 0)
(204.66 0 0)
(205.84 0 0)
(207.011 0 0)
(208.173 0 0)
(209.327 0 0)
(210.471 0 0)
(211.607 0 0)
(212.735 0 0)
(213.852 0 0)
(214.965 0 0)
(216.055 0 0)
(217.183 0 0)
(218.161 0 0)
(219.562 0 0)
(111.294 0 0)
(112.73 0 0)
(114.201 0 0)
(115.702 0 0)
(117.227 0 0)
(118.772 0 0)
(120.332 0 0)
(121.905 0 0)
(123.487 0 0)
(125.076 0 0)
(126.669 0 0)
(128.264 0 0)
(129.861 0 0)
(131.457 0 0)
(133.051 0 0)
(134.643 0 0)
(136.23 0 0)
(137.813 0 0)
(139.391 0 0)
(140.963 0 0)
(142.528 0 0)
(144.087 0 0)
(145.638 0 0)
(147.181 0 0)
(148.717 0 0)
(150.244 0 0)
(151.764 0 0)
(153.274 0 0)
(154.776 0 0)
(156.269 0 0)
(157.753 0 0)
(159.228 0 0)
(160.694 0 0)
(162.15 0 0)
(163.598 0 0)
(165.036 0 0)
(166.465 0 0)
(167.884 0 0)
(169.294 0 0)
(170.695 0 0)
(172.087 0 0)
(173.469 0 0)
(174.842 0 0)
(176.205 0 0)
(177.559 0 0)
(178.904 0 0)
(180.239 0 0)
(181.565 0 0)
(182.882 0 0)
(184.19 0 0)
(185.489 0 0)
(186.778 0 0)
(188.058 0 0)
(189.329 0 0)
(190.591 0 0)
(191.844 0 0)
(193.088 0 0)
(194.323 0 0)
(195.549 0 0)
(196.766 0 0)
(197.974 0 0)
(199.173 0 0)
(200.364 0 0)
(201.545 0 0)
(202.718 0 0)
(203.882 0 0)
(205.038 0 0)
(206.184 0 0)
(207.322 0 0)
(208.452 0 0)
(209.573 0 0)
(210.685 0 0)
(211.79 0 0)
(212.884 0 0)
(213.975 0 0)
(215.043 0 0)
(216.147 0 0)
(217.106 0 0)
(218.476 0 0)
(112.667 0 0)
(114.096 0 0)
(115.553 0 0)
(117.034 0 0)
(118.534 0 0)
(120.051 0 0)
(121.579 0 0)
(123.118 0 0)
(124.663 0 0)
(126.214 0 0)
(127.767 0 0)
(129.323 0 0)
(130.878 0 0)
(132.432 0 0)
(133.985 0 0)
(135.534 0 0)
(137.079 0 0)
(138.62 0 0)
(140.156 0 0)
(141.686 0 0)
(143.21 0 0)
(144.727 0 0)
(146.237 0 0)
(147.741 0 0)
(149.236 0 0)
(150.724 0 0)
(152.204 0 0)
(153.676 0 0)
(155.14 0 0)
(156.595 0 0)
(158.042 0 0)
(159.48 0 0)
(160.909 0 0)
(162.33 0 0)
(163.742 0 0)
(165.145 0 0)
(166.54 0 0)
(167.925 0 0)
(169.302 0 0)
(170.67 0 0)
(172.029 0 0)
(173.378 0 0)
(174.719 0 0)
(176.051 0 0)
(177.374 0 0)
(178.688 0 0)
(179.994 0 0)
(181.29 0 0)
(182.577 0 0)
(183.856 0 0)
(185.126 0 0)
(186.387 0 0)
(187.639 0 0)
(188.882 0 0)
(190.116 0 0)
(191.342 0 0)
(192.559 0 0)
(193.768 0 0)
(194.967 0 0)
(196.158 0 0)
(197.341 0 0)
(198.515 0 0)
(199.68 0 0)
(200.837 0 0)
(201.985 0 0)
(203.125 0 0)
(204.256 0 0)
(205.379 0 0)
(206.493 0 0)
(207.599 0 0)
(208.697 0 0)
(209.787 0 0)
(210.868 0 0)
(211.94 0 0)
(213.009 0 0)
(214.055 0 0)
(215.136 0 0)
(216.077 0 0)
(217.416 0 0)
(114.028 0 0)
(115.443 0 0)
(116.882 0 0)
(118.339 0 0)
(119.813 0 0)
(121.298 0 0)
(122.794 0 0)
(124.297 0 0)
(125.806 0 0)
(127.319 0 0)
(128.833 0 0)
(130.349 0 0)
(131.864 0 0)
(133.378 0 0)
(134.889 0 0)
(136.397 0 0)
(137.902 0 0)
(139.402 0 0)
(140.897 0 0)
(142.386 0 0)
(143.87 0 0)
(145.347 0 0)
(146.818 0 0)
(148.282 0 0)
(149.739 0 0)
(151.189 0 0)
(152.631 0 0)
(154.065 0 0)
(155.492 0 0)
(156.911 0 0)
(158.321 0 0)
(159.724 0 0)
(161.118 0 0)
(162.505 0 0)
(163.882 0 0)
(165.252 0 0)
(166.613 0 0)
(167.965 0 0)
(169.31 0 0)
(170.645 0 0)
(171.972 0 0)
(173.291 0 0)
(174.601 0 0)
(175.902 0 0)
(177.195 0 0)
(178.48 0 0)
(179.755 0 0)
(181.023 0 0)
(182.281 0 0)
(183.532 0 0)
(184.773 0 0)
(186.006 0 0)
(187.231 0 0)
(188.447 0 0)
(189.655 0 0)
(190.854 0 0)
(192.045 0 0)
(193.228 0 0)
(194.402 0 0)
(195.567 0 0)
(196.725 0 0)
(197.874 0 0)
(199.014 0 0)
(200.147 0 0)
(201.271 0 0)
(202.387 0 0)
(203.494 0 0)
(204.594 0 0)
(205.685 0 0)
(206.768 0 0)
(207.844 0 0)
(208.911 0 0)
(209.97 0 0)
(211.02 0 0)
(212.066 0 0)
(213.091 0 0)
(214.149 0 0)
(215.072 0 0)
(216.381 0 0)
(115.371 0 0)
(116.769 0 0)
(118.185 0 0)
(119.616 0 0)
(121.06 0 0)
(122.514 0 0)
(123.976 0 0)
(125.444 0 0)
(126.916 0 0)
(128.391 0 0)
(129.867 0 0)
(131.343 0 0)
(132.819 0 0)
(134.293 0 0)
(135.765 0 0)
(137.233 0 0)
(138.698 0 0)
(140.158 0 0)
(141.614 0 0)
(143.064 0 0)
(144.509 0 0)
(145.948 0 0)
(147.38 0 0)
(148.807 0 0)
(150.226 0 0)
(151.639 0 0)
(153.044 0 0)
(154.443 0 0)
(155.833 0 0)
(157.217 0 0)
(158.593 0 0)
(159.961 0 0)
(161.321 0 0)
(162.674 0 0)
(164.018 0 0)
(165.355 0 0)
(166.684 0 0)
(168.004 0 0)
(169.317 0 0)
(170.621 0 0)
(171.918 0 0)
(173.206 0 0)
(174.486 0 0)
(175.758 0 0)
(177.021 0 0)
(178.277 0 0)
(179.524 0 0)
(180.763 0 0)
(181.994 0 0)
(183.216 0 0)
(184.431 0 0)
(185.637 0 0)
(186.835 0 0)
(188.025 0 0)
(189.206 0 0)
(190.38 0 0)
(191.545 0 0)
(192.702 0 0)
(193.851 0 0)
(194.992 0 0)
(196.125 0 0)
(197.25 0 0)
(198.366 0 0)
(199.475 0 0)
(200.576 0 0)
(201.668 0 0)
(202.753 0 0)
(203.829 0 0)
(204.898 0 0)
(205.959 0 0)
(207.012 0 0)
(208.056 0 0)
(209.094 0 0)
(210.122 0 0)
(211.147 0 0)
(212.151 0 0)
(213.187 0 0)
(214.091 0 0)
(215.371 0 0)
(116.693 0 0)
(118.068 0 0)
(119.459 0 0)
(120.862 0 0)
(122.276 0 0)
(123.697 0 0)
(125.125 0 0)
(126.558 0 0)
(127.993 0 0)
(129.431 0 0)
(130.869 0 0)
(132.308 0 0)
(133.745 0 0)
(135.18 0 0)
(136.613 0 0)
(138.043 0 0)
(139.469 0 0)
(140.891 0 0)
(142.308 0 0)
(143.721 0 0)
(145.128 0 0)
(146.529 0 0)
(147.925 0 0)
(149.315 0 0)
(150.698 0 0)
(152.075 0 0)
(153.445 0 0)
(154.808 0 0)
(156.165 0 0)
(157.514 0 0)
(158.856 0 0)
(160.191 0 0)
(161.518 0 0)
(162.838 0 0)
(164.151 0 0)
(165.456 0 0)
(166.753 0 0)
(168.042 0 0)
(169.324 0 0)
(170.599 0 0)
(171.865 0 0)
(173.124 0 0)
(174.375 0 0)
(175.618 0 0)
(176.853 0 0)
(178.08 0 0)
(179.299 0 0)
(180.511 0 0)
(181.715 0 0)
(182.91 0 0)
(184.098 0 0)
(185.278 0 0)
(186.45 0 0)
(187.614 0 0)
(188.77 0 0)
(189.919 0 0)
(191.059 0 0)
(192.191 0 0)
(193.316 0 0)
(194.433 0 0)
(195.542 0 0)
(196.643 0 0)
(197.736 0 0)
(198.821 0 0)
(199.899 0 0)
(200.969 0 0)
(202.031 0 0)
(203.085 0 0)
(204.131 0 0)
(205.17 0 0)
(206.201 0 0)
(207.224 0 0)
(208.24 0 0)
(209.247 0 0)
(210.25 0 0)
(211.234 0 0)
(212.248 0 0)
(213.135 0 0)
(214.385 0 0)
(117.989 0 0)
(119.34 0 0)
(120.704 0 0)
(122.078 0 0)
(123.46 0 0)
(124.848 0 0)
(126.242 0 0)
(127.639 0 0)
(129.038 0 0)
(130.439 0 0)
(131.841 0 0)
(133.242 0 0)
(134.641 0 0)
(136.039 0 0)
(137.434 0 0)
(138.827 0 0)
(140.215 0 0)
(141.6 0 0)
(142.981 0 0)
(144.356 0 0)
(145.727 0 0)
(147.093 0 0)
(148.453 0 0)
(149.807 0 0)
(151.155 0 0)
(152.497 0 0)
(153.833 0 0)
(155.163 0 0)
(156.485 0 0)
(157.802 0 0)
(159.111 0 0)
(160.414 0 0)
(161.709 0 0)
(162.997 0 0)
(164.279 0 0)
(165.553 0 0)
(166.82 0 0)
(168.08 0 0)
(169.332 0 0)
(170.577 0 0)
(171.814 0 0)
(173.044 0 0)
(174.267 0 0)
(175.482 0 0)
(176.689 0 0)
(177.889 0 0)
(179.082 0 0)
(180.266 0 0)
(181.444 0 0)
(182.613 0 0)
(183.775 0 0)
(184.929 0 0)
(186.076 0 0)
(187.215 0 0)
(188.346 0 0)
(189.47 0 0)
(190.586 0 0)
(191.695 0 0)
(192.796 0 0)
(193.889 0 0)
(194.974 0 0)
(196.052 0 0)
(197.122 0 0)
(198.185 0 0)
(199.24 0 0)
(200.287 0 0)
(201.327 0 0)
(202.36 0 0)
(203.384 0 0)
(204.401 0 0)
(205.411 0 0)
(206.413 0 0)
(207.408 0 0)
(208.394 0 0)
(209.377 0 0)
(210.34 0 0)
(211.333 0 0)
(212.202 0 0)
(213.424 0 0)
(119.257 0 0)
(120.582 0 0)
(121.917 0 0)
(123.261 0 0)
(124.611 0 0)
(125.966 0 0)
(127.326 0 0)
(128.688 0 0)
(130.052 0 0)
(131.417 0 0)
(132.782 0 0)
(134.147 0 0)
(135.51 0 0)
(136.871 0 0)
(138.23 0 0)
(139.586 0 0)
(140.938 0 0)
(142.287 0 0)
(143.632 0 0)
(144.972 0 0)
(146.308 0 0)
(147.638 0 0)
(148.964 0 0)
(150.284 0 0)
(151.598 0 0)
(152.907 0 0)
(154.209 0 0)
(155.506 0 0)
(156.797 0 0)
(158.081 0 0)
(159.358 0 0)
(160.63 0 0)
(161.894 0 0)
(163.152 0 0)
(164.403 0 0)
(165.648 0 0)
(166.885 0 0)
(168.116 0 0)
(169.339 0 0)
(170.556 0 0)
(171.765 0 0)
(172.967 0 0)
(174.162 0 0)
(175.35 0 0)
(176.531 0 0)
(177.704 0 0)
(178.87 0 0)
(180.029 0 0)
(181.18 0 0)
(182.325 0 0)
(183.461 0 0)
(184.591 0 0)
(185.713 0 0)
(186.827 0 0)
(187.935 0 0)
(189.034 0 0)
(190.127 0 0)
(191.212 0 0)
(192.289 0 0)
(193.359 0 0)
(194.422 0 0)
(195.477 0 0)
(196.525 0 0)
(197.566 0 0)
(198.599 0 0)
(199.624 0 0)
(200.643 0 0)
(201.653 0 0)
(202.657 0 0)
(203.653 0 0)
(204.642 0 0)
(205.623 0 0)
(206.597 0 0)
(207.563 0 0)
(208.525 0 0)
(209.468 0 0)
(210.44 0 0)
(211.292 0 0)
(212.486 0 0)
(120.496 0 0)
(121.793 0 0)
(123.099 0 0)
(124.411 0 0)
(125.729 0 0)
(127.052 0 0)
(128.377 0 0)
(129.705 0 0)
(131.035 0 0)
(132.365 0 0)
(133.694 0 0)
(135.023 0 0)
(136.351 0 0)
(137.677 0 0)
(139 0 0)
(140.321 0 0)
(141.638 0 0)
(142.952 0 0)
(144.262 0 0)
(145.568 0 0)
(146.87 0 0)
(148.166 0 0)
(149.458 0 0)
(150.745 0 0)
(152.027 0 0)
(153.303 0 0)
(154.574 0 0)
(155.839 0 0)
(157.098 0 0)
(158.351 0 0)
(159.598 0 0)
(160.839 0 0)
(162.074 0 0)
(163.302 0 0)
(164.524 0 0)
(165.74 0 0)
(166.949 0 0)
(168.151 0 0)
(169.346 0 0)
(170.535 0 0)
(171.717 0 0)
(172.893 0 0)
(174.061 0 0)
(175.222 0 0)
(176.377 0 0)
(177.524 0 0)
(178.665 0 0)
(179.799 0 0)
(180.925 0 0)
(182.044 0 0)
(183.157 0 0)
(184.262 0 0)
(185.36 0 0)
(186.451 0 0)
(187.534 0 0)
(188.611 0 0)
(189.68 0 0)
(190.742 0 0)
(191.797 0 0)
(192.845 0 0)
(193.885 0 0)
(194.918 0 0)
(195.944 0 0)
(196.963 0 0)
(197.975 0 0)
(198.979 0 0)
(199.976 0 0)
(200.966 0 0)
(201.948 0 0)
(202.924 0 0)
(203.892 0 0)
(204.853 0 0)
(205.807 0 0)
(206.753 0 0)
(207.695 0 0)
(208.618 0 0)
(209.57 0 0)
(210.406 0 0)
(211.572 0 0)
(121.703 0 0)
(122.972 0 0)
(124.248 0 0)
(125.529 0 0)
(126.816 0 0)
(128.105 0 0)
(129.398 0 0)
(130.692 0 0)
(131.987 0 0)
(133.283 0 0)
(134.578 0 0)
(135.872 0 0)
(137.166 0 0)
(138.457 0 0)
(139.746 0 0)
(141.032 0 0)
(142.316 0 0)
(143.596 0 0)
(144.873 0 0)
(146.145 0 0)
(147.414 0 0)
(148.678 0 0)
(149.938 0 0)
(151.193 0 0)
(152.443 0 0)
(153.688 0 0)
(154.927 0 0)
(156.162 0 0)
(157.39 0 0)
(158.614 0 0)
(159.831 0 0)
(161.043 0 0)
(162.248 0 0)
(163.448 0 0)
(164.642 0 0)
(165.829 0 0)
(167.01 0 0)
(168.185 0 0)
(169.354 0 0)
(170.516 0 0)
(171.671 0 0)
(172.82 0 0)
(173.963 0 0)
(175.099 0 0)
(176.228 0 0)
(177.35 0 0)
(178.466 0 0)
(179.575 0 0)
(180.677 0 0)
(181.772 0 0)
(182.861 0 0)
(183.942 0 0)
(185.017 0 0)
(186.085 0 0)
(187.145 0 0)
(188.199 0 0)
(189.246 0 0)
(190.286 0 0)
(191.319 0 0)
(192.344 0 0)
(193.363 0 0)
(194.375 0 0)
(195.379 0 0)
(196.377 0 0)
(197.367 0 0)
(198.351 0 0)
(199.327 0 0)
(200.297 0 0)
(201.259 0 0)
(202.214 0 0)
(203.162 0 0)
(204.103 0 0)
(205.037 0 0)
(205.963 0 0)
(206.886 0 0)
(207.79 0 0)
(208.722 0 0)
(209.541 0 0)
(210.68 0 0)
(122.88 0 0)
(124.119 0 0)
(125.365 0 0)
(126.615 0 0)
(127.87 0 0)
(129.127 0 0)
(130.387 0 0)
(131.648 0 0)
(132.91 0 0)
(134.172 0 0)
(135.434 0 0)
(136.695 0 0)
(137.954 0 0)
(139.212 0 0)
(140.468 0 0)
(141.721 0 0)
(142.972 0 0)
(144.22 0 0)
(145.464 0 0)
(146.704 0 0)
(147.941 0 0)
(149.174 0 0)
(150.402 0 0)
(151.626 0 0)
(152.845 0 0)
(154.06 0 0)
(155.27 0 0)
(156.474 0 0)
(157.674 0 0)
(158.868 0 0)
(160.057 0 0)
(161.24 0 0)
(162.418 0 0)
(163.589 0 0)
(164.756 0 0)
(165.916 0 0)
(167.07 0 0)
(168.218 0 0)
(169.361 0 0)
(170.497 0 0)
(171.627 0 0)
(172.75 0 0)
(173.868 0 0)
(174.978 0 0)
(176.083 0 0)
(177.181 0 0)
(178.273 0 0)
(179.358 0 0)
(180.436 0 0)
(181.508 0 0)
(182.573 0 0)
(183.632 0 0)
(184.684 0 0)
(185.729 0 0)
(186.767 0 0)
(187.799 0 0)
(188.824 0 0)
(189.842 0 0)
(190.853 0 0)
(191.858 0 0)
(192.855 0 0)
(193.846 0 0)
(194.83 0 0)
(195.807 0 0)
(196.776 0 0)
(197.74 0 0)
(198.696 0 0)
(199.645 0 0)
(200.587 0 0)
(201.523 0 0)
(202.451 0 0)
(203.373 0 0)
(204.287 0 0)
(205.194 0 0)
(206.098 0 0)
(206.983 0 0)
(207.895 0 0)
(208.698 0 0)
(209.811 0 0)
(124.024 0 0)
(125.234 0 0)
(126.45 0 0)
(127.67 0 0)
(128.893 0 0)
(130.118 0 0)
(131.346 0 0)
(132.574 0 0)
(133.804 0 0)
(135.033 0 0)
(136.263 0 0)
(137.491 0 0)
(138.718 0 0)
(139.944 0 0)
(141.167 0 0)
(142.389 0 0)
(143.607 0 0)
(144.823 0 0)
(146.036 0 0)
(147.246 0 0)
(148.452 0 0)
(149.654 0 0)
(150.852 0 0)
(152.046 0 0)
(153.236 0 0)
(154.421 0 0)
(155.602 0 0)
(156.777 0 0)
(157.949 0 0)
(159.115 0 0)
(160.276 0 0)
(161.431 0 0)
(162.582 0 0)
(163.727 0 0)
(164.866 0 0)
(166 0 0)
(167.128 0 0)
(168.251 0 0)
(169.368 0 0)
(170.479 0 0)
(171.584 0 0)
(172.682 0 0)
(173.775 0 0)
(174.862 0 0)
(175.943 0 0)
(177.017 0 0)
(178.085 0 0)
(179.147 0 0)
(180.203 0 0)
(181.252 0 0)
(182.294 0 0)
(183.331 0 0)
(184.36 0 0)
(185.384 0 0)
(186.4 0 0)
(187.41 0 0)
(188.414 0 0)
(189.411 0 0)
(190.401 0 0)
(191.384 0 0)
(192.361 0 0)
(193.332 0 0)
(194.295 0 0)
(195.252 0 0)
(196.202 0 0)
(197.145 0 0)
(198.081 0 0)
(199.011 0 0)
(199.934 0 0)
(200.85 0 0)
(201.759 0 0)
(202.661 0 0)
(203.557 0 0)
(204.445 0 0)
(205.33 0 0)
(206.197 0 0)
(207.09 0 0)
(207.877 0 0)
(208.963 0 0)
(125.136 0 0)
(126.318 0 0)
(127.503 0 0)
(128.692 0 0)
(129.885 0 0)
(131.079 0 0)
(132.275 0 0)
(133.472 0 0)
(134.67 0 0)
(135.868 0 0)
(137.065 0 0)
(138.262 0 0)
(139.458 0 0)
(140.652 0 0)
(141.844 0 0)
(143.035 0 0)
(144.223 0 0)
(145.408 0 0)
(146.59 0 0)
(147.77 0 0)
(148.946 0 0)
(150.119 0 0)
(151.288 0 0)
(152.453 0 0)
(153.614 0 0)
(154.771 0 0)
(155.923 0 0)
(157.071 0 0)
(158.215 0 0)
(159.354 0 0)
(160.488 0 0)
(161.617 0 0)
(162.741 0 0)
(163.86 0 0)
(164.974 0 0)
(166.082 0 0)
(167.185 0 0)
(168.283 0 0)
(169.375 0 0)
(170.461 0 0)
(171.542 0 0)
(172.617 0 0)
(173.686 0 0)
(174.749 0 0)
(175.807 0 0)
(176.858 0 0)
(177.903 0 0)
(178.943 0 0)
(179.976 0 0)
(181.003 0 0)
(182.023 0 0)
(183.038 0 0)
(184.046 0 0)
(185.048 0 0)
(186.043 0 0)
(187.033 0 0)
(188.015 0 0)
(188.992 0 0)
(189.961 0 0)
(190.924 0 0)
(191.881 0 0)
(192.831 0 0)
(193.775 0 0)
(194.712 0 0)
(195.642 0 0)
(196.566 0 0)
(197.483 0 0)
(198.394 0 0)
(199.298 0 0)
(200.195 0 0)
(201.085 0 0)
(201.969 0 0)
(202.846 0 0)
(203.716 0 0)
(204.582 0 0)
(205.432 0 0)
(206.305 0 0)
(207.077 0 0)
(208.138 0 0)
(126.217 0 0)
(127.369 0 0)
(128.525 0 0)
(129.684 0 0)
(130.846 0 0)
(132.01 0 0)
(133.175 0 0)
(134.342 0 0)
(135.509 0 0)
(136.676 0 0)
(137.843 0 0)
(139.009 0 0)
(140.174 0 0)
(141.338 0 0)
(142.5 0 0)
(143.66 0 0)
(144.818 0 0)
(145.974 0 0)
(147.127 0 0)
(148.278 0 0)
(149.425 0 0)
(150.569 0 0)
(151.71 0 0)
(152.847 0 0)
(153.98 0 0)
(155.109 0 0)
(156.235 0 0)
(157.356 0 0)
(158.473 0 0)
(159.586 0 0)
(160.694 0 0)
(161.797 0 0)
(162.895 0 0)
(163.989 0 0)
(165.078 0 0)
(166.162 0 0)
(167.24 0 0)
(168.314 0 0)
(169.382 0 0)
(170.444 0 0)
(171.502 0 0)
(172.553 0 0)
(173.599 0 0)
(174.64 0 0)
(175.675 0 0)
(176.704 0 0)
(177.727 0 0)
(178.744 0 0)
(179.756 0 0)
(180.761 0 0)
(181.76 0 0)
(182.754 0 0)
(183.741 0 0)
(184.722 0 0)
(185.697 0 0)
(186.666 0 0)
(187.628 0 0)
(188.584 0 0)
(189.534 0 0)
(190.477 0 0)
(191.414 0 0)
(192.345 0 0)
(193.269 0 0)
(194.187 0 0)
(195.098 0 0)
(196.003 0 0)
(196.901 0 0)
(197.793 0 0)
(198.678 0 0)
(199.557 0 0)
(200.429 0 0)
(201.295 0 0)
(202.154 0 0)
(203.006 0 0)
(203.854 0 0)
(204.686 0 0)
(205.541 0 0)
(206.297 0 0)
(207.333 0 0)
(127.266 0 0)
(128.389 0 0)
(129.516 0 0)
(130.646 0 0)
(131.778 0 0)
(132.912 0 0)
(134.048 0 0)
(135.184 0 0)
(136.321 0 0)
(137.458 0 0)
(138.595 0 0)
(139.732 0 0)
(140.867 0 0)
(142.002 0 0)
(143.135 0 0)
(144.266 0 0)
(145.395 0 0)
(146.522 0 0)
(147.647 0 0)
(148.769 0 0)
(149.889 0 0)
(151.005 0 0)
(152.119 0 0)
(153.229 0 0)
(154.335 0 0)
(155.438 0 0)
(156.537 0 0)
(157.632 0 0)
(158.723 0 0)
(159.81 0 0)
(160.893 0 0)
(161.971 0 0)
(163.045 0 0)
(164.115 0 0)
(165.179 0 0)
(166.239 0 0)
(167.294 0 0)
(168.344 0 0)
(169.388 0 0)
(170.428 0 0)
(171.462 0 0)
(172.492 0 0)
(173.515 0 0)
(174.534 0 0)
(175.547 0 0)
(176.554 0 0)
(177.556 0 0)
(178.552 0 0)
(179.542 0 0)
(180.526 0 0)
(181.505 0 0)
(182.478 0 0)
(183.445 0 0)
(184.405 0 0)
(185.36 0 0)
(186.309 0 0)
(187.252 0 0)
(188.188 0 0)
(189.118 0 0)
(190.043 0 0)
(190.961 0 0)
(191.872 0 0)
(192.777 0 0)
(193.676 0 0)
(194.569 0 0)
(195.455 0 0)
(196.335 0 0)
(197.209 0 0)
(198.076 0 0)
(198.937 0 0)
(199.791 0 0)
(200.638 0 0)
(201.48 0 0)
(202.314 0 0)
(203.144 0 0)
(203.959 0 0)
(204.796 0 0)
(205.537 0 0)
(206.549 0 0)
(128.283 0 0)
(129.379 0 0)
(130.477 0 0)
(131.578 0 0)
(132.681 0 0)
(133.786 0 0)
(134.893 0 0)
(136 0 0)
(137.108 0 0)
(138.216 0 0)
(139.324 0 0)
(140.432 0 0)
(141.538 0 0)
(142.644 0 0)
(143.749 0 0)
(144.852 0 0)
(145.954 0 0)
(147.053 0 0)
(148.151 0 0)
(149.246 0 0)
(150.338 0 0)
(151.428 0 0)
(152.515 0 0)
(153.598 0 0)
(154.679 0 0)
(155.756 0 0)
(156.83 0 0)
(157.9 0 0)
(158.966 0 0)
(160.028 0 0)
(161.087 0 0)
(162.141 0 0)
(163.191 0 0)
(164.236 0 0)
(165.277 0 0)
(166.314 0 0)
(167.346 0 0)
(168.373 0 0)
(169.395 0 0)
(170.412 0 0)
(171.425 0 0)
(172.432 0 0)
(173.434 0 0)
(174.431 0 0)
(175.423 0 0)
(176.409 0 0)
(177.389 0 0)
(178.365 0 0)
(179.334 0 0)
(180.299 0 0)
(181.257 0 0)
(182.21 0 0)
(183.157 0 0)
(184.098 0 0)
(185.033 0 0)
(185.963 0 0)
(186.886 0 0)
(187.803 0 0)
(188.715 0 0)
(189.62 0 0)
(190.519 0 0)
(191.412 0 0)
(192.299 0 0)
(193.18 0 0)
(194.055 0 0)
(194.923 0 0)
(195.785 0 0)
(196.64 0 0)
(197.49 0 0)
(198.333 0 0)
(199.169 0 0)
(200 0 0)
(200.824 0 0)
(201.64 0 0)
(202.454 0 0)
(203.252 0 0)
(204.071 0 0)
(204.797 0 0)
(205.785 0 0)
(129.271 0 0)
(130.338 0 0)
(131.408 0 0)
(132.481 0 0)
(133.556 0 0)
(134.633 0 0)
(135.711 0 0)
(136.79 0 0)
(137.87 0 0)
(138.95 0 0)
(140.03 0 0)
(141.109 0 0)
(142.188 0 0)
(143.267 0 0)
(144.344 0 0)
(145.42 0 0)
(146.495 0 0)
(147.567 0 0)
(148.638 0 0)
(149.707 0 0)
(150.773 0 0)
(151.837 0 0)
(152.898 0 0)
(153.957 0 0)
(155.012 0 0)
(156.065 0 0)
(157.114 0 0)
(158.159 0 0)
(159.201 0 0)
(160.24 0 0)
(161.274 0 0)
(162.305 0 0)
(163.332 0 0)
(164.354 0 0)
(165.373 0 0)
(166.387 0 0)
(167.396 0 0)
(168.401 0 0)
(169.402 0 0)
(170.397 0 0)