/*--------------------------------*- C++ -*----------------------------------*\
| =========                 |                                                 |
| \\      /  F ield         | OpenFOAM: The Open Source CFD Toolbox           |
|  \\    /   O peration     | Version:  2312                                  |
|   \\  /    A nd           | Website:  www.openfoam.com                      |
|    \\/     M anipulation  |                                                 |
\*---------------------------------------------------------------------------*/
FoamFile
{
    version     2.0;
    format      ascii;
    arch        "LSB;label=32;scalar=64";
    class       volVectorField;
    location    "0.233";
    object      U;
}
// * * * * * * * * * * * * * * * * * * * * * * * * * * * * * * * * * * * * * //

dimensions      [0 1 -1 0 0 0 0];

internalField   nonuniform List<vector> 
31205
(
(103.299 0 0)
(104.86 0 0)
(106.616 0 0)
(108.53 0 0)
(110.569 0 0)
(112.707 0 0)
(114.919 0 0)
(117.186 0 0)
(119.492 0 0)
(121.824 0 0)
(124.172 0 0)
(126.528 0 0)
(128.885 0 0)
(131.237 0 0)
(133.581 0 0)
(135.914 0 0)
(138.232 0 0)
(140.534 0 0)
(142.817 0 0)
(145.082 0 0)
(147.327 0 0)
(149.551 0 0)
(151.754 0 0)
(153.935 0 0)
(156.095 0 0)
(158.233 0 0)
(160.35 0 0)
(162.444 0 0)
(164.518 0 0)
(166.569 0 0)
(168.6 0 0)
(170.609 0 0)
(172.598 0 0)
(174.566 0 0)
(176.514 0 0)
(178.441 0 0)
(180.349 0 0)
(182.238 0 0)
(184.107 0 0)
(185.957 0 0)
(187.788 0 0)
(189.6 0 0)
(191.395 0 0)
(193.171 0 0)
(194.929 0 0)
(196.67 0 0)
(198.393 0 0)
(200.1 0 0)
(201.789 0 0)
(203.461 0 0)
(205.117 0 0)
(206.757 0 0)
(208.38 0 0)
(209.988 0 0)
(211.579 0 0)
(213.155 0 0)
(214.716 0 0)
(216.261 0 0)
(217.791 0 0)
(219.306 0 0)
(220.806 0 0)
(222.291 0 0)
(223.761 0 0)
(225.218 0 0)
(226.659 0 0)
(228.087 0 0)
(229.5 0 0)
(230.9 0 0)
(232.285 0 0)
(233.657 0 0)
(235.015 0 0)
(236.359 0 0)
(237.69 0 0)
(239.006 0 0)
(240.314 0 0)
(241.59 0 0)
(242.913 0 0)
(244.038 0 0)
(245.714 0 0)
(104.7 0 0)
(106.39 0 0)
(108.235 0 0)
(110.204 0 0)
(112.27 0 0)
(114.411 0 0)
(116.608 0 0)
(118.846 0 0)
(121.112 0 0)
(123.396 0 0)
(125.69 0 0)
(127.987 0 0)
(130.282 0 0)
(132.57 0 0)
(134.849 0 0)
(137.115 0 0)
(139.366 0 0)
(141.602 0 0)
(143.82 0 0)
(146.019 0 0)
(148.199 0 0)
(150.36 0 0)
(152.5 0 0)
(154.62 0 0)
(156.719 0 0)
(158.798 0 0)
(160.856 0 0)
(162.893 0 0)
(164.91 0 0)
(166.907 0 0)
(168.884 0 0)
(170.841 0 0)
(172.778 0 0)
(174.695 0 0)
(176.593 0 0)
(178.472 0 0)
(180.332 0 0)
(182.174 0 0)
(183.997 0 0)
(185.802 0 0)
(187.589 0 0)
(189.359 0 0)
(191.111 0 0)
(192.846 0 0)
(194.563 0 0)
(196.264 0 0)
(197.949 0 0)
(199.616 0 0)
(201.268 0 0)
(202.903 0 0)
(204.523 0 0)
(206.127 0 0)
(207.716 0 0)
(209.289 0 0)
(210.847 0 0)
(212.39 0 0)
(213.918 0 0)
(215.431 0 0)
(216.93 0 0)
(218.414 0 0)
(219.884 0 0)
(221.34 0 0)
(222.781 0 0)
(224.209 0 0)
(225.623 0 0)
(227.024 0 0)
(228.41 0 0)
(229.783 0 0)
(231.143 0 0)
(232.49 0 0)
(233.823 0 0)
(235.143 0 0)
(236.45 0 0)
(237.743 0 0)
(239.029 0 0)
(240.283 0 0)
(241.582 0 0)
(242.692 0 0)
(244.329 0 0)
(106.308 0 0)
(108.092 0 0)
(109.996 0 0)
(111.995 0 0)
(114.068 0 0)
(116.197 0 0)
(118.368 0 0)
(120.568 0 0)
(122.788 0 0)
(125.019 0 0)
(127.254 0 0)
(129.49 0 0)
(131.721 0 0)
(133.944 0 0)
(136.156 0 0)
(138.356 0 0)
(140.541 0 0)
(142.71 0 0)
(144.862 0 0)
(146.996 0 0)
(149.112 0 0)
(151.21 0 0)
(153.288 0 0)
(155.347 0 0)
(157.386 0 0)
(159.406 0 0)
(161.406 0 0)
(163.387 0 0)
(165.349 0 0)
(167.291 0 0)
(169.215 0 0)
(171.119 0 0)
(173.005 0 0)
(174.872 0 0)
(176.722 0 0)
(178.552 0 0)
(180.366 0 0)
(182.161 0 0)
(183.939 0 0)
(185.7 0 0)
(187.443 0 0)
(189.17 0 0)
(190.88 0 0)
(192.574 0 0)
(194.251 0 0)
(195.913 0 0)
(197.558 0 0)
(199.188 0 0)
(200.802 0 0)
(202.401 0 0)
(203.985 0 0)
(205.554 0 0)
(207.108 0 0)
(208.647 0 0)
(210.171 0 0)
(211.681 0 0)
(213.177 0 0)
(214.659 0 0)
(216.127 0 0)
(217.581 0 0)
(219.021 0 0)
(220.448 0 0)
(221.861 0 0)
(223.26 0 0)
(224.647 0 0)
(226.02 0 0)
(227.38 0 0)
(228.727 0 0)
(230.061 0 0)
(231.382 0 0)
(232.691 0 0)
(233.987 0 0)
(235.271 0 0)
(236.54 0 0)
(237.803 0 0)
(239.036 0 0)
(240.311 0 0)
(241.406 0 0)
(243.006 0 0)
(108.043 0 0)
(109.888 0 0)
(111.826 0 0)
(113.835 0 0)
(115.9 0 0)
(118.006 0 0)
(120.142 0 0)
(122.299 0 0)
(124.468 0 0)
(126.644 0 0)
(128.82 0 0)
(130.994 0 0)
(133.162 0 0)
(135.32 0 0)
(137.467 0 0)
(139.602 0 0)
(141.722 0 0)
(143.826 0 0)
(145.914 0 0)
(147.985 0 0)
(150.039 0 0)
(152.074 0 0)
(154.092 0 0)
(156.091 0 0)
(158.072 0 0)
(160.035 0 0)
(161.979 0 0)
(163.905 0 0)
(165.813 0 0)
(167.702 0 0)
(169.574 0 0)
(171.427 0 0)
(173.263 0 0)
(175.082 0 0)
(176.883 0 0)
(178.667 0 0)
(180.434 0 0)
(182.184 0 0)
(183.918 0 0)
(185.635 0 0)
(187.336 0 0)
(189.021 0 0)
(190.69 0 0)
(192.343 0 0)
(193.981 0 0)
(195.604 0 0)
(197.211 0 0)
(198.804 0 0)
(200.381 0 0)
(201.944 0 0)
(203.493 0 0)
(205.027 0 0)
(206.547 0 0)
(208.052 0 0)
(209.544 0 0)
(211.022 0 0)
(212.486 0 0)
(213.937 0 0)
(215.374 0 0)
(216.798 0 0)
(218.209 0 0)
(219.606 0 0)
(220.991 0 0)
(222.362 0 0)
(223.721 0 0)
(225.067 0 0)
(226.401 0 0)
(227.722 0 0)
(229.03 0 0)
(230.327 0 0)
(231.611 0 0)
(232.882 0 0)
(234.143 0 0)
(235.389 0 0)
(236.629 0 0)
(237.84 0 0)
(239.092 0 0)
(240.169 0 0)
(241.736 0 0)
(109.849 0 0)
(111.729 0 0)
(113.679 0 0)
(115.682 0 0)
(117.727 0 0)
(119.801 0 0)
(121.897 0 0)
(124.006 0 0)
(126.122 0 0)
(128.241 0 0)
(130.359 0 0)
(132.472 0 0)
(134.577 0 0)
(136.672 0 0)
(138.756 0 0)
(140.827 0 0)
(142.883 0 0)
(144.925 0 0)
(146.951 0 0)
(148.961 0 0)
(150.954 0 0)
(152.931 0 0)
(154.89 0 0)
(156.832 0 0)
(158.756 0 0)
(160.664 0 0)
(162.553 0 0)
(164.426 0 0)
(166.281 0 0)
(168.119 0 0)
(169.94 0 0)
(171.745 0 0)
(173.532 0 0)
(175.303 0 0)
(177.058 0 0)
(178.796 0 0)
(180.518 0 0)
(182.224 0 0)
(183.915 0 0)
(185.59 0 0)
(187.249 0 0)
(188.893 0 0)
(190.522 0 0)
(192.137 0 0)
(193.736 0 0)
(195.321 0 0)
(196.891 0 0)
(198.447 0 0)
(199.989 0 0)
(201.516 0 0)
(203.03 0 0)
(204.53 0 0)
(206.016 0 0)
(207.489 0 0)
(208.949 0 0)
(210.395 0 0)
(211.828 0 0)
(213.248 0 0)
(214.655 0 0)
(216.049 0 0)
(217.431 0 0)
(218.799 0 0)
(220.156 0 0)
(221.5 0 0)
(222.832 0 0)
(224.151 0 0)
(225.458 0 0)
(226.753 0 0)
(228.037 0 0)
(229.308 0 0)
(230.568 0 0)
(231.815 0 0)
(233.052 0 0)
(234.275 0 0)
(235.492 0 0)
(236.681 0 0)
(237.91 0 0)
(238.969 0 0)
(240.505 0 0)
(111.688 0 0)
(113.582 0 0)
(115.527 0 0)
(117.512 0 0)
(119.527 0 0)
(121.564 0 0)
(123.614 0 0)
(125.673 0 0)
(127.736 0 0)
(129.798 0 0)
(131.857 0 0)
(133.909 0 0)
(135.953 0 0)
(137.987 0 0)
(140.009 0 0)
(142.019 0 0)
(144.014 0 0)
(145.996 0 0)
(147.962 0 0)
(149.913 0 0)
(151.848 0 0)
(153.767 0 0)
(155.67 0 0)
(157.556 0 0)
(159.426 0 0)
(161.28 0 0)
(163.117 0 0)
(164.938 0 0)
(166.743 0 0)
(168.531 0 0)
(170.304 0 0)
(172.06 0 0)
(173.801 0 0)
(175.526 0 0)
(177.235 0 0)
(178.929 0 0)
(180.608 0 0)
(182.271 0 0)
(183.92 0 0)
(185.554 0 0)
(187.173 0 0)
(188.777 0 0)
(190.367 0 0)
(191.943 0 0)
(193.505 0 0)
(195.053 0 0)
(196.587 0 0)
(198.107 0 0)
(199.614 0 0)
(201.107 0 0)
(202.587 0 0)
(204.054 0 0)
(205.507 0 0)
(206.948 0 0)
(208.376 0 0)
(209.791 0 0)
(211.193 0 0)
(212.583 0 0)
(213.96 0 0)
(215.326 0 0)
(216.678 0 0)
(218.019 0 0)
(219.348 0 0)
(220.665 0 0)
(221.969 0 0)
(223.262 0 0)
(224.544 0 0)
(225.813 0 0)
(227.072 0 0)
(228.318 0 0)
(229.554 0 0)
(230.777 0 0)
(231.991 0 0)
(233.191 0 0)
(234.385 0 0)
(235.552 0 0)
(236.759 0 0)
(237.799 0 0)
(239.304 0 0)
(113.536 0 0)
(115.426 0 0)
(117.355 0 0)
(119.312 0 0)
(121.291 0 0)
(123.285 0 0)
(125.288 0 0)
(127.295 0 0)
(129.303 0 0)
(131.309 0 0)
(133.309 0 0)
(135.302 0 0)
(137.287 0 0)
(139.261 0 0)
(141.223 0 0)
(143.173 0 0)
(145.11 0 0)
(147.033 0 0)
(148.942 0 0)
(150.836 0 0)
(152.715 0 0)
(154.578 0 0)
(156.427 0 0)
(158.26 0 0)
(160.077 0 0)
(161.88 0 0)
(163.666 0 0)
(165.437 0 0)
(167.193 0 0)
(168.934 0 0)
(170.659 0 0)
(172.369 0 0)
(174.065 0 0)
(175.745 0 0)
(177.411 0 0)
(179.062 0 0)
(180.698 0 0)
(182.32 0 0)
(183.928 0 0)
(185.522 0 0)
(187.102 0 0)
(188.668 0 0)
(190.22 0 0)
(191.759 0 0)
(193.284 0 0)
(194.796 0 0)
(196.294 0 0)
(197.78 0 0)
(199.252 0 0)
(200.712 0 0)
(202.159 0 0)
(203.593 0 0)
(205.015 0 0)
(206.424 0 0)
(207.821 0 0)
(209.205 0 0)
(210.578 0 0)
(211.938 0 0)
(213.286 0 0)
(214.623 0 0)
(215.948 0 0)
(217.261 0 0)
(218.562 0 0)
(219.852 0 0)
(221.13 0 0)
(222.397 0 0)
(223.653 0 0)
(224.898 0 0)
(226.131 0 0)
(227.353 0 0)
(228.565 0 0)
(229.765 0 0)
(230.955 0 0)
(232.132 0 0)
(233.304 0 0)
(234.449 0 0)
(235.633 0 0)
(236.655 0 0)
(238.13 0 0)
(115.375 0 0)
(117.249 0 0)
(119.151 0 0)
(121.075 0 0)
(123.013 0 0)
(124.961 0 0)
(126.914 0 0)
(128.869 0 0)
(130.822 0 0)
(132.771 0 0)
(134.714 0 0)
(136.65 0 0)
(138.576 0 0)
(140.492 0 0)
(142.397 0 0)
(144.289 0 0)
(146.169 0 0)
(148.036 0 0)
(149.889 0 0)
(151.728 0 0)
(153.553 0 0)
(155.364 0 0)
(157.16 0 0)
(158.941 0 0)
(160.708 0 0)
(162.46 0 0)
(164.198 0 0)
(165.921 0 0)
(167.63 0 0)
(169.324 0 0)
(171.004 0 0)
(172.67 0 0)
(174.321 0 0)
(175.958 0 0)
(177.582 0 0)
(179.191 0 0)
(180.787 0 0)
(182.369 0 0)
(183.937 0 0)
(185.492 0 0)
(187.034 0 0)
(188.562 0 0)
(190.078 0 0)
(191.58 0 0)
(193.07 0 0)
(194.547 0 0)
(196.011 0 0)
(197.463 0 0)
(198.902 0 0)
(200.329 0 0)
(201.743 0 0)
(203.146 0 0)
(204.536 0 0)
(205.915 0 0)
(207.281 0 0)
(208.636 0 0)
(209.979 0 0)
(211.31 0 0)
(212.63 0 0)
(213.939 0 0)
(215.236 0 0)
(216.522 0 0)
(217.797 0 0)
(219.06 0 0)
(220.313 0 0)
(221.554 0 0)
(222.785 0 0)
(224.004 0 0)
(225.213 0 0)
(226.412 0 0)
(227.599 0 0)
(228.776 0 0)
(229.943 0 0)
(231.098 0 0)
(232.247 0 0)
(233.371 0 0)
(234.532 0 0)
(235.536 0 0)
(236.981 0 0)
(117.192 0 0)
(119.041 0 0)
(120.91 0 0)
(122.795 0 0)
(124.689 0 0)
(126.589 0 0)
(128.491 0 0)
(130.393 0 0)
(132.292 0 0)
(134.186 0 0)
(136.073 0 0)
(137.952 0 0)
(139.822 0 0)
(141.682 0 0)
(143.531 0 0)
(145.368 0 0)
(147.193 0 0)
(149.005 0 0)
(150.804 0 0)
(152.591 0 0)
(154.363 0 0)
(156.123 0 0)
(157.868 0 0)
(159.6 0 0)
(161.318 0 0)
(163.023 0 0)
(164.713 0 0)
(166.39 0 0)
(168.053 0 0)
(169.703 0 0)
(171.339 0 0)
(172.961 0 0)
(174.57 0 0)
(176.165 0 0)
(177.748 0 0)
(179.317 0 0)
(180.873 0 0)
(182.416 0 0)
(183.946 0 0)
(185.464 0 0)
(186.968 0 0)
(188.461 0 0)
(189.94 0 0)
(191.408 0 0)
(192.863 0 0)
(194.305 0 0)
(195.736 0 0)
(197.155 0 0)
(198.561 0 0)
(199.956 0 0)
(201.339 0 0)
(202.711 0 0)
(204.071 0 0)
(205.419 0 0)
(206.756 0 0)
(208.082 0 0)
(209.396 0 0)
(210.7 0 0)
(211.992 0 0)
(213.273 0 0)
(214.543 0 0)
(215.802 0 0)
(217.05 0 0)
(218.288 0 0)
(219.515 0 0)
(220.732 0 0)
(221.937 0 0)
(223.133 0 0)
(224.318 0 0)
(225.492 0 0)
(226.657 0 0)
(227.81 0 0)
(228.955 0 0)
(230.087 0 0)
(231.214 0 0)
(232.317 0 0)
(233.455 0 0)
(234.441 0 0)
(235.857 0 0)
(118.979 0 0)
(120.796 0 0)
(122.628 0 0)
(124.47 0 0)
(126.318 0 0)
(128.169 0 0)
(130.02 0 0)
(131.87 0 0)
(133.715 0 0)
(135.554 0 0)
(137.387 0 0)
(139.211 0 0)
(141.026 0 0)
(142.832 0 0)
(144.626 0 0)
(146.41 0 0)
(148.182 0 0)
(149.942 0 0)
(151.689 0 0)
(153.424 0 0)
(155.147 0 0)
(156.857 0 0)
(158.554 0 0)
(160.238 0 0)
(161.909 0 0)
(163.567 0 0)
(165.212 0 0)
(166.844 0 0)
(168.463 0 0)
(170.069 0 0)
(171.663 0 0)
(173.243 0 0)
(174.811 0 0)
(176.366 0 0)
(177.909 0 0)
(179.439 0 0)
(180.957 0 0)
(182.462 0 0)
(183.955 0 0)
(185.436 0 0)
(186.905 0 0)
(188.362 0 0)
(189.807 0 0)
(191.24 0 0)
(192.661 0 0)
(194.071 0 0)
(195.469 0 0)
(196.855 0 0)
(198.231 0 0)
(199.594 0 0)
(200.947 0 0)
(202.288 0 0)
(203.618 0 0)
(204.937 0 0)
(206.246 0 0)
(207.543 0 0)
(208.829 0 0)
(210.105 0 0)
(211.37 0 0)
(212.624 0 0)
(213.867 0 0)
(215.101 0 0)
(216.323 0 0)
(217.536 0 0)
(218.738 0 0)
(219.929 0 0)
(221.111 0 0)
(222.282 0 0)
(223.444 0 0)
(224.595 0 0)
(225.736 0 0)
(226.867 0 0)
(227.989 0 0)
(229.1 0 0)
(230.205 0 0)
(231.286 0 0)
(232.403 0 0)
(233.371 0 0)
(234.757 0 0)
(120.729 0 0)
(122.51 0 0)
(124.301 0 0)
(126.098 0 0)
(127.899 0 0)
(129.701 0 0)
(131.501 0 0)
(133.299 0 0)
(135.091 0 0)
(136.878 0 0)
(138.657 0 0)
(140.428 0 0)
(142.19 0 0)
(143.942 0 0)
(145.685 0 0)
(147.416 0 0)
(149.137 0 0)
(150.847 0 0)
(152.544 0 0)
(154.23 0 0)
(155.905 0 0)
(157.567 0 0)
(159.217 0 0)
(160.854 0 0)
(162.48 0 0)
(164.093 0 0)
(165.694 0 0)
(167.283 0 0)
(168.86 0 0)
(170.424 0 0)
(171.977 0 0)
(173.517 0 0)
(175.045 0 0)
(176.561 0 0)
(178.065 0 0)
(179.557 0 0)
(181.038 0 0)
(182.507 0 0)
(183.964 0 0)
(185.409 0 0)
(186.843 0 0)
(188.266 0 0)
(189.677 0 0)
(191.077 0 0)
(192.466 0 0)
(193.843 0 0)
(195.209 0 0)
(196.565 0 0)
(197.909 0 0)
(199.243 0 0)
(200.565 0 0)
(201.877 0 0)
(203.178 0 0)
(204.469 0 0)
(205.749 0 0)
(207.018 0 0)
(208.277 0 0)
(209.526 0 0)
(210.764 0 0)
(211.992 0 0)
(213.21 0 0)
(214.417 0 0)
(215.615 0 0)
(216.802 0 0)
(217.98 0 0)
(219.147 0 0)
(220.305 0 0)
(221.453 0 0)
(222.591 0 0)
(223.719 0 0)
(224.838 0 0)
(225.946 0 0)
(227.046 0 0)
(228.135 0 0)
(229.219 0 0)
(230.279 0 0)
(231.374 0 0)
(232.324 0 0)
(233.681 0 0)
(122.439 0 0)
(124.18 0 0)
(125.928 0 0)
(127.679 0 0)
(129.432 0 0)
(131.185 0 0)
(132.935 0 0)
(134.681 0 0)
(136.422 0 0)
(138.157 0 0)
(139.884 0 0)
(141.603 0 0)
(143.314 0 0)
(145.016 0 0)
(146.708 0 0)
(148.389 0 0)
(150.061 0 0)
(151.721 0 0)
(153.371 0 0)
(155.01 0 0)
(156.637 0 0)
(158.253 0 0)
(159.858 0 0)
(161.451 0 0)
(163.033 0 0)
(164.603 0 0)
(166.162 0 0)
(167.709 0 0)
(169.244 0 0)
(170.768 0 0)
(172.281 0 0)
(173.782 0 0)
(175.271 0 0)
(176.75 0 0)
(178.217 0 0)
(179.672 0 0)
(181.117 0 0)
(182.55 0 0)
(183.972 0 0)
(185.384 0 0)
(186.784 0 0)
(188.173 0 0)
(189.551 0 0)
(190.919 0 0)
(192.276 0 0)
(193.622 0 0)
(194.957 0 0)
(196.282 0 0)
(197.597 0 0)
(198.901 0 0)
(200.194 0 0)
(201.477 0 0)
(202.75 0 0)
(204.013 0 0)
(205.265 0 0)
(206.507 0 0)
(207.74 0 0)
(208.962 0 0)
(210.174 0 0)
(211.376 0 0)
(212.569 0 0)
(213.751 0 0)
(214.924 0 0)
(216.087 0 0)
(217.241 0 0)
(218.384 0 0)
(219.519 0 0)
(220.643 0 0)
(221.759 0 0)
(222.864 0 0)
(223.961 0 0)
(225.048 0 0)
(226.126 0 0)
(227.193 0 0)
(228.256 0 0)
(229.295 0 0)
(230.369 0 0)
(231.301 0 0)
(232.63 0 0)
(124.105 0 0)
(125.804 0 0)
(127.507 0 0)
(129.213 0 0)
(130.918 0 0)
(132.621 0 0)
(134.322 0 0)
(136.018 0 0)
(137.709 0 0)
(139.393 0 0)
(141.07 0 0)
(142.74 0 0)
(144.401 0 0)
(146.053 0 0)
(147.696 0 0)
(149.329 0 0)
(150.953 0 0)
(152.567 0 0)
(154.17 0 0)
(155.763 0 0)
(157.345 0 0)
(158.917 0 0)
(160.478 0 0)
(162.028 0 0)
(163.568 0 0)
(165.096 0 0)
(166.614 0 0)
(168.121 0 0)
(169.616 0 0)
(171.101 0 0)
(172.575 0 0)
(174.039 0 0)
(175.491 0 0)
(176.933 0 0)
(178.364 0 0)
(179.784 0 0)
(181.194 0 0)
(182.592 0 0)
(183.981 0 0)
(185.359 0 0)
(186.726 0 0)
(188.083 0 0)
(189.43 0 0)
(190.766 0 0)
(192.092 0 0)
(193.407 0 0)
(194.713 0 0)
(196.008 0 0)
(197.293 0 0)
(198.568 0 0)
(199.834 0 0)
(201.089 0 0)
(202.334 0 0)
(203.569 0 0)
(204.795 0 0)
(206.011 0 0)
(207.217 0 0)
(208.413 0 0)
(209.6 0 0)
(210.777 0 0)
(211.945 0 0)
(213.103 0 0)
(214.252 0 0)
(215.391 0 0)
(216.521 0 0)
(217.641 0 0)
(218.752 0 0)
(219.854 0 0)
(220.947 0 0)
(222.031 0 0)
(223.105 0 0)
(224.171 0 0)
(225.227 0 0)
(226.274 0 0)
(227.315 0 0)
(228.335 0 0)
(229.387 0 0)
(230.302 0 0)
(231.602 0 0)
(125.725 0 0)
(127.381 0 0)
(129.039 0 0)
(130.698 0 0)
(132.356 0 0)
(134.012 0 0)
(135.664 0 0)
(137.311 0 0)
(138.952 0 0)
(140.588 0 0)
(142.216 0 0)
(143.837 0 0)
(145.45 0 0)
(147.055 0 0)
(148.651 0 0)
(150.238 0 0)
(151.816 0 0)
(153.384 0 0)
(154.943 0 0)
(156.492 0 0)
(158.031 0 0)
(159.56 0 0)
(161.078 0 0)
(162.587 0 0)
(164.086 0 0)
(165.574 0 0)
(167.052 0 0)
(168.52 0 0)
(169.977 0 0)
(171.424 0 0)
(172.861 0 0)
(174.288 0 0)
(175.704 0 0)
(177.11 0 0)
(178.507 0 0)
(179.892 0 0)
(181.268 0 0)
(182.634 0 0)
(183.989 0 0)
(185.335 0 0)
(186.67 0 0)
(187.996 0 0)
(189.311 0 0)
(190.617 0 0)
(191.913 0 0)
(193.199 0 0)
(194.475 0 0)
(195.742 0 0)
(196.999 0 0)
(198.246 0 0)
(199.483 0 0)
(200.711 0 0)
(201.929 0 0)
(203.138 0 0)
(204.338 0 0)
(205.528 0 0)
(206.708 0 0)
(207.879 0 0)
(209.041 0 0)
(210.194 0 0)
(211.337 0 0)
(212.471 0 0)
(213.596 0 0)
(214.712 0 0)
(215.819 0 0)
(216.917 0 0)
(218.005 0 0)
(219.085 0 0)
(220.156 0 0)
(221.218 0 0)
(222.271 0 0)
(223.315 0 0)
(224.35 0 0)
(225.376 0 0)
(226.397 0 0)
(227.396 0 0)
(228.428 0 0)
(229.326 0 0)
(230.598 0 0)
(127.298 0 0)
(128.911 0 0)
(130.524 0 0)
(132.137 0 0)
(133.748 0 0)
(135.357 0 0)
(136.961 0 0)
(138.561 0 0)
(140.155 0 0)
(141.743 0 0)
(143.324 0 0)
(144.898 0 0)
(146.465 0 0)
(148.024 0 0)
(149.574 0 0)
(151.116 0 0)
(152.65 0 0)
(154.174 0 0)
(155.69 0 0)
(157.196 0 0)
(158.693 0 0)
(160.181 0 0)
(161.659 0 0)
(163.128 0 0)
(164.587 0 0)
(166.036 0 0)
(167.476 0 0)
(168.906 0 0)
(170.326 0 0)
(171.737 0 0)
(173.138 0 0)
(174.529 0 0)
(175.911 0 0)
(177.283 0 0)
(178.645 0 0)
(179.998 0 0)
(181.34 0 0)
(182.674 0 0)
(183.997 0 0)
(185.312 0 0)
(186.616 0 0)
(187.911 0 0)
(189.197 0 0)
(190.473 0 0)
(191.74 0 0)
(192.997 0 0)
(194.245 0 0)
(195.483 0 0)
(196.712 0 0)
(197.932 0 0)
(199.143 0 0)
(200.344 0 0)
(201.536 0 0)
(202.719 0 0)
(203.893 0 0)
(205.058 0 0)
(206.213 0 0)
(207.36 0 0)
(208.498 0 0)
(209.626 0 0)
(210.746 0 0)
(211.857 0 0)
(212.958 0 0)
(214.051 0 0)
(215.135 0 0)
(216.211 0 0)
(217.277 0 0)
(218.335 0 0)
(219.384 0 0)
(220.425 0 0)
(221.457 0 0)
(222.48 0 0)
(223.495 0 0)
(224.5 0 0)
(225.501 0 0)
(226.481 0 0)
(227.491 0 0)
(228.372 0 0)
(229.617 0 0)
(128.825 0 0)
(130.394 0 0)
(131.962 0 0)
(133.53 0 0)
(135.095 0 0)
(136.657 0 0)
(138.215 0 0)
(139.769 0 0)
(141.317 0 0)
(142.859 0 0)
(144.394 0 0)
(145.924 0 0)
(147.445 0 0)
(148.96 0 0)
(150.467 0 0)
(151.966 0 0)
(153.456 0 0)
(154.939 0 0)
(156.413 0 0)
(157.878 0 0)
(159.334 0 0)
(160.782 0 0)
(162.221 0 0)
(163.651 0 0)
(165.072 0 0)
(166.484 0 0)
(167.887 0 0)
(169.28 0 0)
(170.665 0 0)
(172.04 0 0)
(173.407 0 0)
(174.764 0 0)
(176.111 0 0)
(177.45 0 0)
(178.78 0 0)
(180.1 0 0)
(181.411 0 0)
(182.713 0 0)
(184.006 0 0)
(185.289 0 0)
(186.564 0 0)
(187.829 0 0)
(189.086 0 0)
(190.333 0 0)
(191.571 0 0)
(192.801 0 0)
(194.021 0 0)
(195.232 0 0)
(196.434 0 0)
(197.628 0 0)
(198.812 0 0)
(199.987 0 0)
(201.154 0 0)
(202.312 0 0)
(203.461 0 0)
(204.601 0 0)
(205.732 0 0)
(206.855 0 0)
(207.969 0 0)
(209.074 0 0)
(210.17 0 0)
(211.258 0 0)
(212.337 0 0)
(213.408 0 0)
(214.47 0 0)
(215.523 0 0)
(216.568 0 0)
(217.604 0 0)
(218.632 0 0)
(219.652 0 0)
(220.663 0 0)
(221.666 0 0)
(222.66 0 0)
(223.646 0 0)
(224.626 0 0)
(225.587 0 0)
(226.577 0 0)
(227.441 0 0)
(228.659 0 0)
(130.304 0 0)
(131.829 0 0)
(133.354 0 0)
(134.877 0 0)
(136.397 0 0)
(137.914 0 0)
(139.428 0 0)
(140.936 0 0)
(142.439 0 0)
(143.937 0 0)
(145.429 0 0)
(146.914 0 0)
(148.393 0 0)
(149.865 0 0)
(151.329 0 0)
(152.786 0 0)
(154.236 0 0)
(155.678 0 0)
(157.111 0 0)
(158.537 0 0)
(159.955 0 0)
(161.364 0 0)
(162.765 0 0)
(164.158 0 0)
(165.542 0 0)
(166.918 0 0)
(168.285 0 0)
(169.643 0 0)
(170.993 0 0)
(172.334 0 0)
(173.667 0 0)
(174.991 0 0)
(176.306 0 0)
(177.612 0 0)
(178.91 0 0)
(180.199 0 0)
(181.479 0 0)
(182.751 0 0)
(184.014 0 0)
(185.268 0 0)
(186.513 0 0)
(187.75 0 0)
(188.978 0 0)
(190.197 0 0)
(191.408 0 0)
(192.61 0 0)
(193.803 0 0)
(194.988 0 0)
(196.164 0 0)
(197.332 0 0)
(198.491 0 0)
(199.641 0 0)
(200.783 0 0)
(201.916 0 0)
(203.04 0 0)
(204.156 0 0)
(205.264 0 0)
(206.363 0 0)
(207.454 0 0)
(208.536 0 0)
(209.61 0 0)
(210.675 0 0)
(211.732 0 0)
(212.781 0 0)
(213.821 0 0)
(214.853 0 0)
(215.877 0 0)
(216.892 0 0)
(217.9 0 0)
(218.898 0 0)
(219.889 0 0)
(220.872 0 0)
(221.847 0 0)
(222.812 0 0)
(223.773 0 0)
(224.714 0 0)
(225.684 0 0)
(226.533 0 0)
(227.723 0 0)
(131.737 0 0)
(133.219 0 0)
(134.701 0 0)
(136.18 0 0)
(137.657 0 0)
(139.13 0 0)
(140.599 0 0)
(142.064 0 0)
(143.525 0 0)
(144.979 0 0)
(146.429 0 0)
(147.872 0 0)
(149.309 0 0)
(150.739 0 0)
(152.163 0 0)
(153.58 0 0)
(154.99 0 0)
(156.392 0 0)
(157.787 0 0)
(159.175 0 0)
(160.555 0 0)
(161.927 0 0)
(163.292 0 0)
(164.648 0 0)
(165.997 0 0)
(167.337 0 0)
(168.67 0 0)
(169.995 0 0)
(171.311 0 0)
(172.619 0 0)
(173.919 0 0)
(175.211 0 0)
(176.494 0 0)
(177.77 0 0)
(179.037 0 0)
(180.295 0 0)
(181.546 0 0)
(182.788 0 0)
(184.022 0 0)
(185.247 0 0)
(186.464 0 0)
(187.673 0 0)
(188.874 0 0)
(190.066 0 0)
(191.25 0 0)
(192.425 0 0)
(193.593 0 0)
(194.751 0 0)
(195.902 0 0)
(197.044 0 0)
(198.178 0 0)
(199.304 0 0)
(200.422 0 0)
(201.531 0 0)
(202.632 0 0)
(203.724 0 0)
(204.809 0 0)
(205.885 0 0)
(206.953 0 0)
(208.013 0 0)
(209.065 0 0)
(210.108 0 0)
(211.143 0 0)
(212.171 0 0)
(213.19 0 0)
(214.201 0 0)
(215.204 0 0)
(216.199 0 0)
(217.185 0 0)
(218.164 0 0)
(219.135 0 0)
(220.098 0 0)
(221.053 0 0)
(221.999 0 0)
(222.941 0 0)
(223.863 0 0)
(224.813 0 0)
(225.646 0 0)
(226.81 0 0)
(133.124 0 0)
(134.564 0 0)
(136.003 0 0)
(137.44 0 0)
(138.874 0 0)
(140.305 0 0)
(141.732 0 0)
(143.155 0 0)
(144.573 0 0)
(145.987 0 0)
(147.395 0 0)
(148.797 0 0)
(150.194 0 0)
(151.585 0 0)
(152.969 0 0)
(154.347 0 0)
(155.719 0 0)
(157.083 0 0)
(158.441 0 0)
(159.792 0 0)
(161.135 0 0)
(162.472 0 0)
(163.801 0 0)
(165.123 0 0)
(166.437 0 0)
(167.744 0 0)
(169.043 0 0)
(170.335 0 0)
(171.619 0 0)
(172.895 0 0)
(174.164 0 0)
(175.424 0 0)
(176.677 0 0)
(177.922 0 0)
(179.16 0 0)
(180.389 0 0)
(181.611 0 0)
(182.824 0 0)
(184.03 0 0)
(185.227 0 0)
(186.417 0 0)
(187.599 0 0)
(188.773 0 0)
(189.938 0 0)
(191.096 0 0)
(192.246 0 0)
(193.388 0 0)
(194.522 0 0)
(195.648 0 0)
(196.765 0 0)
(197.875 0 0)
(198.977 0 0)
(200.071 0 0)
(201.157 0 0)
(202.234 0 0)
(203.304 0 0)
(204.366 0 0)
(205.42 0 0)
(206.466 0 0)
(207.504 0 0)
(208.534 0 0)
(209.556 0 0)
(210.57 0 0)
(211.576 0 0)
(212.575 0 0)
(213.565 0 0)
(214.548 0 0)
(215.523 0 0)
(216.489 0 0)
(217.449 0 0)
(218.4 0 0)
(219.343 0 0)
(220.279 0 0)
(221.206 0 0)
(222.129 0 0)
(223.033 0 0)
(223.964 0 0)
(224.78 0 0)
(225.919 0 0)
(134.466 0 0)
(135.865 0 0)
(137.262 0 0)
(138.658 0 0)
(140.051 0 0)
(141.44 0 0)
(142.826 0 0)
(144.209 0 0)
(145.587 0 0)
(146.96 0 0)
(148.328 0 0)
(149.692 0 0)
(151.05 0 0)
(152.402 0 0)
(153.748 0 0)
(155.089 0 0)
(156.423 0 0)
(157.752 0 0)
(159.073 0 0)
(160.389 0 0)
(161.697 0 0)
(162.999 0 0)
(164.294 0 0)
(165.582 0 0)
(166.864 0 0)
(168.138 0 0)
(169.405 0 0)
(170.665 0 0)
(171.917 0 0)
(173.163 0 0)
(174.401 0 0)
(175.632 0 0)
(176.855 0 0)
(178.071 0 0)
(179.279 0 0)
(180.48 0 0)
(181.673 0 0)
(182.859 0 0)
(184.038 0 0)
(185.208 0 0)
(186.371 0 0)
(187.527 0 0)
(188.675 0 0)
(189.815 0 0)
(190.947 0 0)
(192.072 0 0)
(193.189 0 0)
(194.299 0 0)
(195.4 0 0)
(196.494 0 0)
(197.581 0 0)
(198.659 0 0)
(199.73 0 0)
(200.793 0 0)
(201.848 0 0)
(202.896 0 0)
(203.936 0 0)
(204.968 0 0)
(205.992 0 0)
(207.009 0 0)
(208.018 0 0)
(209.019 0 0)
(210.012 0 0)
(210.998 0 0)
(211.976 0 0)
(212.947 0 0)
(213.909 0 0)
(214.864 0 0)
(215.812 0 0)
(216.751 0 0)
(217.683 0 0)
(218.608 0 0)
(219.525 0 0)
(220.433 0 0)
(221.337 0 0)
(222.223 0 0)
(223.135 0 0)
(223.936 0 0)
(225.049 0 0)
(135.764 0 0)
(137.123 0 0)
(138.48 0 0)
(139.835 0 0)
(141.188 0 0)
(142.538 0 0)
(143.884 0 0)
(145.227 0 0)
(146.566 0 0)
(147.901 0 0)
(149.231 0 0)
(150.556 0 0)
(151.877 0 0)
(153.192 0 0)
(154.502 0 0)
(155.806 0 0)
(157.105 0 0)
(158.398 0 0)
(159.685 0 0)
(160.966 0 0)
(162.241 0 0)
(163.51 0 0)
(164.772 0 0)
(166.027 0 0)
(167.277 0 0)
(168.519 0 0)
(169.755 0 0)
(170.984 0 0)
(172.207 0 0)
(173.422 0 0)
(174.631 0 0)
(175.832 0 0)
(177.027 0 0)
(178.214 0 0)
(179.395 0 0)
(180.568 0 0)
(181.735 0 0)
(182.894 0 0)
(184.045 0 0)
(185.19 0 0)
(186.327 0 0)
(187.457 0 0)
(188.58 0 0)
(189.695 0 0)
(190.803 0 0)
(191.903 0 0)
(192.996 0 0)
(194.082 0 0)
(195.16 0 0)
(196.231 0 0)
(197.294 0 0)
(198.35 0 0)
(199.399 0 0)
(200.44 0 0)
(201.473 0 0)
(202.499 0 0)
(203.517 0 0)
(204.528 0 0)
(205.531 0 0)
(206.527 0 0)
(207.515 0 0)
(208.496 0 0)
(209.47 0 0)
(210.435 0 0)
(211.393 0 0)
(212.344 0 0)
(213.287 0 0)
(214.223 0 0)
(215.151 0 0)
(216.072 0 0)
(216.985 0 0)
(217.891 0 0)
(218.79 0 0)
(219.68 0 0)
(220.566 0 0)
(221.434 0 0)
(222.327 0 0)
(223.113 0 0)
(224.2 0 0)
(137.019 0 0)
(138.339 0 0)
(139.657 0 0)
(140.973 0 0)
(142.287 0 0)
(143.598 0 0)
(144.906 0 0)
(146.211 0 0)
(147.512 0 0)
(148.81 0 0)
(150.103 0 0)
(151.392 0 0)
(152.676 0 0)
(153.956 0 0)
(155.231 0 0)
(156.5 0 0)
(157.765 0 0)
(159.024 0 0)
(160.277 0 0)
(161.525 0 0)
(162.767 0 0)
(164.004 0 0)
(165.234 0 0)
(166.458 0 0)
(167.677 0 0)
(168.889 0 0)
(170.094 0 0)
(171.294 0 0)
(172.487 0 0)
(173.674 0 0)
(174.854 0 0)
(176.027 0 0)
(177.194 0 0)
(178.354 0 0)
(179.507 0 0)
(180.654 0 0)
(181.794 0 0)
(182.927 0 0)
(184.053 0 0)
(185.172 0 0)
(186.284 0 0)
(187.389 0 0)
(188.488 0 0)
(189.579 0 0)
(190.663 0 0)
(191.74 0 0)
(192.809 0 0)
(193.872 0 0)
(194.927 0 0)
(195.976 0 0)
(197.017 0 0)
(198.05 0 0)
(199.077 0 0)
(200.096 0 0)
(201.108 0 0)
(202.113 0 0)
(203.11 0 0)
(204.1 0 0)
(205.083 0 0)
(206.059 0 0)
(207.027 0 0)
(207.988 0 0)
(208.941 0 0)
(209.887 0 0)
(210.826 0 0)
(211.758 0 0)
(212.682 0 0)
(213.599 0 0)
(214.508 0 0)
(215.41 0 0)
(216.305 0 0)
(217.193 0 0)
(218.073 0 0)
(218.945 0 0)
(219.813 0 0)
(220.664 0 0)
(221.539 0 0)
(222.31 0 0)
(223.373 0 0)
(138.232 0 0)
(139.514 0 0)
(140.794 0 0)
(142.073 0 0)
(143.349 0 0)
(144.623 0 0)
(145.894 0 0)
(147.162 0 0)
(148.427 0 0)
(149.689 0 0)
(150.946 0 0)
(152.2 0 0)
(153.45 0 0)
(154.695 0 0)
(155.935 0 0)
(157.171 0 0)
(158.403 0 0)
(159.629 0 0)
(160.85 0 0)
(162.066 0 0)
(163.277 0 0)
(164.482 0 0)
(165.681 0 0)
(166.876 0 0)
(168.064 0 0)
(169.246 0 0)
(170.423 0 0)
(171.594 0 0)
(172.759 0 0)
(173.917 0 0)
(175.07 0 0)
(176.216 0 0)
(177.356 0 0)
(178.489 0 0)
(179.617 0 0)
(180.737 0 0)
(181.852 0 0)
(182.959 0 0)
(184.06 0 0)
(185.155 0 0)
(186.243 0 0)
(187.324 0 0)
(188.398 0 0)
(189.466 0 0)
(190.527 0 0)
(191.581 0 0)
(192.628 0 0)
(193.668 0 0)
(194.701 0 0)
(195.727 0 0)
(196.747 0 0)
(197.759 0 0)
(198.764 0 0)
(199.763 0 0)
(200.754 0 0)
(201.738 0 0)
(202.715 0 0)
(203.685 0 0)
(204.648 0 0)
(205.603 0 0)
(206.552 0 0)
(207.493 0 0)
(208.427 0 0)
(209.354 0 0)
(210.274 0 0)
(211.187 0 0)
(212.092 0 0)
(212.991 0 0)
(213.882 0 0)
(214.766 0 0)
(215.643 0 0)
(216.512 0 0)
(217.375 0 0)
(218.23 0 0)
(219.08 0 0)
(219.914 0 0)
(220.77 0 0)
(221.527 0 0)
(222.565 0 0)
(139.405 0 0)
(140.65 0 0)
(141.894 0 0)
(143.135 0 0)
(144.376 0 0)
(145.613 0 0)
(146.849 0 0)
(148.082 0 0)
(149.312 0 0)
(150.538 0 0)
(151.761 0 0)
(152.981 0 0)
(154.197 0 0)
(155.409 0 0)
(156.617 0 0)
(157.82 0 0)
(159.02 0 0)
(160.214 0 0)
(161.404 0 0)
(162.589 0 0)
(163.77 0 0)
(164.945 0 0)
(166.115 0 0)
(167.28 0 0)
(168.439 0 0)
(169.593 0 0)
(170.742 0 0)
(171.885 0 0)
(173.022 0 0)
(174.153 0 0)
(175.279 0 0)
(176.399 0 0)
(177.513 0 0)
(178.621 0 0)
(179.723 0 0)
(180.818 0 0)
(181.908 0 0)
(182.991 0 0)
(184.068 0 0)
(185.138 0 0)
(186.203 0 0)
(187.26 0 0)
(188.312 0 0)
(189.357 0 0)
(190.395 0 0)
(191.426 0 0)
(192.451 0 0)
(193.47 0 0)
(194.481 0 0)
(195.486 0 0)
(196.485 0 0)
(197.476 0 0)
(198.461 0 0)
(199.438 0 0)
(200.409 0 0)
(201.373 0 0)
(202.33 0 0)
(203.281 0 0)
(204.224 0 0)
(205.16 0 0)
(206.089 0 0)
(207.012 0 0)
(207.927 0 0)
(208.836 0 0)
(209.737 0 0)
(210.631 0 0)
(211.519 0 0)
(212.399 0 0)
(213.272 0 0)
(214.138 0 0)
(214.998 0 0)
(215.85 0 0)
(216.695 0 0)
(217.532 0 0)
(218.366 0 0)
(219.182 0 0)
(220.021 0 0)
(220.763 0 0)
(221.778 0 0)
(140.539 0 0)
(141.748 0 0)
(142.956 0 0)
(144.163 0 0)
(145.368 0 0)
(146.571 0 0)
(147.772 0 0)
(148.97 0 0)
(150.166 0 0)
(151.359 0 0)
(152.55 0 0)
(153.736 0 0)
(154.92 0 0)
(156.1 0 0)
(157.276 0 0)
(158.448 0 0)
(159.617 0 0)
(160.781 0 0)
(161.941 0 0)
(163.096 0 0)
(164.247 0 0)
(165.393 0 0)
(166.534 0 0)
(167.671 0 0)
(168.802 0 0)
(169.929 0 0)
(171.05 0 0)
(172.166 0 0)
(173.277 0 0)
(174.382 0 0)
(175.482 0 0)
(176.577 0 0)
(177.665 0 0)
(178.748 0 0)
(179.825 0 0)
(180.897 0 0)
(181.962 0 0)
(183.022 0 0)
(184.075 0 0)
(185.123 0 0)
(186.164 0 0)
(187.199 0 0)
(188.228 0 0)
(189.251 0 0)
(190.267 0 0)
(191.277 0 0)
(192.28 0 0)
(193.278 0 0)
(194.268 0 0)
(195.252 0 0)
(196.23 0 0)
(197.201 0 0)
(198.166 0 0)
(199.123 0 0)
(200.074 0 0)
(201.019 0 0)
(201.957 0 0)
(202.888 0 0)
(203.812 0 0)
(204.729 0 0)
(205.64 0 0)
(206.544 0 0)
(207.441 0 0)
(208.331 0 0)
(209.214 0 0)
(210.091 0 0)
(210.96 0 0)
(211.823 0 0)
(212.678 0 0)
(213.527 0 0)
(214.369 0 0)
(215.204 0 0)
(216.032 0 0)
(216.853 0 0)
(217.669 0 0)
(218.47 0 0)
(219.291 0 0)
(220.019 0 0)
(221.011 0 0)
(141.635 0 0)
(142.81 0 0)
(143.983 0 0)
(145.155 0 0)
(146.327 0 0)
(147.496 0 0)
(148.664 0 0)
(149.829 0 0)
(150.993 0 0)
(152.153 0 0)
(153.311 0 0)
(154.467 0 0)
(155.619 0 0)
(156.768 0 0)
(157.914 0 0)
(159.056 0 0)
(160.194 0 0)
(161.329 0 0)
(162.46 0 0)
(163.586 0 0)
(164.709 0 0)
(165.827 0 0)
(166.941 0 0)
(168.05 0 0)
(169.154 0 0)
(170.254 0 0)
(171.349 0 0)
(172.439 0 0)
(173.524 0 0)
(174.604 0 0)
(175.679 0 0)
(176.749 0 0)
(177.813 0 0)
(178.872 0 0)
(179.925 0 0)
(180.973 0 0)
(182.015 0 0)
(183.052 0 0)
(184.082 0 0)
(185.107 0 0)
(186.126 0 0)
(187.139 0 0)
(188.147 0 0)
(189.148 0 0)
(190.143 0 0)
(191.132 0 0)
(192.114 0 0)
(193.091 0 0)
(194.061 0 0)
(195.025 0 0)
(195.983 0 0)
(196.934 0 0)
(197.879 0 0)
(198.817 0 0)
(199.749 0 0)
(200.675 0 0)
(201.593 0 0)
(202.506 0 0)
(203.411 0 0)
(204.31 0 0)
(205.203 0 0)
(206.089 0 0)
(206.968 0 0)
(207.84 0 0)
(208.706 0 0)
(209.564 0 0)
(210.417 0 0)
(211.262 0 0)
(212.101 0 0)
(212.932 0 0)
(213.757 0 0)
(214.575 0 0)
(215.387 0 0)
(216.191 0 0)
(216.991 0 0)
(217.775 0 0)
(218.58 0 0)
(219.294 0 0)
(220.262 0 0)
(142.694 0 0)
(143.835 0 0)
(144.976 0 0)
(146.115 0 0)
(147.253 0 0)
(148.39 0 0)
(149.526 0 0)
(150.66 0 0)
(151.791 0 0)
(152.921 0 0)
(154.048 0 0)
(155.173 0 0)
(156.295 0 0)
(157.414 0 0)
(158.53 0 0)
(159.643 0 0)
(160.753 0 0)
(161.859 0 0)
(162.962 0 0)
(164.061 0 0)
(165.156 0 0)
(166.247 0 0)
(167.334 0 0)
(168.417 0 0)
(169.495 0 0)
(170.569 0 0)
(171.639 0 0)
(172.704 0 0)
(173.764 0 0)
(174.82 0 0)
(175.87 0 0)
(176.916 0 0)
(177.956 0 0)
(178.992 0 0)
(180.022 0 0)
(181.047 0 0)
(182.067 0 0)
(183.081 0 0)
(184.089 0 0)
(185.093 0 0)
(186.09 0 0)