/*--------------------------------*- C++ -*----------------------------------*\
| =========                 |                                                 |
| \\      /  F ield         | OpenFOAM: The Open Source CFD Toolbox           |
|  \\    /   O peration     | Version:  2312                                  |
|   \\  /    A nd           | Website:  www.openfoam.com                      |
|    \\/     M anipulation  |                                                 |
\*---------------------------------------------------------------------------*/
FoamFile
{
    version     2.0;
    format      ascii;
    arch        "LSB;label=32;scalar=64";
    class       surfaceScalarField;
    location    "0.678";
    object      phi;
}
// * * * * * * * * * * * * * * * * * * * * * * * * * * * * * * * * * * * * * //

dimensions      [0 3 -1 0 0 0 0];

oriented        oriented;

internalField   nonuniform List<scalar> 
62015
(
61.2088
0.119323
-62.1953
60.2005
0.115198
59.1692
0.111046
58.1129
0.106869
57.0295
0.102672
55.9165
0.0984553
54.7714
0.0942237
53.5909
0.0899791
52.3717
0.0857252
51.1097
0.0814645
49.8008
0.0772003
48.4401
0.0729361
47.0227
0.0686762
45.5442
0.0644257
44.0014
0.0601928
42.3953
0.0559899
40.7353
0.0518389
39.0452
0.0477751
37.3674
0.0438504
35.7603
0.0401295
34.2878
0.0366749
33.0036
0.0335302
31.94
0.0307079
31.1036
0.0281892
30.4809
0.0259328
30.046
0.0238876
29.7691
0.0220023
29.621
0.0202317
29.5764
0.0185384
29.6144
0.0168927
29.7181
0.0152719
29.8744
0.0136589
30.073
0.012041
30.3057
0.010408
30.5664
0.00875313
30.85
0.00707053
31.1528
0.00535655
31.4715
0.00360818
31.8038
0.00182303
32.1476
0
32.5013
-0.00186206
32.8636
-0.00376389
33.2334
-0.00570535
33.6097
-0.00768669
33.9919
-0.00970774
34.3792
-0.0117677
34.7713
-0.0138664
35.1677
-0.0160028
35.5679
-0.0181763
35.9718
-0.0203859
36.379
-0.0226306
36.7893
-0.0249091
37.2025
-0.0272205
37.6185
-0.0295636
38.0372
-0.0319369
38.4584
-0.0343394
38.8821
-0.0367693
39.3081
-0.0392255
39.7365
-0.0417066
40.1671
-0.0442108
40.5999
-0.0467368
41.035
-0.0492832
41.4721
-0.0518481
41.9114
-0.05443
42.3528
-0.0570276
42.7963
-0.0596388
43.2418
-0.0622623
43.6894
-0.0648961
44.1391
-0.0675387
44.5908
-0.0701884
45.0445
-0.0728435
45.5003
-0.0755019
45.958
-0.0781629
46.4183
-0.0808225
46.8786
-0.0834841
47.347
-0.0861316
47.7989
-0.0888067
48.3097
-0.0913726
-0.0942497
48.6483
58.4654
0.231379
-59.4217
57.4872
0.223319
56.4864
0.215207
55.4611
0.207047
54.4091
0.198846
53.3282
0.190609
52.2155
0.182341
51.068
0.17405
49.8824
0.165739
48.6549
0.157416
47.3812
0.149086
46.0571
0.140758
44.6784
0.132441
43.2416
0.124148
41.7458
0.1159
40.1959
0.10773
38.6069
0.0996922
37.009
0.0918717
35.4486
0.0843803
33.9824
0.0773404
32.6657
0.0708554
31.5391
0.0649808
30.6217
0.059712
29.911
0.054993
29.3895
0.0507365
29.0316
0.0468452
28.8101
0.0432265
28.6998
0.0398008
28.6789
0.0365031
28.7297
0.0332828
28.8379
0.0301001
28.9923
0.0269256
29.1841
0.0237364
29.4063
0.020516
29.6537
0.017251
29.9218
0.0139321
30.2073
0.0105521
30.5075
0.00710575
30.8202
0.00358929
31.1435
0
31.4761
-0.00366384
31.8167
-0.00740321
32.1643
-0.0112186
32.5182
-0.0151099
32.8777
-0.0190764
33.2421
-0.0231175
33.6111
-0.0272318
33.9842
-0.0314183
34.361
-0.0356751
34.7414
-0.0400006
35.125
-0.0443925
35.5117
-0.0488492
35.9013
-0.053368
36.2936
-0.0579469
36.6885
-0.0625831
37.0859
-0.0672745
37.4857
-0.0720181
37.8879
-0.0768113
38.2924
-0.0816513
38.6991
-0.0865353
39.108
-0.0914603
39.5191
-0.0964233
39.9322
-0.101422
40.3475
-0.106452
40.7649
-0.11151
41.1843
-0.116595
41.6058
-0.121702
42.0293
-0.126828
42.4548
-0.13197
42.8823
-0.137125
43.3118
-0.142289
43.7434
-0.14746
44.1768
-0.152633
44.6128
-0.157803
45.0489
-0.162976
45.4926
-0.168121
45.921
-0.173317
46.4044
-0.178306
-0.183881
46.7288
55.7843
0.336235
-56.7128
54.8342
0.324422
53.8619
0.312533
52.8654
0.300575
51.8426
0.288556
50.7911
0.276484
49.7084
0.264368
48.5913
0.252217
47.4365
0.240038
46.2405
0.227842
44.9994
0.215638
43.7094
0.20344
42.3672
0.191265
40.9711
0.179139
39.5235
0.167102
38.0339
0.15522
36.5237
0.143595
35.0289
0.132371
33.5972
0.121716
32.2805
0.111794
31.1228
0.102717
30.1514
0.0945199
29.3738
0.0871589
28.7808
0.0805308
28.3525
0.0745043
28.065
0.0689439
27.894
0.0637271
27.818
0.05875
27.8186
0.0539292
27.881
0.0491991
27.9931
0.0445093
28.1456
0.0398214
28.331
0.0351057
28.5436
0.0303404
28.7785
0.0255081
29.0321
0.0205965
29.3016
0.0155961
29.5844
0.0104995
29.8786
0.00530203
30.1828
0
30.4955
-0.00540887
30.8157
-0.0109259
31.1426
-0.0165516
31.4754
-0.0222856
31.8135
-0.0281272
32.1563
-0.0340753
32.5035
-0.0401279
32.8547
-0.0462833
33.2095
-0.0525389
33.5677
-0.0588924
33.929
-0.0653408
34.2934
-0.0718811
34.6606
-0.07851
35.0304
-0.0852241
35.4029
-0.09202
35.7778
-0.0988939
36.1551
-0.105842
36.5347
-0.112861
36.9165
-0.119945
37.3006
-0.127092
37.6868
-0.134297
38.0752
-0.141555
38.4657
-0.148863
38.8582
-0.156215
39.2528
-0.163608
39.6494
-0.171036
40.0481
-0.178495
40.4487
-0.185981
40.8513
-0.193489
41.256
-0.201013
41.6625
-0.208549
42.0711
-0.216092
42.4815
-0.223639
42.8944
-0.23118
43.3075
-0.238723
43.7278
-0.246225
44.134
-0.253797
44.5912
-0.261074
-0.269179
44.901
53.1897
0.4341
-54.0919
52.2662
0.418708
51.3208
0.403217
50.3514
0.387636
49.356
0.371976
48.3322
0.356249
47.2774
0.340463
46.1887
0.324631
45.0628
0.308764
43.8965
0.292876
42.6863
0.276984
41.4291
0.261106
40.123
0.245273
38.7688
0.229531
37.3728
0.213949
35.9501
0.198642
34.5282
0.183769
33.1464
0.169533
31.8508
0.156147
30.6853
0.143784
29.6819
0.132532
28.8558
0.122381
28.2054
0.113234
27.7173
0.104943
27.3712
0.0973385
27.145
0.0902573
27.0179
0.0835565
26.9716
0.0771171
26.9907
0.0708442
27.0629
0.0646632
27.1781
0.0585167
27.3285
0.0523605
27.5078
0.0461607
27.7111
0.0398916
27.9345
0.0335333
28.1746
0.0270712
28.429
0.020494
28.6956
0.0137935
28.9727
0.00696348
29.2589
0
29.5531
-0.00709966
29.8543
-0.014337
30.1617
-0.0217124
30.4747
-0.0292252
30.7928
-0.0368751
31.1153
-0.0446596
31.442
-0.052577
31.7725
-0.0606246
32.1066
-0.0687992
32.4439
-0.0770977
32.7843
-0.0855164
33.1277
-0.0940511
33.4737
-0.102698
33.8224
-0.111453
34.1737
-0.120311
34.5273
-0.129267
34.8833
-0.138316
35.2416
-0.147455
35.6021
-0.156676
35.9648
-0.165976
36.3296
-0.175348
36.6965
-0.184787
37.0655
-0.194287
37.4365
-0.203843
37.8095
-0.213449
38.1846
-0.223099
38.5616
-0.232787
38.9406
-0.242507
39.3215
-0.252253
39.7044
-0.262018
40.0892
-0.271797
40.476
-0.281583
40.8646
-0.291372
41.2555
-0.301151
41.6468
-0.31093
42.0449
-0.320656
42.4299
-0.330468
42.8626
-0.339903
-0.350386
43.1576
50.69
0.525215
-51.567
49.7919
0.50641
48.872
0.487485
47.9284
0.46845
46.959
0.449319
45.9616
0.430104
44.9334
0.41082
43.8717
0.39148
42.7736
0.3721
41.636
0.352698
40.456
0.333299
39.2317
0.313934
37.9631
0.294652
36.6543
0.275528
35.316
0.256678
33.9692
0.238271
32.6455
0.220532
31.3848
0.203709
30.2284
0.188031
29.2104
0.173645
28.3513
0.160591
27.6563
0.1488
27.118
0.138122
26.7204
0.128366
26.4443
0.119337
26.27
0.110855
26.1798
0.102763
26.1581
0.0949364
26.1923
0.0872728
26.2721
0.079693
26.3892
0.0721357
26.5369
0.0645537
26.7101
0.0569099
26.9045
0.0491768
27.1168
0.0413326
27.3442
0.0333611
27.5844
0.0252502
27.8358
0.0169903
28.0968
0.00857503
28.3662
0
28.643
-0.00873778
28.9264
-0.0176399
29.2156
-0.0267066
29.51
-0.0359372
29.8092
-0.0453305
30.1127
-0.0548844
30.4202
-0.0645962
30.7313
-0.0744623
31.0458
-0.0844796
31.3635
-0.0946439
31.6842
-0.104951
32.0077
-0.115395
32.3339
-0.125973
32.6627
-0.136677
32.9939
-0.147504
33.3275
-0.158448
33.6634
-0.169501
34.0016
-0.180659
34.3419
-0.191915
34.6844
-0.203262
35.0289
-0.214695
35.3755
-0.226206
35.7242
-0.237789
36.0748
-0.249436
36.4275
-0.261141
36.7821
-0.272897
37.1386
-0.284696
37.4971
-0.296532
37.8575
-0.308395
38.2198
-0.320281
38.584
-0.33218
38.9501
-0.344085
39.318
-0.355991
39.6882
-0.367883
40.0588
-0.379773
40.4357
-0.391596
40.8005
-0.403519
41.2103
-0.41499
-0.427708
41.4906
48.2857
0.609812
-49.1386
47.4119
0.587754
46.5165
0.565555
45.5977
0.543228
44.6533
0.520788
43.6811
0.49825
42.6785
0.475631
41.643
0.45295
40.5718
0.430227
39.4625
0.407487
38.313
0.384767
37.123
0.362117
35.895
0.339613
34.6369
0.317372
33.3645
0.295568
32.103
0.274434
30.8863
0.254245
29.7518
0.235273
28.7335
0.217724
27.8551
0.201696
27.1273
0.187161
26.548
0.173987
26.1062
0.161978
25.7854
0.150914
25.568
0.140583
25.4369
0.130795
25.3769
0.12139
25.3753
0.112238
25.4214
0.103237
25.5068
0.0943049
25.6245
0.0853792
25.769
0.0764108
25.9359
0.0673619
26.1216
0.0582031
26.3233
0.0489119
26.5385
0.0394711
26.7654
0.0298679
27.0025
0.0200927
27.2483
0.0101382
27.5019
0
27.7624
-0.010325
28.029
-0.0208382
28.301
-0.0315397
28.578
-0.042429
28.8595
-0.0535038
29.1451
-0.0647622
29.4345
-0.0762006
29.7274
-0.0878153
30.0236
-0.0996022
30.3228
-0.111556
30.6249
-0.123673
30.9297
-0.135946
31.2372
-0.148371
31.5472
-0.16094
31.8595
-0.173647
32.1742
-0.186487
32.4912
-0.199451
32.8103
-0.212533
33.1316
-0.225727
33.4549
-0.239023
33.7803
-0.252415
34.1078
-0.265895
34.4372
-0.279455
34.7686
-0.293087
35.1019
-0.306783
35.4372
-0.320535
35.7744
-0.334334
36.1135
-0.348172
36.4544
-0.36204
36.7972
-0.37593
37.1419
-0.389834
37.4884
-0.403741
37.8366
-0.417646
38.1871
-0.431533
38.5381
-0.445413
38.8951
-0.459214
39.2407
-0.473126
39.6287
-0.486518
-0.501333
39.895
45.9745
0.688108
-46.8042
45.1241
0.66295
44.2523
0.637631
43.3572
0.612166
42.4368
0.586573
41.4889
0.56087
40.5112
0.535077
39.5012
0.509218
38.4567
0.483321
37.3759
0.457424
36.2581
0.431577
35.105
0.40586
33.9223
0.38039
32.722
0.355337
31.5243
0.330941
30.3573
0.307489
29.2541
0.285288
28.247
0.264593
27.3614
0.245563
26.6119
0.22822
26.0011
0.212465
25.5223
0.198113
25.1626
0.184931
24.9063
0.172682
24.7377
0.161145
24.6421
0.150128
24.6068
0.139472
24.6212
0.129049
24.6765
0.118757
24.7657
0.108514
24.8829
0.0982591
25.0237
0.0879421
25.1841
0.0775246
25.3613
0.0669771
25.5527
0.0562769
25.7564
0.045406
25.9707
0.0343515
26.1942
0.0231032
26.4258
0.0116544
26.6646
0
26.9097
-0.0118628
27.1605
-0.0239351
27.4164
-0.0362172
27.677
-0.0487077
27.9419
-0.0614049
28.2106
-0.0743054
28.483
-0.0874056
28.7587
-0.100702
29.0376
-0.114188
29.3194
-0.12786
29.604
-0.141712
29.8913
-0.155736
30.1811
-0.169928
30.4733
-0.18428
30.7679
-0.198784
31.0648
-0.213433
31.3638
-0.22822
31.665
-0.243136
31.9683
-0.258174
32.2736
-0.273325
32.5809
-0.28858
32.8902
-0.303931
33.2015
-0.319369
33.5147
-0.334884
33.8298
-0.350469
34.1467
-0.366112
34.4656
-0.381806
34.7863
-0.39754
35.1088
-0.413305
35.4331
-0.429091
35.7593
-0.444889
36.0873
-0.460688
36.4169
-0.476481
36.7488
-0.49225
37.0811
-0.508007
37.4191
-0.523673
37.7466
-0.539458
38.1139
-0.55466
-0.571443
38.3668
43.7532
0.760305
-44.5605
42.9252
0.732193
42.0761
0.703901
41.2038
0.675448
40.3066
0.646852
39.3823
0.618138
38.4288
0.589328
37.444
0.560455
36.4264
0.531557
35.3751
0.502689
34.2913
0.473929
33.179
0.445393
32.0477
0.417252
30.9133
0.38974
29.7992
0.363155
28.734
0.337822
27.7475
0.314041
26.8653
0.292022
26.1043
0.271846
25.4711
0.253458
24.9629
0.236692
24.5702
0.221319
24.2797
0.207086
24.0772
0.193745
23.9488
0.181076
23.8822
0.168893
23.8669
0.157039
23.8939
0.145391
23.9561
0.133849
24.0476
0.122335
24.1635
0.110787
24.3
0.0991568
24.454
0.0874063
24.6229
0.0755061
24.8045
0.0634335
24.9972
0.0511707
25.1994
0.0387044
25.4102
0.0260247
25.6283
0.0131248
25.8531
0
26.0837
-0.0133526
26.3197
-0.0269341
26.5605
-0.0407442
26.8057
-0.0547814
27.0549
-0.0690432
27.3078
-0.0835262
27.5642
-0.0982266
27.8238
-0.113139
28.0864
-0.128259
28.3518
-0.143579
28.6199
-0.159094
28.8906
-0.174797
29.1638
-0.19068
29.4393
-0.206736
29.7171
-0.222957
29.9971
-0.239334
30.2793
-0.255859
30.5635
-0.272524
30.8498
-0.289319
31.1381
-0.306234
31.4283
-0.323262
31.7205
-0.340391
32.0146
-0.357612
32.3106
-0.374915
32.6084
-0.392291
32.9081
-0.409728
33.2096
-0.427216
33.5129
-0.444746
33.818
-0.462305
34.1248
-0.479884
34.4335
-0.497473
34.7439
-0.515058
35.0559
-0.532632
35.3701
-0.550177
35.6847
-0.567705
36.0049
-0.585129
36.3151
-0.602677
36.6628
-0.619587
-0.638215
36.903
41.618
0.826592
-42.4038
40.8117
0.795667
39.9844
0.764545
39.1342
0.733247
38.2595
0.701796
37.3582
0.67022
36.4286
0.638551
35.4692
0.606831
34.4793
0.575115
33.4594
0.543483
32.4129
0.512049
31.3468
0.480982
30.2742
0.450513
29.2142
0.42094
28.1914
0.392601
27.2326
0.365826
26.3625
0.340873
25.5992
0.317878
24.9522
0.296835
24.4222
0.277612
24.0026
0.259993
23.6829
0.243718
23.4504
0.228523
23.2925
0.214163
23.1972
0.200424
23.1543
0.187124
23.1549
0.174118
23.1918
0.161285
23.259
0.148531
23.3515
0.13578
23.4654
0.122974
23.5974
0.110064
23.7449
0.0970149
23.9057
0.0837969
24.0779
0.0703875
24.2601
0.0567698
24.451
0.0429304
24.6496
0.0288599
24.8551
0.0145512
25.0667
0
25.2838
-0.0147962
25.5058
-0.0298384
25.7323
-0.0451258
25.963
-0.0606567
26.1975
-0.0764283
26.4355
-0.0924368
26.6769
-0.108678
26.9212
-0.125145
27.1685
-0.141834
27.4185
-0.158737
27.6711
-0.175847
27.9262
-0.193158
28.1837
-0.21066
28.4434
-0.228346
28.7054
-0.246208
28.9695
-0.264235
29.2358
-0.282419
29.504
-0.30075
29.7742
-0.319219
30.0464
-0.337814
30.3205
-0.356527
30.5965
-0.375347
30.8744
-0.394262
31.1541
-0.413262
31.4356
-0.432337
31.7189
-0.451474
32.004
-0.470663
32.2908
-0.489891
32.5794
-0.509149
32.8698
-0.528424
33.1618
-0.547703
33.4556
-0.566976
33.7509
-0.586233
34.0483
-0.605453
34.3463
-0.62465
34.6494
-0.643731
34.9433
-0.662939
35.2725
-0.681458
-0.701816
35.5006
39.5657
0.887151
-40.3309
38.7802
0.853548
37.974
0.819733
37.1452
0.78573
36.2924
0.751569
35.4139
0.717283
34.5084
0.682916
33.5751
0.648526
32.6144
0.614193
31.6289
0.580031
30.6244
0.546205
29.6112
0.512943
28.6052
0.480538
27.6272
0.449337
26.7012
0.419689
25.8502
0.391889
25.0926
0.366125
24.4398
0.342441
23.895
0.320747
23.4549
0.300848
23.1111
0.28249
22.8529
0.265399
22.6687
0.249311
22.5475
0.233987
22.4793
0.219224
22.4555
0.204851
22.4689
0.19073
22.5133
0.176748
22.5839
0.162816
22.6765
0.148862
22.7879
0.134829
22.9152
0.120673
23.0562
0.106358
23.2091
0.0918557
23.3722
0.0771448
23.5445
0.0622082
23.7246
0.0470333
23.9119
0.031611
24.1054
0.0159346
24.3046
0
24.5089
-0.016195
24.7178
-0.0326511
24.9309
-0.0493672
25.148
-0.0663409
25.3686
-0.0835695
25.5927
-0.101048
25.8198
-0.118772
26.0499
-0.136736
26.2827
-0.154933
26.5182
-0.173356
26.7562
-0.191997
26.9966
-0.210848
27.2392
-0.229901
27.4842
-0.249147
27.7312
-0.268576
27.9804
-0.288179
28.2315
-0.307946
28.4847
-0.327867
28.7398
-0.34793
28.9968
-0.368125
29.2557
-0.388442
29.5164
-0.408868
29.7789
-0.429393
30.0432
-0.450004
30.3093
-0.47069
30.5771
-0.491439
30.8467
-0.512238
31.1179
-0.533076
31.3909
-0.553941
31.6656
-0.574818
31.9419
-0.595697
32.2199
-0.616563
32.4995
-0.637407
32.781
-0.658208
33.0631
-0.678978
33.3501
-0.69962
33.6286
-0.720391
33.9401
-0.740426
-0.762404
34.1568
37.5931
0.942154
-38.3383
36.8277
0.906004
36.0418
0.869631
35.2341
0.833063
34.4029
0.796337
33.5472
0.759499
32.6663
0.722607
31.7606
0.685744
30.8319
0.649023
29.8849
0.612606
28.9283
0.576717
27.9752
0.541646
27.0432
0.507738
26.1534
0.475356
25.3268
0.444825
24.5816
0.416374
23.9299
0.390097
23.3773
0.365947
22.9226
0.343761
22.5598
0.323297
22.2801
0.304281
22.0733
0.286434
21.9291
0.269501
21.8381
0.253256
21.792
0.237507
21.7837
0.222097
21.807
0.206894
21.8571
0.191796
21.9299
0.176717
22.0218
0.161591
22.1301
0.146363
22.2526
0.130992
22.3872
0.115443
22.5325
0.0996892
22.687
0.0837104
22.8498
0.0674903
23.0198
0.0510166
23.1962
0.0342809
23.3785
0.0172765
23.566
0
23.7582
-0.0175506
23.9548
-0.0353753
24.1554
-0.0534728
24.3596
-0.0718408
24.5673
-0.0904753
24.7781
-0.109372
24.9919
-0.128525
25.2085
-0.147928
25.4278
-0.167575
25.6496
-0.187457
25.8738
-0.207566
26.1003
-0.227895
26.3291
-0.248433
26.56
-0.269172
26.793
-0.2901
27.028
-0.311209
27.265
-0.332487
27.5039
-0.353923
27.7447
-0.375506
27.9874
-0.397224
28.2318
-0.419067
28.4781
-0.441021
28.7261
-0.463074
28.9759
-0.485215
29.2274
-0.50743
29.4806
-0.529707
29.7355
-0.552033
29.992
-0.574394
30.2502
-0.596779
30.5101
-0.619172
30.7715
-0.641562
31.0346
-0.663933
31.2992
-0.686275
31.5658
-0.708566
31.8328
-0.730819
32.1046
-0.752933
32.3683
-0.775174
32.6632
-0.796638
-0.820133
32.869
35.6971
0.991768
-36.4231
34.9512
0.9532
34.1853
0.914403
33.3982
0.875411
32.5888
0.836274
31.7565
0.797052
30.9016
0.757828
30.0257
0.718716
29.1327
0.679878
28.2297
0.641531
27.3277
0.603962
26.4418
0.567512
25.5902
0.532551
24.792
0.499424
24.0643
0.468395
23.4198
0.439602
22.8654
0.413043
22.4018
0.388588
22.0251
0.366018
21.7283
0.345063
21.5024
0.32544
21.3383
0.30688
21.2271
0.289138
21.1609
0.272004
21.1327
0.255301
21.1367
0.238882
21.1679
0.222628
21.222
0.206442
21.2958
0.190246
21.3864
0.173977
21.4915
0.157584
21.609
0.141028
21.7374
0.124276
21.8753
0.107303
22.0217
0.0900899
22.1754
0.0726206
22.3358
0.0548838
22.502
0.0368716
22.6737
0.0185781
22.8502
0
23.0311
-0.0188641
23.2161
-0.0380138
23.4048
-0.0574476
23.597
-0.0771625
23.7924
-0.0971544
23.9908
-0.117418
24.1921
-0.137947
24.396
-0.158736
24.6025
-0.179777
24.8114
-0.201061
25.0227
-0.22258
25.2362
-0.244325
25.4518
-0.266286
25.6695
-0.288453
25.8893
-0.310816
26.1109
-0.333363
26.3346
-0.356083
26.56
-0.378965
26.7873
-0.401996
27.0165
-0.425166
27.2473
-0.44846
27.4799
-0.471867
27.7143
-0.495374
27.9503
-0.518967
28.188
-0.542633
28.4274
-0.566359
28.6684
-0.590131
28.911
-0.613935
29.1552
-0.637757
29.401
-0.661584
29.6484
-0.685401
29.8974
-0.709194
30.1479
-0.73295
30.4001
-0.756646
30.653
-0.780297
30.9103
-0.803796
31.1601
-0.82742
31.4393
-0.85023
-0.875144
31.6347
33.8749
1.03616
-34.5823
33.1482
0.995299
32.4021
0.954215
31.6357
0.912949
30.8486
0.871565
30.0409
0.830149
29.2141
0.788816
28.3715
0.747724
27.5191
0.70709
26.6661
0.667193
25.8255
0.628372
25.0131
0.590996
24.246
0.555425
23.54
0.521948
22.9077
0.490742
22.3567
0.461846
21.8894
0.435168
21.5037
0.410514
21.1939
0.387626
20.9526
0.366224
20.7717
0.346028
20.6429
0.326781
20.5589
0.308256
20.5129
0.290258
20.4992
0.272626
20.5129
0.255226
20.55
0.237947
20.607
0.2207
20.681
0.203414
20.7698
0.18603
20.8713
0.168501
20.9839
0.150789
21.1062
0.132865
21.2371
0.114704
21.3755
0.0962882
21.5207
0.0776032
21.672
0.0586383
21.8287
0.0393857
21.9903
0.0198406
22.1564
0
22.3267
-0.020137
22.5008
-0.0405697
22.6783
-0.061296
22.8592
-0.0823123
23.0431
-0.103614
23.2298
-0.125197
23.4193
-0.147053
23.6113
-0.169175
23.8058
-0.191556
24.0026
-0.214187
24.2017
-0.23706
24.4028
-0.260163
24.6061
-0.283487
24.8114
-0.307022
25.0186
-0.330756
25.2277
-0.354678
25.4387
-0.378776
25.6515
-0.403037
25.8661
-0.42745
26.0824
-0.452001
26.3005
-0.476678
26.5202
-0.501467
26.7416
-0.526354
26.9646
-0.551327
27.1893
-0.57637
27.4156
-0.60147
27.6435
-0.626612
27.8729
-0.651782
28.1039
-0.676965
28.3365
-0.702147
28.5705
-0.727314
28.8062
-0.752448
29.0432
-0.777538
29.282
-0.802559
29.5214
-0.827527
29.765
-0.852331
30.0016
-0.877256
30.2658
-0.901334
-0.927576
30.4514
32.1242
1.07548
-32.8132
31.4163
1.03247
30.6901
0.989243
29.945
0.945866
29.1813
0.902424
28.4003
0.859036
27.6048
0.815859
26.8
0.773107
25.9937
0.731055
25.1972
0.690035
24.4242
0.650416
23.6897
0.612563
23.0084
0.576786
22.3923
0.543293
21.8493
0.512158
21.3831
0.483326
20.9927
0.456633
20.674
0.431839
20.4208
0.408669
20.2261
0.386841
20.0824
0.366089
19.9828
0.346172
19.921
0.326882
19.8914
0.308041
19.8893
0.289502
19.9107
0.271143
19.9522
0.252863
20.0109
0.234582
20.0846
0.216232
20.1711
0.19776
20.269
0.179122
20.3766
0.160283
20.493
0.141215
20.6171
0.121897
20.7481
0.10231
20.8851
0.0824425
21.0278
0.062283
21.1754
0.0418254
21.3277
0.0210652
21.484
0
21.6443
-0.0213706
21.8081
-0.0430454
21.9752
-0.065022
22.1454
-0.0872962
22.3184
-0.109863
22.4942
-0.132718
22.6726
-0.155852
22.8534
-0.179258
23.0366
-0.202929
23.222
-0.226855
23.4095
-0.251026
23.5991
-0.275433
23.7907
-0.300064
23.9843
-0.324909
24.1797
-0.349955
24.377
-0.375191
24.5761
-0.400604
24.7769
-0.426183
24.9795
-0.451912
25.1837
-0.477781
25.3897
-0.503773
25.5972
-0.529877
25.8064
-0.556077
26.0172
-0.582359
26.2295
-0.608709
26.4434
-0.635112
26.6589
-0.661553
26.8759
-0.688016
27.0944
-0.714487
27.3144
-0.740951
27.5359
-0.767392
27.7588
-0.793792
27.9832
-0.820141
28.2092
-0.846413
28.4359
-0.872621
28.6665
-0.898654
28.8907
-0.924802
29.1407
-0.950074
-0.977557
29.317
30.4426
1.10991
-31.1135
29.7538
1.06489
29.048
1.01968
28.3253
0.974381
27.587
0.929103
26.8356
0.884008
26.0755
0.839308
25.3137
0.795273
24.5597
0.752229
23.8256
0.710541
23.1247
0.670578
22.4701
0.632662
21.8732
0.597022
21.3421
0.563767
20.8809
0.532875
20.4898
0.504211
20.166
0.477557
19.9044
0.452649
19.6989
0.429207
19.5429
0.406961
19.43
0.385659
19.3544
0.365082
19.3107
0.34504
19.2944
0.325372
19.3015
0.305945
19.3288
0.286648
19.3734
0.26739
19.4331
0.248098
19.5058
0.228709
19.5898
0.209174
19.6839
0.189454
19.7867
0.169516
19.8974
0.149334
20.0149
0.128888
20.1387
0.108161
20.2682
0.0871422
20.4027
0.0658215
20.5418
0.0441929
20.6851
0.0222531
20.8323
0
20.9831
-0.0225662
21.1373
-0.0454438
21.2945
-0.0686298
21.4547
-0.0921199
21.6176
-0.115909
21.783
-0.13999
21.951
-0.164356
22.1212
-0.189
22.2937
-0.213911
22.4684
-0.239082
22.6451
-0.2645
22.8238
-0.290158
23.0045
-0.316041
23.187
-0.34214
23.3713
-0.368443
23.5574
-0.394936
23.7453
-0.421606
23.9348
-0.448441
24.126
-0.475427
24.3189
-0.50255
24.5134
-0.529796
24.7094
-0.55715
24.9071
-0.584598
25.1063
-0.612125
25.307
-0.639715
25.5092
-0.667354
25.7129
-0.695025
25.9181
-0.722714
26.1248
-0.750404
26.3329
-0.778079
26.5425
-0.805724
26.7535
-0.833321
26.9658
-0.860857
27.1798
-0.888307
27.3944
-0.915684
27.6127
-0.942873
27.8251
-0.970171
28.0617
-0.996568
-1.02521
28.2292
28.8286
1.13963
-29.4811
28.1594
1.09275
27.475
1.04576
26.7766
0.998754
26.0664
0.951908
25.3485
0.905428
24.6287
0.859582
23.9156
0.81469
23.2196
0.771113
22.5524
0.729216
21.926
0.689329
21.3507
0.651699
20.8344
0.61646
20.3816
0.58362
19.9933
0.553073
19.6678
0.524625
19.401
0.498027
19.1876
0.473004
19.0219
0.449286
18.898
0.426617
18.8105
0.404766
18.7545
0.383534
18.7255
0.362749
18.7198
0.342268
18.7342
0.32197
18.766
0.301754
18.8128
0.28154
18.8727
0.261258
18.944
0.240854
19.0253
0.220282
19.1155
0.199506
19.2136
0.178496
19.3187
0.157228
19.4301
0.135682
19.5471
0.113846
19.6692
0.0917065
19.796
0.0692564
19.9271
0.0464904
20.062
0.0234053
20.2006
0
20.3426
-0.0237249
20.4876
-0.0477672
20.6356
-0.0721234
20.7863
-0.0967889
20.9396
-0.121757
21.0954
-0.147023
21.2535
-0.172577
21.4139
-0.198411
21.5764
-0.224517
21.7409
-0.250884
21.9074
-0.277501
22.0758
-0.304358
22.2461
-0.331444
22.4182
-0.358745
22.5921
-0.386249
22.7677
-0.413944
22.9449
-0.441816
23.1238
-0.469851
23.3044
-0.498035
23.4865
-0.526354
23.6702
-0.554794
23.8554
-0.583338
24.0421
-0.611973
24.2304
-0.640682
24.4201
-0.66945
24.6113
-0.698261
24.8039
-0.727099
24.998
-0.755948
25.1934
-0.784791
25.3903
-0.813612
25.5886
-0.842395
25.7883
-0.871121
25.9893
-0.899778
26.1918
-0.928338
26.395
-0.956815
26.6017
-0.985094
26.8028
-1.01347
27.0268
-1.04093
-1.07065
27.1858
27.2808
1.16483
-27.9144
26.6323
1.1163
25.9713
1.06774
25.2998
1.01931
24.6214
0.971216
23.9415
0.923731
23.2675
0.877168
22.6085
0.83188
21.9748
0.788229
21.3772
0.746547
20.8251
0.707092
20.326
0.670019
19.8844
0.635361
19.5021
0.603038
19.1779
0.572881
18.9087
0.544656
18.6902
0.518102
18.5171
0.492948
18.3845
0.468937
18.2871
0.445834
18.2205
0.42343
18.1804
0.401545
18.1633
0.380026
18.1662
0.358743
18.1862
0.337589
18.2213
0.316473
18.2694
0.295321
18.3289
0.274072
18.3985
0.252676
18.477
0.231092
18.5634
0.209285
18.6568
0.187229
18.7566
0.164901
18.862
0.142286
18.9725
0.119368
19.0878
0.0961389
19.2073
0.0725909
19.3308
0.0487198
19.4579
0.024523
19.5883
0
19.7219
-0.024848
19.8584
-0.0500182
19.9977
-0.0755066
20.1395
-0.101308
20.2839
-0.127417
20.4305
-0.153825
20.5794
-0.180524
20.7304
-0.207506
20.8834
-0.234761
21.0385
-0.262278
21.1954
-0.290047
21.3541
-0.318057
21.5147
-0.346294
21.677
-0.374747
21.841
-0.403403
22.0066
-0.432247
22.1739
-0.461267
22.3428
-0.490449
22.5132
-0.519777
22.6852
-0.549236
22.8586
-0.578812
23.0336
-0.60849
23.2101
-0.638253
23.3879
-0.668086
23.5673
-0.697972
23.748
-0.727895
23.9302
-0.757839
24.1137
-0.787787
24.2986
-0.817721
24.4849
-0.847626
24.6725
-0.877484
24.8615
-0.907276
25.0517
-0.93699
25.2434
-0.966596
25.4358
-0.99611
25.6315
-1.02541
25.822
-1.05481
26.0339
-1.08326
-1.114
26.185
25.7988
1.18578
-26.4123
25.1728
1.13581
24.5376
1.08596
23.8965
1.03643
23.2544
0.987479
22.6176
0.939421
21.9943
0.892603
21.3937
0.84738
20.8251
0.804084
20.2973
0.762978
19.8171
0.72423
19.3891
0.687897
19.0152
0.653921
18.695
0.622155
18.4261
0.592386
18.2049
0.564362
18.0269
0.537822
17.8875
0.512508
17.7821
0.488183
17.7066
0.464632
17.657
0.441669
17.6299
0.419132
17.6224
0.396884
17.632
0.37481
17.6564
0.352814
17.6937
0.330814
17.7425
0.308745
17.8012
0.28655
17.8689
0.264184
17.9444
0.24161
18.027
0.218798
18.1159
0.195721
18.2105
0.172361
18.3102
0.148703
18.4146
0.124733
18.5234
0.100443
18.636
0.0758281
18.7523
0.0508832
18.872
0.0256072
18.9948
0
19.1205
-0.0259365
19.249
-0.052199
19.3801
-0.0787831
19.5136
-0.105683
19.6494
-0.132893
19.7875
-0.160403
19.9277
-0.188207
20.0699
-0.216295
20.2141
-0.244656
20.3601
-0.273281
20.508
-0.302156
20.6577
-0.331272
20.8091
-0.360615
20.9621
-0.390172
21.1168
-0.41993
21.2731
-0.449875
21.4309
-0.479993
21.5903
-0.510269
21.7512
-0.540688
21.9136
-0.571235
22.0775
-0.601895
22.2428
-0.632651
22.4095
-0.663488
22.5776
-0.694388
22.7472
-0.725336
22.918
-0.756315
23.0903
-0.787307
23.2639
-0.818296
23.4388
-0.849264
23.615
-0.880193
23.7925
-0.911067
23.9713
-0.941866
24.1514
-0.972576
24.3329
-1.00317
24.515
-1.03366
24.7003
-1.06393
24.8807
-1.09428
25.0813
-1.12366
-1.15535
25.2249
24.3827
1.20276
-24.9744
23.7817
1.15165
23.1758
1.10084
22.5694
1.0506
21.9681
1.00122
21.3792
0.953055
20.8108
0.906445
20.2712
0.861717
19.7682
0.819138
19.3082
0.778885
18.8955
0.741029
18.5322
0.705535
18.2183
0.672277
17.952
0.641058
17.7303
0.611643
17.5494
0.583778
17.4053
0.557211
17.2937
0.531704
17.2109
0.507039
17.1532
0.483025
17.1176
0.459495
17.101
0.436306
17.1012
0.413335
17.116
0.39048
17.1436
0.367655
17.1825
0.344788
17.2313
0.32182
17.289
0.298699
17.3545
0.275386
17.427
0.251846
17.5058
0.228051
17.5903
0.203979
17.6799
0.179613
17.7743
0.154938
17.8729
0.129944
17.9754
0.104623
18.0816
0.0789704
18.1912
0.0529826
18.3038
0.0266588
18.4194
0
18.5378
-0.0269915
18.6587
-0.0543121
18.7821
-0.0819564
18.9078
-0.109919
19.0356
-0.138192
19.1656
-0.166767
19.2976
-0.195637
19.4316
-0.22479
19.5674
-0.254217
19.705
-0.283906
19.8444
-0.313845
19.9855
-0.344023
20.1282
-0.374427
20.2726
-0.405043
20.4185
-0.435857
20.5659
-0.466855
20.7149
-0.498023
20.8654
-0.529345
21.0173
-0.560806
21.1707
-0.592391
21.3254
-0.624083
21.4816
-0.655866
21.6392
-0.687724
21.7981
-0.71964
21.9583
-0.751596
22.1199
-0.783576
22.2827
-0.815563
22.4469
-0.847537
22.6124
-0.879483
22.7791
-0.911382
22.9471
-0.943215
23.1163
-0.974965
23.2867
-1.00662
23.4585
-1.03814
23.631
-1.06955
23.8064
-1.10072
23.9773
-1.13197
24.1671
-1.16224
-1.1948
24.3036
23.0337
1.21616
-23.601
22.461
1.16424
21.8884
1.11287
21.3209
1.06236
20.7651
1.01302
20.228
0.965209
19.717
0.919235
19.2391
0.875365
18.8001
0.83378
18.404
0.794564
18.0529
0.757698
17.7472
0.723073
17.4855
0.690514
17.2653
0.659798
17.0835
0.630684
16.9364
0.602924
16.8204
0.576285
16.7318
0.550547
16.6676
0.525518
16.6245
0.501025
16.6001
0.476921
16.5921
0.453078
16.5983
0.429389
16.6172
0.405763
16.6471
0.382123
16.6869
0.358405
16.7353
0.334555
16.7916
0.310529
16.8548
0.286289
16.9243
0.261805
16.9994
0.237052
17.0797
0.212009
17.1646
0.186662
17.2538
0.160998
17.3469
0.135007
17.4436
0.108682
17.5436
0.0820208
17.6468
0.0550197
17.7529
0.0276789
17.8617
0
17.9731
-0.0280142
18.0869
-0.0563593
18.203
-0.0850299
18.3214
-0.114019
18.4417
-0.14332
18.5641
-0.172924
18.6885
-0.202821
18.8146
-0.233001
18.9426
-0.263454
19.0723
-0.294168
19.2036
-0.32513
19.3366
-0.356329
19.4712
-0.38775
19.6074
-0.419382
19.745
-0.451208
19.8842
-0.483214
20.0248
-0.515386
20.1668
-0.547708
20.3103
-0.580164
20.4551
-0.612739
20.6013
-0.645415
20.7488
-0.678177
20.8977
-0.711007
21.0479
-0.743887
21.1994
-0.776802
21.3522
-0.809733
21.5062
-0.842662
21.6615
-0.875571
21.818
-0.908442
21.9757
-0.941257
22.1347
-0.973998
22.2949
-1.00664
22.4562
-1.03918
22.6188
-1.07158
22.7821
-1.10386
22.9481
-1.13589
23.1101
-1.16797
23.2897
-1.19907
-1.23245
23.4194
21.7537
1.22642
-22.2935
21.2131
1.17411
20.6779
1.12263
20.1537
1.07231
19.6469
1.02347
19.164
0.976439
18.7112
0.931461
18.2936
0.888723
17.915
0.848314
17.5775
0.810229
17.2815
0.774376
17.0261
0.740595
16.8092
0.708681
16.6281
0.678402
16.4797
0.649522
16.3607
0.621809
16.2679
0.595049
16.1983
0.569046
16.1492
0.543627
16.1181
0.51864
16.1029
0.493954
16.1016
0.469458
16.1126
0.445057
16.1345
0.420669
16.166
0.396227
16.2061
0.371673
16.2539
0.346959
16.3086
0.322046
16.3694
0.2969
16.4359
0.271494
16.5074
0.245806
16.5836
0.219817
16.6639
0.193514
16.7482
0.166886
16.8361
0.139924
16.9273
0.112624
17.0216
0.0849819
17.1187
0.0569964
17.2186
0.0286685
17.3211
0
17.4259
-0.0290055
17.533
-0.0583432
17.6423
-0.0880069
17.7537
-0.11799
17.8671
-0.148284
17.9823
-0.17888
18.0994
-0.209769
18.2183
-0.240939
18.3388
-0.27238
18.461
-0.30408
18.5848
-0.336026
18.7102
-0.368206
18.8372
-0.400605
18.9656
-0.43321
19.0954
-0.466006
19.2267
-0.498978
19.3595
-0.532111
19.4936
-0.565388
19.629
-0.598795
19.7658
-0.632314
19.9039
-0.665929
20.0433
-0.699623
20.184
-0.733377
20.326
-0.767176
20.4692
-0.801001
20.6136
-0.834834
20.7593
-0.868657
20.9062
-0.902452
21.0543
-0.9362
21.2035
-0.969882
21.3539
-1.00348
21.5055
-1.03697
21.6582
-1.07035
21.8122
-1.10357
21.9668
-1.13666
22.124
-1.1695
22.2774
-1.20237
22.4474
-1.23425
-1.2684
22.5706
20.545
1.23411
-21.0537
20.0404
1.18185
19.5466