/*--------------------------------*- C++ -*----------------------------------*\
| =========                 |                                                 |
| \\      /  F ield         | OpenFOAM: The Open Source CFD Toolbox           |
|  \\    /   O peration     | Version:  2312                                  |
|   \\  /    A nd           | Website:  www.openfoam.com                      |
|    \\/     M anipulation  |                                                 |
\*---------------------------------------------------------------------------*/
FoamFile
{
    version     2.0;
    format      ascii;
    arch        "LSB;label=32;scalar=64";
    class       volVectorField;
    location    "0.249";
    object      U;
}
// * * * * * * * * * * * * * * * * * * * * * * * * * * * * * * * * * * * * * //

dimensions      [0 1 -1 0 0 0 0];

internalField   nonuniform List<vector> 
31205
(
(112.127 0 0)
(109.708 0 0)
(107.499 0 0)
(105.55 0 0)
(103.904 0 0)
(102.596 0 0)
(101.644 0 0)
(101.052 0 0)
(100.804 0 0)
(100.878 0 0)
(101.241 0 0)
(101.857 0 0)
(102.691 0 0)
(103.71 0 0)
(104.885 0 0)
(106.187 0 0)
(107.596 0 0)
(109.091 0 0)
(110.656 0 0)
(112.279 0 0)
(113.946 0 0)
(115.65 0 0)
(117.383 0 0)
(119.137 0 0)
(120.908 0 0)
(122.691 0 0)
(124.482 0 0)
(126.279 0 0)
(128.078 0 0)
(129.877 0 0)
(131.675 0 0)
(133.47 0 0)
(135.261 0 0)
(137.046 0 0)
(138.825 0 0)
(140.597 0 0)
(142.361 0 0)
(144.117 0 0)
(145.864 0 0)
(147.602 0 0)
(149.33 0 0)
(151.049 0 0)
(152.758 0 0)
(154.457 0 0)
(156.146 0 0)
(157.824 0 0)
(159.492 0 0)
(161.15 0 0)
(162.797 0 0)
(164.433 0 0)
(166.059 0 0)
(167.675 0 0)
(169.279 0 0)
(170.874 0 0)
(172.458 0 0)
(174.031 0 0)
(175.594 0 0)
(177.146 0 0)
(178.688 0 0)
(180.22 0 0)
(181.742 0 0)
(183.253 0 0)
(184.754 0 0)
(186.245 0 0)
(187.726 0 0)
(189.198 0 0)
(190.659 0 0)
(192.11 0 0)
(193.552 0 0)
(194.984 0 0)
(196.406 0 0)
(197.818 0 0)
(199.222 0 0)
(200.613 0 0)
(202.002 0 0)
(203.361 0 0)
(204.775 0 0)
(205.981 0 0)
(207.788 0 0)
(109.92 0 0)
(107.742 0 0)
(105.804 0 0)
(104.147 0 0)
(102.807 0 0)
(101.803 0 0)
(101.141 0 0)
(100.812 0 0)
(100.796 0 0)
(101.064 0 0)
(101.585 0 0)
(102.325 0 0)
(103.253 0 0)
(104.34 0 0)
(105.559 0 0)
(106.887 0 0)
(108.307 0 0)
(109.801 0 0)
(111.355 0 0)
(112.958 0 0)
(114.6 0 0)
(116.274 0 0)
(117.972 0 0)
(119.689 0 0)
(121.42 0 0)
(123.162 0 0)
(124.91 0 0)
(126.663 0 0)
(128.418 0 0)
(130.173 0 0)
(131.926 0 0)
(133.676 0 0)
(135.422 0 0)
(137.163 0 0)
(138.897 0 0)
(140.625 0 0)
(142.345 0 0)
(144.057 0 0)
(145.761 0 0)
(147.457 0 0)
(149.143 0 0)
(150.82 0 0)
(152.488 0 0)
(154.146 0 0)
(155.795 0 0)
(157.433 0 0)
(159.062 0 0)
(160.681 0 0)
(162.289 0 0)
(163.888 0 0)
(165.476 0 0)
(167.054 0 0)
(168.623 0 0)
(170.181 0 0)
(171.729 0 0)
(173.267 0 0)
(174.794 0 0)
(176.312 0 0)
(177.82 0 0)
(179.318 0 0)
(180.807 0 0)
(182.285 0 0)
(183.754 0 0)
(185.213 0 0)
(186.662 0 0)
(188.101 0 0)
(189.531 0 0)
(190.952 0 0)
(192.363 0 0)
(193.765 0 0)
(195.157 0 0)
(196.54 0 0)
(197.914 0 0)
(199.277 0 0)
(200.637 0 0)
(201.968 0 0)
(203.352 0 0)
(204.537 0 0)
(206.296 0 0)
(107.847 0 0)
(105.944 0 0)
(104.305 0 0)
(102.961 0 0)
(101.934 0 0)
(101.23 0 0)
(100.845 0 0)
(100.762 0 0)
(100.955 0 0)
(101.396 0 0)
(102.055 0 0)
(102.901 0 0)
(103.907 0 0)
(105.048 0 0)
(106.301 0 0)
(107.648 0 0)
(109.072 0 0)
(110.559 0 0)
(112.098 0 0)
(113.679 0 0)
(115.294 0 0)
(116.936 0 0)
(118.599 0 0)
(120.278 0 0)
(121.97 0 0)
(123.67 0 0)
(125.376 0 0)
(127.086 0 0)
(128.797 0 0)
(130.507 0 0)
(132.216 0 0)
(133.922 0 0)
(135.623 0 0)
(137.32 0 0)
(139.01 0 0)
(140.694 0 0)
(142.372 0 0)
(144.041 0 0)
(145.703 0 0)
(147.356 0 0)
(149.001 0 0)
(150.637 0 0)
(152.264 0 0)
(153.882 0 0)
(155.491 0 0)
(157.091 0 0)
(158.681 0 0)
(160.261 0 0)
(161.832 0 0)
(163.393 0 0)
(164.944 0 0)
(166.486 0 0)
(168.018 0 0)
(169.541 0 0)
(171.054 0 0)
(172.557 0 0)
(174.05 0 0)
(175.534 0 0)
(177.009 0 0)
(178.474 0 0)
(179.929 0 0)
(181.375 0 0)
(182.812 0 0)
(184.239 0 0)
(185.657 0 0)
(187.065 0 0)
(188.465 0 0)
(189.855 0 0)
(191.236 0 0)
(192.608 0 0)
(193.971 0 0)
(195.325 0 0)
(196.67 0 0)
(198.005 0 0)
(199.337 0 0)
(200.64 0 0)
(201.995 0 0)
(203.158 0 0)
(204.871 0 0)
(106 0 0)
(104.393 0 0)
(103.063 0 0)
(102.031 0 0)
(101.305 0 0)
(100.883 0 0)
(100.749 0 0)
(100.883 0 0)
(101.258 0 0)
(101.846 0 0)
(102.621 0 0)
(103.554 0 0)
(104.623 0 0)
(105.806 0 0)
(107.084 0 0)
(108.442 0 0)
(109.865 0 0)
(111.343 0 0)
(112.864 0 0)
(114.422 0 0)
(116.008 0 0)
(117.618 0 0)
(119.245 0 0)
(120.887 0 0)
(122.539 0 0)
(124.199 0 0)
(125.863 0 0)
(127.531 0 0)
(129.199 0 0)
(130.866 0 0)
(132.532 0 0)
(134.194 0 0)
(135.853 0 0)
(137.506 0 0)
(139.154 0 0)
(140.796 0 0)
(142.431 0 0)
(144.059 0 0)
(145.679 0 0)
(147.291 0 0)
(148.896 0 0)
(150.492 0 0)
(152.079 0 0)
(153.658 0 0)
(155.228 0 0)
(156.789 0 0)
(158.341 0 0)
(159.884 0 0)
(161.418 0 0)
(162.943 0 0)
(164.458 0 0)
(165.964 0 0)
(167.461 0 0)
(168.949 0 0)
(170.427 0 0)
(171.896 0 0)
(173.356 0 0)
(174.807 0 0)
(176.248 0 0)
(177.681 0 0)
(179.104 0 0)
(180.518 0 0)
(181.923 0 0)
(183.319 0 0)
(184.706 0 0)
(186.084 0 0)
(187.453 0 0)
(188.814 0 0)
(190.165 0 0)
(191.508 0 0)
(192.842 0 0)
(194.167 0 0)
(195.484 0 0)
(196.79 0 0)
(198.094 0 0)
(199.371 0 0)
(200.697 0 0)
(201.838 0 0)
(203.509 0 0)
(104.428 0 0)
(103.123 0 0)
(102.098 0 0)
(101.364 0 0)
(100.917 0 0)
(100.745 0 0)
(100.831 0 0)
(101.151 0 0)
(101.679 0 0)
(102.39 0 0)
(103.258 0 0)
(104.261 0 0)
(105.378 0 0)
(106.592 0 0)
(107.887 0 0)
(109.249 0 0)
(110.666 0 0)
(112.13 0 0)
(113.632 0 0)
(115.164 0 0)
(116.722 0 0)
(118.299 0 0)
(119.892 0 0)
(121.496 0 0)
(123.11 0 0)
(124.73 0 0)
(126.354 0 0)
(127.98 0 0)
(129.606 0 0)
(131.232 0 0)
(132.855 0 0)
(134.476 0 0)
(136.092 0 0)
(137.704 0 0)
(139.311 0 0)
(140.911 0 0)
(142.505 0 0)
(144.092 0 0)
(145.673 0 0)
(147.245 0 0)
(148.81 0 0)
(150.367 0 0)
(151.916 0 0)
(153.457 0 0)
(154.989 0 0)
(156.513 0 0)
(158.028 0 0)
(159.535 0 0)
(161.032 0 0)
(162.521 0 0)
(164.001 0 0)
(165.473 0 0)
(166.935 0 0)
(168.389 0 0)
(169.833 0 0)
(171.269 0 0)
(172.696 0 0)
(174.114 0 0)
(175.523 0 0)
(176.924 0 0)
(178.315 0 0)
(179.698 0 0)
(181.072 0 0)
(182.437 0 0)
(183.794 0 0)
(185.142 0 0)
(186.482 0 0)
(187.813 0 0)
(189.135 0 0)
(190.449 0 0)
(191.754 0 0)
(193.051 0 0)
(194.34 0 0)
(195.619 0 0)
(196.895 0 0)
(198.145 0 0)
(199.442 0 0)
(200.561 0 0)
(202.193 0 0)
(103.148 0 0)
(102.14 0 0)
(101.406 0 0)
(100.945 0 0)
(100.746 0 0)
(100.794 0 0)
(101.067 0 0)
(101.543 0 0)
(102.196 0 0)
(103.005 0 0)
(103.947 0 0)
(105.004 0 0)
(106.157 0 0)
(107.392 0 0)
(108.695 0 0)
(110.056 0 0)
(111.464 0 0)
(112.911 0 0)
(114.391 0 0)
(115.898 0 0)
(117.425 0 0)
(118.97 0 0)
(120.528 0 0)
(122.096 0 0)
(123.672 0 0)
(125.253 0 0)
(126.837 0 0)
(128.423 0 0)
(130.009 0 0)
(131.594 0 0)
(133.177 0 0)
(134.757 0 0)
(136.332 0 0)
(137.904 0 0)
(139.47 0 0)
(141.03 0 0)
(142.585 0 0)
(144.133 0 0)
(145.674 0 0)
(147.208 0 0)
(148.735 0 0)
(150.254 0 0)
(151.765 0 0)
(153.269 0 0)
(154.764 0 0)
(156.252 0 0)
(157.731 0 0)
(159.202 0 0)
(160.665 0 0)
(162.119 0 0)
(163.564 0 0)
(165.002 0 0)
(166.43 0 0)
(167.851 0 0)
(169.262 0 0)
(170.666 0 0)
(172.06 0 0)
(173.446 0 0)
(174.824 0 0)
(176.193 0 0)
(177.554 0 0)
(178.906 0 0)
(180.25 0 0)
(181.585 0 0)
(182.912 0 0)
(184.231 0 0)
(185.541 0 0)
(186.843 0 0)
(188.137 0 0)
(189.422 0 0)
(190.699 0 0)
(191.968 0 0)
(193.23 0 0)
(194.481 0 0)
(195.73 0 0)
(196.954 0 0)
(198.223 0 0)
(199.319 0 0)
(200.914 0 0)
(102.158 0 0)
(101.433 0 0)
(100.966 0 0)
(100.748 0 0)
(100.766 0 0)
(101.001 0 0)
(101.431 0 0)
(102.034 0 0)
(102.789 0 0)
(103.676 0 0)
(104.675 0 0)
(105.771 0 0)
(106.95 0 0)
(108.197 0 0)
(109.503 0 0)
(110.857 0 0)
(112.252 0 0)
(113.681 0 0)
(115.137 0 0)
(116.616 0 0)
(118.114 0 0)
(119.626 0 0)
(121.149 0 0)
(122.682 0 0)
(124.22 0 0)
(125.763 0 0)
(127.309 0 0)
(128.856 0 0)
(130.403 0 0)
(131.948 0 0)
(133.491 0 0)
(135.032 0 0)
(136.568 0 0)
(138.1 0 0)
(139.628 0 0)
(141.149 0 0)
(142.665 0 0)
(144.175 0 0)
(145.678 0 0)
(147.175 0 0)
(148.664 0 0)
(150.147 0 0)
(151.622 0 0)
(153.089 0 0)
(154.549 0 0)
(156.001 0 0)
(157.446 0 0)
(158.882 0 0)
(160.31 0 0)
(161.73 0 0)
(163.143 0 0)
(164.547 0 0)
(165.943 0 0)
(167.33 0 0)
(168.71 0 0)
(170.081 0 0)
(171.444 0 0)
(172.799 0 0)
(174.146 0 0)
(175.485 0 0)
(176.815 0 0)
(178.137 0 0)
(179.451 0 0)
(180.757 0 0)
(182.055 0 0)
(183.345 0 0)
(184.627 0 0)
(185.9 0 0)
(187.166 0 0)
(188.424 0 0)
(189.673 0 0)
(190.915 0 0)
(192.149 0 0)
(193.374 0 0)
(194.596 0 0)
(195.793 0 0)
(197.035 0 0)
(198.109 0 0)
(199.668 0 0)
(101.446 0 0)
(100.98 0 0)
(100.751 0 0)
(100.746 0 0)
(100.949 0 0)
(101.34 0 0)
(101.899 0 0)
(102.605 0 0)
(103.441 0 0)
(104.388 0 0)
(105.431 0 0)
(106.555 0 0)
(107.749 0 0)
(109.002 0 0)
(110.305 0 0)
(111.649 0 0)
(113.028 0 0)
(114.436 0 0)
(115.867 0 0)
(117.319 0 0)
(118.786 0 0)
(120.265 0 0)
(121.755 0 0)
(123.252 0 0)
(124.754 0 0)
(126.26 0 0)
(127.768 0 0)
(129.277 0 0)
(130.786 0 0)
(132.293 0 0)
(133.798 0 0)
(135.3 0 0)
(136.798 0 0)
(138.292 0 0)
(139.781 0 0)
(141.266 0 0)
(142.744 0 0)
(144.217 0 0)
(145.684 0 0)
(147.144 0 0)
(148.597 0 0)
(150.044 0 0)
(151.483 0 0)
(152.916 0 0)
(154.341 0 0)
(155.759 0 0)
(157.169 0 0)
(158.572 0 0)
(159.967 0 0)
(161.354 0 0)
(162.734 0 0)
(164.106 0 0)
(165.47 0 0)
(166.826 0 0)
(168.174 0 0)
(169.514 0 0)
(170.847 0 0)
(172.171 0 0)
(173.488 0 0)
(174.796 0 0)
(176.097 0 0)
(177.39 0 0)
(178.675 0 0)
(179.952 0 0)
(181.222 0 0)
(182.483 0 0)
(183.737 0 0)
(184.983 0 0)
(186.221 0 0)
(187.451 0 0)
(188.674 0 0)
(189.889 0 0)
(191.096 0 0)
(192.294 0 0)
(193.49 0 0)
(194.662 0 0)
(195.877 0 0)
(196.929 0 0)
(198.451 0 0)
(100.986 0 0)
(100.753 0 0)
(100.732 0 0)
(100.91 0 0)
(101.268 0 0)
(101.787 0 0)
(102.451 0 0)
(103.239 0 0)
(104.138 0 0)
(105.131 0 0)
(106.205 0 0)
(107.348 0 0)
(108.55 0 0)
(109.803 0 0)
(111.098 0 0)
(112.429 0 0)
(113.79 0 0)
(115.175 0 0)
(116.581 0 0)
(118.004 0 0)
(119.44 0 0)
(120.888 0 0)
(122.343 0 0)
(123.806 0 0)
(125.272 0 0)
(126.742 0 0)
(128.214 0 0)
(129.686 0 0)
(131.157 0 0)
(132.627 0 0)
(134.095 0 0)
(135.56 0 0)
(137.021 0 0)
(138.478 0 0)
(139.931 0 0)
(141.379 0 0)
(142.821 0 0)
(144.258 0 0)
(145.689 0 0)
(147.114 0 0)
(148.532 0 0)
(149.944 0 0)
(151.35 0 0)
(152.748 0 0)
(154.14 0 0)
(155.524 0 0)
(156.901 0 0)
(158.271 0 0)
(159.634 0 0)
(160.989 0 0)
(162.337 0 0)
(163.677 0 0)
(165.01 0 0)
(166.335 0 0)
(167.653 0 0)
(168.963 0 0)
(170.265 0 0)
(171.56 0 0)
(172.847 0 0)
(174.127 0 0)
(175.399 0 0)
(176.663 0 0)
(177.92 0 0)
(179.169 0 0)
(180.41 0 0)
(181.644 0 0)
(182.87 0 0)
(184.089 0 0)
(185.3 0 0)
(186.504 0 0)
(187.7 0 0)
(188.888 0 0)
(190.07 0 0)
(191.242 0 0)
(192.413 0 0)
(193.559 0 0)
(194.748 0 0)
(195.778 0 0)
(197.265 0 0)
(100.753 0 0)
(100.723 0 0)
(100.881 0 0)
(101.211 0 0)
(101.697 0 0)
(102.322 0 0)
(103.069 0 0)
(103.922 0 0)
(104.868 0 0)
(105.895 0 0)
(106.99 0 0)
(108.145 0 0)
(109.349 0 0)
(110.597 0 0)
(111.881 0 0)
(113.196 0 0)
(114.536 0 0)
(115.898 0 0)
(117.278 0 0)
(118.672 0 0)
(120.078 0 0)
(121.493 0 0)
(122.916 0 0)
(124.344 0 0)
(125.776 0 0)
(127.211 0 0)
(128.646 0 0)
(130.083 0 0)
(131.518 0 0)
(132.952 0 0)
(134.383 0 0)
(135.812 0 0)
(137.238 0 0)
(138.659 0 0)
(140.076 0 0)
(141.489 0 0)
(142.896 0 0)
(144.298 0 0)
(145.694 0 0)
(147.085 0 0)
(148.47 0 0)
(149.848 0 0)
(151.22 0 0)
(152.585 0 0)
(153.944 0 0)
(155.296 0 0)
(156.641 0 0)
(157.979 0 0)
(159.31 0 0)
(160.634 0 0)
(161.951 0 0)
(163.261 0 0)
(164.563 0 0)
(165.859 0 0)
(167.146 0 0)
(168.427 0 0)
(169.7 0 0)
(170.966 0 0)
(172.225 0 0)
(173.476 0 0)
(174.719 0 0)
(175.956 0 0)
(177.185 0 0)
(178.406 0 0)
(179.62 0 0)
(180.827 0 0)
(182.027 0 0)
(183.219 0 0)
(184.404 0 0)
(185.581 0 0)
(186.751 0 0)
(187.914 0 0)
(189.07 0 0)
(190.217 0 0)
(191.362 0 0)
(192.484 0 0)
(193.646 0 0)
(194.655 0 0)
(196.107 0 0)
(100.716 0 0)
(100.86 0 0)
(101.169 0 0)
(101.626 0 0)
(102.217 0 0)
(102.925 0 0)
(103.738 0 0)
(104.641 0 0)
(105.623 0 0)
(106.673 0 0)
(107.781 0 0)
(108.94 0 0)
(110.143 0 0)
(111.382 0 0)
(112.652 0 0)
(113.948 0 0)
(115.267 0 0)
(116.605 0 0)
(117.957 0 0)
(119.323 0 0)
(120.698 0 0)
(122.082 0 0)
(123.472 0 0)
(124.867 0 0)
(126.265 0 0)
(127.665 0 0)
(129.066 0 0)
(130.468 0 0)
(131.868 0 0)
(133.267 0 0)
(134.663 0 0)
(136.057 0 0)
(137.448 0 0)
(138.835 0 0)
(140.217 0 0)
(141.595 0 0)
(142.969 0 0)
(144.337 0 0)
(145.7 0 0)
(147.057 0 0)
(148.409 0 0)
(149.754 0 0)
(151.094 0 0)
(152.427 0 0)
(153.754 0 0)
(155.075 0 0)
(156.388 0 0)
(157.696 0 0)
(158.996 0 0)
(160.29 0 0)
(161.577 0 0)
(162.856 0 0)
(164.129 0 0)
(165.395 0 0)
(166.654 0 0)
(167.906 0 0)
(169.151 0 0)
(170.388 0 0)
(171.619 0 0)
(172.842 0 0)
(174.058 0 0)
(175.267 0 0)
(176.469 0 0)
(177.664 0 0)
(178.852 0 0)
(180.032 0 0)
(181.205 0 0)
(182.371 0 0)
(183.53 0 0)
(184.682 0 0)
(185.827 0 0)
(186.964 0 0)
(188.095 0 0)
(189.217 0 0)
(190.337 0 0)
(191.435 0 0)
(192.573 0 0)
(193.56 0 0)
(194.979 0 0)
(100.847 0 0)
(101.138 0 0)
(101.572 0 0)
(102.132 0 0)
(102.807 0 0)
(103.582 0 0)
(104.445 0 0)
(105.386 0 0)
(106.393 0 0)
(107.458 0 0)
(108.574 0 0)
(109.732 0 0)
(110.928 0 0)
(112.155 0 0)
(113.409 0 0)
(114.686 0 0)
(115.982 0 0)
(117.294 0 0)
(118.62 0 0)
(119.957 0 0)
(121.302 0 0)
(122.655 0 0)
(124.013 0 0)
(125.375 0 0)
(126.74 0 0)
(128.107 0 0)
(129.474 0 0)
(130.841 0 0)
(132.208 0 0)
(133.572 0 0)
(134.935 0 0)
(136.295 0 0)
(137.652 0 0)
(139.005 0 0)
(140.354 0 0)
(141.699 0 0)
(143.039 0 0)
(144.375 0 0)
(145.705 0 0)
(147.03 0 0)
(148.35 0 0)
(149.664 0 0)
(150.972 0 0)
(152.274 0 0)
(153.57 0 0)
(154.86 0 0)
(156.143 0 0)
(157.421 0 0)
(158.691 0 0)
(159.955 0 0)
(161.213 0 0)
(162.464 0 0)
(163.708 0 0)
(164.945 0 0)
(166.176 0 0)
(167.4 0 0)
(168.617 0 0)
(169.827 0 0)
(171.03 0 0)
(172.226 0 0)
(173.416 0 0)
(174.598 0 0)
(175.773 0 0)
(176.942 0 0)
(178.104 0 0)
(179.258 0 0)
(180.406 0 0)
(181.546 0 0)
(182.68 0 0)
(183.807 0 0)
(184.927 0 0)
(186.039 0 0)
(187.146 0 0)
(188.244 0 0)
(189.339 0 0)
(190.414 0 0)
(191.526 0 0)
(192.493 0 0)
(193.878 0 0)
(101.119 0 0)
(101.532 0 0)
(102.067 0 0)
(102.711 0 0)
(103.453 0 0)
(104.279 0 0)
(105.181 0 0)
(106.148 0 0)
(107.172 0 0)
(108.246 0 0)
(109.363 0 0)
(110.517 0 0)
(111.702 0 0)
(112.915 0 0)
(114.152 0 0)
(115.408 0 0)
(116.68 0 0)
(117.967 0 0)
(119.266 0 0)
(120.574 0 0)
(121.89 0 0)
(123.212 0 0)
(124.538 0 0)
(125.869 0 0)
(127.201 0 0)
(128.535 0 0)
(129.87 0 0)
(131.204 0 0)
(132.537 0 0)
(133.869 0 0)
(135.199 0 0)
(136.526 0 0)
(137.85 0 0)
(139.17 0 0)
(140.487 0 0)
(141.8 0 0)
(143.108 0 0)
(144.412 0 0)
(145.711 0 0)
(147.004 0 0)
(148.293 0 0)
(149.576 0 0)
(150.854 0 0)
(152.125 0 0)
(153.391 0 0)
(154.652 0 0)
(155.906 0 0)
(157.153 0 0)
(158.395 0 0)
(159.631 0 0)
(160.86 0 0)
(162.082 0 0)
(163.298 0 0)
(164.508 0 0)
(165.711 0 0)
(166.908 0 0)
(168.098 0 0)
(169.281 0 0)
(170.457 0 0)
(171.627 0 0)
(172.79 0 0)
(173.947 0 0)
(175.097 0 0)
(176.239 0 0)
(177.376 0 0)
(178.505 0 0)
(179.628 0 0)
(180.743 0 0)
(181.852 0 0)
(182.955 0 0)
(184.05 0 0)
(185.139 0 0)
(186.221 0 0)
(187.295 0 0)
(188.367 0 0)
(189.418 0 0)
(190.505 0 0)
(191.453 0 0)
(192.805 0 0)
(101.506 0 0)
(102.019 0 0)
(102.637 0 0)
(103.347 0 0)
(104.14 0 0)
(105.006 0 0)
(105.936 0 0)
(106.921 0 0)
(107.956 0 0)
(109.033 0 0)
(110.147 0 0)
(111.292 0 0)
(112.465 0 0)
(113.662 0 0)
(114.879 0 0)
(116.113 0 0)
(117.362 0 0)
(118.623 0 0)
(119.894 0 0)
(121.174 0 0)
(122.461 0 0)
(123.753 0 0)
(125.049 0 0)
(126.348 0 0)
(127.649 0 0)
(128.951 0 0)
(130.254 0 0)
(131.556 0 0)
(132.857 0 0)
(134.157 0 0)
(135.455 0 0)
(136.75 0 0)
(138.042 0 0)
(139.331 0 0)
(140.616 0 0)
(141.898 0 0)
(143.175 0 0)
(144.448 0 0)
(145.716 0 0)
(146.98 0 0)
(148.238 0 0)
(149.491 0 0)
(150.739 0 0)
(151.981 0 0)
(153.218 0 0)
(154.449 0 0)
(155.675 0 0)
(156.894 0 0)
(158.108 0 0)
(159.315 0 0)
(160.517 0 0)
(161.712 0 0)
(162.901 0 0)
(164.083 0 0)
(165.26 0 0)
(166.43 0 0)
(167.593 0 0)
(168.75 0 0)
(169.901 0 0)
(171.045 0 0)
(172.183 0 0)
(173.314 0 0)
(174.438 0 0)
(175.556 0 0)
(176.667 0 0)
(177.772 0 0)
(178.87 0 0)
(179.962 0 0)
(181.047 0 0)
(182.125 0 0)
(183.197 0 0)
(184.262 0 0)
(185.32 0 0)
(186.371 0 0)
(187.419 0 0)
(188.448 0 0)
(189.511 0 0)
(190.439 0 0)
(191.759 0 0)
(101.988 0 0)
(102.582 0 0)
(103.265 0 0)
(104.027 0 0)
(104.859 0 0)
(105.754 0 0)
(106.703 0 0)
(107.7 0 0)
(108.739 0 0)
(109.814 0 0)
(110.921 0 0)
(112.056 0 0)
(113.215 0 0)
(114.394 0 0)
(115.59 0 0)
(116.802 0 0)
(118.027 0 0)
(119.262 0 0)
(120.507 0 0)
(121.758 0 0)
(123.016 0 0)
(124.278 0 0)
(125.545 0 0)
(126.813 0 0)
(128.084 0 0)
(129.355 0 0)
(130.626 0 0)
(131.898 0 0)
(133.168 0 0)
(134.436 0 0)
(135.703 0 0)
(136.967 0 0)
(138.229 0 0)
(139.487 0 0)
(140.742 0 0)
(141.993 0 0)
(143.24 0 0)
(144.483 0 0)
(145.722 0 0)
(146.956 0 0)
(148.185 0 0)
(149.409 0 0)
(150.628 0 0)
(151.842 0 0)
(153.05 0 0)
(154.254 0 0)
(155.451 0 0)
(156.643 0 0)
(157.829 0 0)
(159.009 0 0)
(160.184 0 0)
(161.352 0 0)
(162.515 0 0)
(163.671 0 0)
(164.821 0 0)
(165.965 0 0)
(167.103 0 0)
(168.235 0 0)
(169.36 0 0)
(170.479 0 0)
(171.592 0 0)
(172.698 0 0)
(173.798 0 0)
(174.891 0 0)
(175.979 0 0)
(177.059 0 0)
(178.133 0 0)
(179.201 0 0)
(180.263 0 0)
(181.317 0 0)
(182.366 0 0)
(183.407 0 0)
(184.443 0 0)
(185.471 0 0)
(186.497 0 0)
(187.503 0 0)
(188.543 0 0)
(189.451 0 0)
(190.739 0 0)
(102.544 0 0)
(103.202 0 0)
(103.937 0 0)
(104.739 0 0)
(105.6 0 0)
(106.515 0 0)
(107.477 0 0)
(108.479 0 0)
(109.518 0 0)
(110.588 0 0)
(111.686 0 0)
(112.807 0 0)
(113.95 0 0)
(115.11 0 0)
(116.286 0 0)
(117.475 0 0)
(118.675 0 0)
(119.885 0 0)
(121.102 0 0)
(122.326 0 0)
(123.556 0 0)
(124.789 0 0)
(126.026 0 0)
(127.265 0 0)
(128.506 0 0)
(129.747 0 0)
(130.988 0 0)
(132.229 0 0)
(133.469 0 0)
(134.708 0 0)
(135.944 0 0)
(137.178 0 0)
(138.41 0 0)
(139.638 0 0)
(140.864 0 0)
(142.085 0 0)
(143.303 0 0)
(144.517 0 0)
(145.727 0 0)
(146.932 0 0)
(148.133 0 0)
(149.329 0 0)
(150.52 0 0)
(151.707 0 0)
(152.888 0 0)
(154.063 0 0)
(155.234 0 0)
(156.399 0 0)
(157.558 0 0)
(158.712 0 0)
(159.86 0 0)
(161.003 0 0)
(162.14 0 0)
(163.27 0 0)
(164.395 0 0)
(165.514 0 0)
(166.627 0 0)
(167.734 0 0)
(168.834 0 0)
(169.929 0 0)
(171.017 0 0)
(172.099 0 0)
(173.175 0 0)
(174.245 0 0)
(175.308 0 0)
(176.366 0 0)
(177.417 0 0)
(178.461 0 0)
(179.499 0 0)
(180.531 0 0)
(181.557 0 0)
(182.576 0 0)
(183.589 0 0)
(184.595 0 0)
(185.598 0 0)
(186.582 0 0)
(187.599 0 0)
(188.489 0 0)
(189.746 0 0)
(103.159 0 0)
(103.868 0 0)
(104.642 0 0)
(105.473 0 0)
(106.356 0 0)
(107.284 0 0)
(108.252 0 0)
(109.256 0 0)
(110.29 0 0)
(111.352 0 0)
(112.438 0 0)
(113.545 0 0)
(114.67 0 0)
(115.81 0 0)
(116.965 0 0)
(118.13 0 0)
(119.306 0 0)
(120.49 0 0)
(121.681 0 0)
(122.878 0 0)
(124.08 0 0)
(125.285 0 0)
(126.494 0 0)
(127.704 0 0)
(128.915 0 0)
(130.127 0 0)
(131.339 0 0)
(132.551 0 0)
(133.762 0 0)
(134.971 0 0)
(136.178 0 0)
(137.383 0 0)
(138.586 0 0)
(139.786 0 0)
(140.982 0 0)
(142.175 0 0)
(143.365 0 0)
(144.551 0 0)
(145.733 0 0)
(146.91 0 0)
(148.084 0 0)
(149.252 0 0)
(150.416 0 0)
(151.576 0 0)
(152.73 0 0)
(153.879 0 0)
(155.023 0 0)
(156.162 0 0)
(157.296 0 0)
(158.424 0 0)
(159.547 0 0)
(160.664 0 0)
(161.775 0 0)
(162.881 0 0)
(163.981 0 0)
(165.076 0 0)
(166.164 0 0)
(167.247 0 0)
(168.323 0 0)
(169.394 0 0)
(170.459 0 0)
(171.517 0 0)
(172.57 0 0)
(173.616 0 0)
(174.657 0 0)
(175.691 0 0)
(176.719 0 0)
(177.741 0 0)
(178.757 0 0)
(179.766 0 0)
(180.77 0 0)
(181.767 0 0)
(182.758 0 0)
(183.741 0 0)
(184.723 0 0)
(185.686 0 0)
(186.68 0 0)
(187.551 0 0)
(188.778 0 0)
(103.82 0 0)
(104.568 0 0)
(105.371 0 0)
(106.223 0 0)
(107.12 0 0)
(108.055 0 0)
(109.025 0 0)
(110.026 0 0)
(111.054 0 0)
(112.105 0 0)
(113.177 0 0)
(114.268 0 0)
(115.374 0 0)
(116.494 0 0)
(117.627 0 0)
(118.769 0 0)
(119.921 0 0)
(121.08 0 0)
(122.245 0 0)
(123.415 0 0)
(124.589 0 0)
(125.767 0 0)
(126.947 0 0)
(128.13 0 0)
(129.313 0 0)
(130.496 0 0)
(131.68 0 0)
(132.863 0 0)
(134.045 0 0)
(135.226 0 0)
(136.405 0 0)
(137.582 0 0)
(138.757 0 0)
(139.928 0 0)
(141.097 0 0)
(142.263 0 0)
(143.425 0 0)
(144.584 0 0)
(145.738 0 0)
(146.889 0 0)
(148.035 0 0)
(149.178 0 0)
(150.315 0 0)
(151.448 0 0)
(152.577 0 0)
(153.7 0 0)
(154.819 0 0)
(155.933 0 0)
(157.041 0 0)
(158.144 0 0)
(159.242 0 0)
(160.335 0 0)
(161.422 0 0)
(162.503 0 0)
(163.579 0 0)
(164.65 0 0)
(165.714 0 0)
(166.774 0 0)
(167.827 0 0)
(168.874 0 0)
(169.916 0 0)
(170.951 0 0)
(171.981 0 0)
(173.005 0 0)
(174.023 0 0)
(175.035 0 0)
(176.041 0 0)
(177.04 0 0)
(178.034 0 0)
(179.022 0 0)
(180.003 0 0)
(180.979 0 0)
(181.948 0 0)
(182.911 0 0)
(183.871 0 0)
(184.813 0 0)
(185.785 0 0)
(186.638 0 0)
(187.835 0 0)
(104.515 0 0)
(105.291 0 0)
(106.116 0 0)
(106.982 0 0)
(107.887 0 0)
(108.825 0 0)
(109.793 0 0)
(110.787 0 0)
(111.806 0 0)
(112.845 0 0)
(113.902 0 0)
(114.975 0 0)
(116.062 0 0)
(117.162 0 0)
(118.272 0 0)
(119.392 0 0)
(120.519 0 0)
(121.653 0 0)
(122.792 0 0)
(123.936 0 0)
(125.084 0 0)
(126.235 0 0)
(127.388 0 0)
(128.543 0 0)
(129.699 0 0)
(130.855 0 0)
(132.011 0 0)
(133.166 0 0)
(134.321 0 0)
(135.474 0 0)
(136.626 0 0)
(137.775 0 0)
(138.922 0 0)
(140.067 0 0)
(141.209 0 0)
(142.348 0 0)
(143.483 0 0)
(144.615 0 0)
(145.744 0 0)
(146.868 0 0)
(147.989 0 0)
(149.105 0 0)
(150.218 0 0)
(151.325 0 0)
(152.429 0 0)
(153.527 0 0)
(154.621 0 0)
(155.71 0 0)
(156.794 0 0)
(157.873 0 0)
(158.946 0 0)
(160.015 0 0)
(161.078 0 0)
(162.136 0 0)
(163.189 0 0)
(164.236 0 0)
(165.278 0 0)
(166.314 0 0)
(167.344 0 0)
(168.369 0 0)
(169.388 0 0)
(170.401 0 0)
(171.409 0 0)
(172.411 0 0)
(173.407 0 0)
(174.397 0 0)
(175.381 0 0)
(176.359 0 0)
(177.331 0 0)
(178.298 0 0)
(179.258 0 0)
(180.212 0 0)
(181.161 0 0)
(182.102 0 0)
(183.041 0 0)
(183.963 0 0)
(184.913 0 0)
(185.749 0 0)
(186.917 0 0)
(105.234 0 0)
(106.032 0 0)
(106.87 0 0)
(107.745 0 0)
(108.653 0 0)
(109.59 0 0)
(110.553 0 0)
(111.539 0 0)
(112.545 0 0)
(113.57 0 0)
(114.611 0 0)
(115.667 0 0)
(116.734 0 0)
(117.813 0 0)
(118.901 0 0)
(119.997 0 0)
(121.101 0 0)
(122.21 0 0)
(123.324 0 0)
(124.443 0 0)
(125.565 0 0)
(126.689 0 0)
(127.816 0 0)
(128.944 0 0)
(130.073 0 0)
(131.202 0 0)
(132.331 0 0)
(133.46 0 0)
(134.588 0 0)
(135.714 0 0)
(136.839 0 0)
(137.962 0 0)
(139.083 0 0)
(140.202 0 0)
(141.318 0 0)
(142.43 0 0)
(143.54 0 0)
(144.646 0 0)
(145.749 0 0)
(146.849 0 0)
(147.944 0 0)
(149.036 0 0)
(150.123 0 0)
(151.206 0 0)
(152.285 0 0)
(153.359 0 0)
(154.429 0 0)
(155.494 0 0)
(156.554 0 0)
(157.609 0 0)
(158.659 0 0)
(159.705 0 0)
(160.745 0 0)
(161.78 0 0)
(162.81 0 0)
(163.834 0 0)
(164.854 0 0)
(165.867 0 0)
(166.875 0 0)
(167.878 0 0)
(168.875 0 0)
(169.867 0 0)
(170.853 0 0)
(171.833 0 0)
(172.807 0 0)
(173.776 0 0)
(174.739 0 0)
(175.696 0 0)
(176.647 0 0)
(177.593 0 0)
(178.532 0 0)
(179.466 0 0)
(180.394 0 0)
(181.315 0 0)
(182.233 0 0)
(183.135 0 0)
(184.065 0 0)
(184.883 0 0)
(186.022 0 0)
(105.97 0 0)
(106.782 0 0)
(107.629 0 0)
(108.507 0 0)
(109.414 0 0)
(110.347 0 0)
(111.302 0 0)
(112.278 0 0)
(113.272 0 0)
(114.281 0 0)
(115.305 0 0)
(116.342 0 0)
(117.39 0 0)
(118.447 0 0)
(119.513 0 0)
(120.587 0 0)
(121.666 0 0)
(122.751 0 0)
(123.841 0 0)
(124.935 0 0)
(126.031 0 0)
(127.13 0 0)
(128.231 0 0)
(129.333 0 0)
(130.436 0 0)
(131.54 0 0)
(132.643 0 0)
(133.745 0 0)
(134.847 0 0)
(135.948 0 0)
(137.047 0 0)
(138.144 0 0)
(139.24 0 0)
(140.333 0 0)
(141.423 0 0)
(142.511 0 0)
(143.595 0 0)
(144.677 0 0)
(145.755 0 0)
(146.83 0 0)
(147.901 0 0)
(148.968 0 0)
(150.031 0 0)
(151.09 0 0)
(152.145 0 0)
(153.196 0 0)
(154.242 0 0)
(155.284 0 0)
(156.321 0 0)
(157.353 0 0)
(158.381 0 0)
(159.404 0 0)
(160.421 0 0)
(161.434 0 0)
(162.442 0 0)
(163.444 0 0)
(164.441 0 0)
(165.433 0 0)
(166.42 0 0)
(167.401 0 0)
(168.377 0 0)
(169.347 0 0)
(170.312 0 0)
(171.271 0 0)
(172.225 0 0)
(173.173 0 0)
(174.115 0 0)
(175.052 0 0)
(175.982 0 0)
(176.907 0 0)
(177.827 0 0)
(178.74 0 0)
(179.648 0 0)
(180.549 0 0)
(181.447 0 0)
(182.329 0 0)
(183.238 0 0)
(184.04 0 0)
(185.151 0 0)
(106.716 0 0)
(107.536 0 0)
(108.387 0 0)
(109.266 0 0)
(110.169 0 0)
(111.095 0 0)
(112.04 0 0)
(113.004 0 0)
(113.983 0 0)
(114.977 0 0)
(115.984 0 0)
(117.001 0 0)
(118.029 0 0)
(119.065 0 0)
(120.109 0 0)
(121.16 0 0)
(122.216 0 0)
(123.278 0 0)
(124.343 0 0)
(125.412 0 0)
(126.484 0 0)
(127.558 0 0)
(128.634 0 0)
(129.711 0 0)
(130.789 0 0)
(131.867 0 0)
(132.945 0 0)
(134.022 0 0)
(135.099 0 0)
(136.174 0 0)
(137.248 0 0)
(138.321 0 0)
(139.391 0 0)
(140.46 0 0)
(141.525 0 0)
(142.589 0 0)
(143.649 0 0)
(144.706 0 0)
(145.76 0 0)
(146.811 0 0)
(147.859 0 0)
(148.902 0 0)
(149.942 0 0)
(150.978 0 0)
(152.01 0 0)
(153.038 0 0)
(154.061 0 0)
(155.08 0 0)
(156.095 0 0)
(157.105 0 0)
(158.111 0 0)
(159.111 0 0)
(160.107 0 0)
(161.098 0 0)
(162.084 0 0)
(163.065 0 0)
(164.041 0 0)
(165.012 0 0)
(165.977 0 0)
(166.938 0 0)
(167.893 0 0)
(168.842 0 0)
(169.786 0 0)
(170.725 0 0)
(171.658 0 0)
(172.586 0 0)
(173.508 0 0)
(174.425 0 0)
(175.335 0 0)
(176.241 0 0)
(177.14 0 0)
(178.034 0 0)
(178.922 0 0)
(179.804 0 0)
(180.682 0 0)
(181.545 0 0)
(182.434 0 0)
(183.219 0 0)
(184.303 0 0)
(107.467 0 0)
(108.292 0 0)
(109.143 0 0)
(110.018 0 0)
(110.915 0 0)
(111.832 0 0)
(112.766 0 0)
(113.716 0 0)
(114.68 0 0)
(115.657 0 0)
(116.646 0 0)
(117.644 0 0)
(118.651 0 0)
(119.667 0 0)
(120.689 0 0)
(121.717 0 0)
(122.751 0 0)
(123.789 0 0)
(124.831 0 0)
(125.876 0 0)
(126.924 0 0)
(127.974 0 0)
(129.025 0 0)
(130.078 0 0)
(131.131 0 0)
(132.184 0 0)
(133.238 0 0)
(134.291 0 0)
(135.343 0 0)
(136.394 0 0)
(137.444 0 0)
(138.492 0 0)
(139.539 0 0)
(140.583 0 0)
(141.625 0 0)
(142.664 0 0)
(143.701 0 0)
(144.735 0 0)
(145.766 0 0)
(146.794 0 0)
(147.818 0 0)
(148.839 0 0)
(149.856 0 0)
(150.869 0 0)
(151.879 0 0)
(152.884 0 0)
(153.886 0 0)
(154.883 0 0)
(155.876 0 0)
(156.864 0 0)
(157.848 0 0)
(158.827 0 0)
(159.802 0 0)
(160.772 0 0)
(161.737 0 0)
(162.697 0 0)
(163.652 0 0)
(164.602 0 0)
(165.547 0 0)
(166.487 0 0)
(167.422 0 0)
(168.351 0 0)
(169.276 0 0)
(170.194 0 0)
(171.108 0 0)
(172.016 0 0)
(172.918 0 0)
(173.815 0 0)
(174.706 0 0)
(175.592 0 0)
(176.472 0 0)
(177.347 0 0)
(178.216 0 0)
(179.078 0 0)
(179.938 0 0)
(180.782 0 0)
(181.651 0 0)
(182.42 0 0)
(183.478 0 0)
(108.219 0 0)
(109.044 0 0)
(109.892 0 0)
(110.761 0 0)
(111.65 0 0)
(112.556 0 0)
(113.477 0 0)
(114.413 0 0)
(115.361 0 0)
(116.321 0 0)
(117.291 0 0)
(118.27 0 0)
(119.258 0 0)
(120.252 0 0)
(121.253 0 0)
(122.259 0 0)
(123.27 0 0)
(124.286 0 0)
(125.305 0 0)
(126.327 0 0)
(127.351 0 0)
(128.377 0 0)
(129.405 0 0)
(130.434 0 0)
(131.463 0 0)
(132.493 0 0)
(133.522 0 0)
(134.551 0 0)
(135.58 0 0)
(136.607 0 0)
(137.634 0 0)
(138.659 0 0)
(139.682 0 0)
(140.703 0 0)
(141.722 0 0)
(142.738 0 0)
(143.752 0 0)
(144.763 0 0)
(145.772 0 0)
(146.777 0 0)
(147.779 0 0)
(148.777 0 0)
(149.773 0 0)
(150.764 0 0)
(151.752 0 0)
(152.736 0 0)
(153.716 0 0)
(154.692 0 0)
(155.663 0 0)
(156.631 0 0)
(157.594 0 0)
(158.552 0 0)
(159.506 0 0)
(160.455 0 0)
(161.4 0 0)
(162.34 0 0)
(163.275 0 0)
(164.205 0 0)
(165.13 0 0)
(166.05 0 0)
(166.965 0 0)
(167.875 0 0)
(168.779 0 0)
(169.678 0 0)
(170.572 0 0)
(171.461 0 0)
(172.344 0 0)
(173.222 0 0)
(174.095 0 0)
(174.961 0 0)
(175.823 0 0)
(176.678 0 0)
(177.529 0 0)
(178.373 0 0)
(179.214 0 0)
(180.04 0 0)
(180.89 0 0)
(181.642 0 0)
(182.674 0 0)
(108.967 0 0)
(109.79 0 0)
(110.632 0 0)
(111.494 0 0)
(112.372 0 0)
(113.266 0 0)
(114.174 0 0)
(115.095 0 0)
(116.027 0 0)
(116.969 0 0)
(117.921 0 0)
(118.88 0 0)
(119.848 0 0)
(120.822 0 0)
(121.801 0 0)
(122.786 0 0)
(123.775 0 0)
(124.768 0 0)
(125.765 0 0)
(126.764 0 0)
(127.765 0 0)
(128.768 0 0)
(129.773 0 0)
(130.779 0 0)
(131.785 0 0)
(132.792 0 0)
(133.798 0 0)
(134.804 0 0)
(135.81 0 0)
(136.814 0 0)
(137.818 0 0)
(138.82 0 0)
(139.82 0 0)
(140.819 0 0)
(141.815 0 0)
(142.81 0 0)
(143.801 0 0)
(144.791 0 0)
(145.777 0 0)
(146.76 0 0)
(147.741 0 0)
(148.718 0 0)
(149.692 0 0)
(150.662 0 0)
(151.629 0 0)
(152.592 0 0)
(153.551 0 0)
(154.506 0 0)
(155.457 0 0)
(156.404 0 0)
(157.346 0 0)
(158.285 0 0)
(159.219 0 0)
(160.148 0 0)
(161.073 0 0)
(161.993 0 0)
(162.908 0 0)
(163.819 0 0)
(164.724 0 0)
(165.625 0 0)
(166.521 0 0)
(167.411 0 0)
(168.297 0 0)
(169.177 0 0)
(170.052 0 0)
(170.922 0 0)
(171.787 0 0)
(172.646 0 0)
(173.5 0 0)
(174.348 0 0)
(175.191 0 0)
(176.028 0 0)
(176.861 0 0)
(177.686 0 0)
(178.509 0 0)
(179.317 0 0)
(180.148 0 0)
(180.885 0 0)
(181.892 0 0)
(109.71 0 0)
(110.527 0 0)
(111.363 0 0)
(112.215 0 0)
(113.082 0 0)
(113.963 0 0)
(114.856 0 0)
(115.761 0 0)
(116.676 0 0)
(117.601 0 0)
(118.534 0 0)
(119.474 0 0)
(120.422 0 0)
(121.375 0 0)
(122.334 0 0)
(123.298 0 0)
(124.265 0 0)
(125.237 0 0)
(126.211 0 0)
(127.188 0 0)
(128.167 0 0)
(129.148 0 0)
(130.13 0 0)
(131.114 0 0)
(132.097 0 0)
(133.082 0 0)
(134.066 0 0)
(135.05 0 0)
(136.033 0 0)
(137.015 0 0)
(137.997 0 0)
(138.977 0 0)
(139.955 0 0)
(140.932 0 0)
(141.906 0 0)
(142.879 0 0)
(143.849 0 0)
(144.817 0 0)
(145.782 0 0)
(146.745 0 0)
(147.704 0 0)
(148.66 0 0)
(149.613 0 0)
(150.563 0 0)
(151.509 0 0)
(152.452 0 0)
(153.391 0 0)
(154.326 0 0)
(155.257 0 0)
(156.184 0 0)
(157.107 0 0)
(158.025 0 0)
(158.939 0 0)
(159.849 0 0)
(160.755 0 0)
(161.656 0 0)
(162.552 0 0)
(163.443 0 0)
(164.33 0 0)
(165.212 0 0)
(166.089 0 0)
(166.961 0 0)
(167.828 0 0)
(168.69 0 0)
(169.547 0 0)
(170.398 0 0)
(171.245 0 0)
(172.086 0 0)
(172.921 0 0)
(173.752 0 0)
(174.577 0 0)
(175.396 0 0)
(176.211 0 0)
(177.018 0 0)
(177.824 0 0)
(178.614 0 0)
(179.427 0 0)
(180.149 0 0)
(181.131 0 0)
(110.445 0 0)
(111.255 0 0)
(112.081 0 0)
(112.922 0 0)
(113.777 0 0)
(114.644 0 0)
(115.523 0 0)
(116.411 0 0)
(117.31 0 0)
(118.216 0 0)
(119.131 0 0)
(120.052 0 0)
(120.98 0 0)
(121.914 0 0)
(122.852 0 0)
(123.795 0 0)
(124.741 0 0)
(125.691 0 0)
(126.644 0 0)
(127.6 0 0)
(128.557 0 0)
(129.517 0 0)
(130.477 0 0)
(131.439 0 0)
(132.401 0 0)
(133.363 0 0)
(134.325 0 0)
(135.288 0 0)
(136.249 0 0)
(137.21 0 0)
(138.17 0 0)
(139.129 0 0)
(140.086 0 0)
(141.041 0 0)
(141.995 0 0)
(142.947 0 0)
(143.896 0 0)
(144.843 0 0)
(145.788 0 0)
(146.73 0 0)