/*--------------------------------*- C++ -*----------------------------------*\
| =========                 |                                                 |
| \\      /  F ield         | OpenFOAM: The Open Source CFD Toolbox           |
|  \\    /   O peration     | Version:  2312                                  |
|   \\  /    A nd           | Website:  www.openfoam.com                      |
|    \\/     M anipulation  |                                                 |
\*---------------------------------------------------------------------------*/
FoamFile
{
    version     2.0;
    format      ascii;
    arch        "LSB;label=32;scalar=64";
    class       surfaceScalarField;
    location    "0.061";
    object      phi;
}
// * * * * * * * * * * * * * * * * * * * * * * * * * * * * * * * * * * * * * //

dimensions      [0 3 -1 0 0 0 0];

oriented        oriented;

internalField   nonuniform List<scalar> 
62015
(
70.4621
0.137498
-69.9171
70.9891
0.135929
71.4987
0.13422
71.992
0.132377
72.4698
0.130401
72.9329
0.128295
73.3822
0.126063
73.8182
0.123707
74.2417
0.12123
74.6533
0.118635
75.0536
0.115925
75.4431
0.113102
75.8224
0.110169
76.1919
0.10713
76.5521
0.103986
76.9034
0.10074
77.2463
0.0973963
77.5812
0.0939565
77.9083
0.0904235
78.2282
0.0868005
78.541
0.0830905
78.847
0.0792957
79.1467
0.0754197
79.4402
0.0714652
79.7279
0.067435
80.0099
0.0633325
80.2865
0.05916
80.5579
0.0549213
80.8242
0.0506192
81.0858
0.0462565
81.3428
0.0418363
81.5952
0.0373621
81.8433
0.0328372
82.0873
0.0282638
82.3271
0.0236464
82.563
0.0189868
82.795
0.0142893
83.0232
0.00955706
83.2477
0.00479253
83.4685
0
83.6857
-0.00481766
83.8994
-0.00965757
84.1095
-0.0145154
84.3161
-0.0193885
84.5192
-0.0242738
84.7187
-0.0291667
84.9146
-0.0340652
85.107
-0.0389646
85.2955
-0.0438625
85.4805
-0.0487552
85.6622
-0.0536389
85.8387
-0.0585107
86.009
-0.0633658
86.1854
-0.0681999
86.3605
-0.0730201
86.467
-0.0778189
86.6144
-0.0825201
87.0988
-0.087229
86.9614
-0.0923106
85.3711
-0.0966476
88.9308
-0.0989661
95.7142
-0.107918
69.2739
-0.122391
21.5426
-0.0884628
1.19685
-0.023079
-0.00129008
-0.000867263
-8.41885e-05
2.75856e-06
4.07073e-07
5.03422e-08
3.81107e-09
-4.37283e-10
-4.85649e-11
-1.47803e-12
-3.0191e-14
4.81897e-14
4.42316e-15
-1.40815e-16
-2.37859e-17
-4.44199e-18
-3.27972e-19
4.72643e-20
5.24705e-21
3.081e-22
1.04229e-23
-9.9827e-24
-9.29345e-25
1.34634e-26
4.71759e-27
1.98225e-27
-1.75348e-29
1.59534e-28
69.0209
0.273592
-68.5323
69.4943
0.270302
69.9527
0.266751
70.397
0.262944
70.8279
0.258886
71.2461
0.254582
71.6522
0.250039
72.0469
0.24526
72.4307
0.240251
72.8041
0.235017
73.1677
0.229563
73.5219
0.223895
73.8672
0.218017
74.204
0.211934
74.5327
0.205653
74.8537
0.199178
75.1673
0.192514
75.4739
0.185667
75.7738
0.178642
76.0674
0.171444
76.3548
0.16408
76.6365
0.156554
76.9126
0.148871
77.1833
0.141038
77.449
0.13306
77.7098
0.124944
77.966
0.116693
78.2177
0.108316
78.4651
0.0998159
78.7083
0.0912007
78.9476
0.0824751
79.1831
0.0736457
79.4149
0.0647181
79.6431
0.0556992
79.8678
0.0465941
80.0892
0.0374096
80.3073
0.0281516
80.5223
0.0188263
80.7341
0.00944045
80.9428
0
81.1485
-0.00948864
81.3512
-0.0190191
81.551
-0.0285852
81.7478
-0.0381801
81.9416
-0.0477974
82.1325
-0.0574309
82.3204
-0.0670733
82.5054
-0.0767192
82.6872
-0.0863611
82.8659
-0.0959929
83.0416
-0.105607
83.2145
-0.115199
83.3823
-0.124761
83.5456
-0.134283
83.7171
-0.143758
83.88
-0.153208
83.9725
-0.162593
84.1559
-0.171761
84.6434
-0.181064
84.2481
-0.191106
82.8456
-0.19884
87.7493
-0.203388
91.9179
-0.225667
60.3056
-0.248346
15.6353
-0.157834
0.586306
-0.032126
-0.00176019
-0.000726605
-3.20709e-05
4.25978e-06
2.66827e-07
3.12745e-08
9.02684e-10
-5.45828e-10
-2.79921e-11
2.50827e-13
7.83563e-14
5.79154e-14
2.45945e-15
-3.89414e-16
-2.54531e-17
-5.29394e-18
-1.62871e-19
9.82361e-20
5.15711e-21
2.59934e-22
-6.95413e-24
-2.17681e-23
-9.82769e-25
9.22731e-26
4.85194e-27
8.34277e-27
67.5947
0.408176
-67.1575
68.019
0.403038
68.4304
0.397529
68.8296
0.391656
69.2173
0.385427
69.5941
0.378848
69.9604
0.371925
70.3168
0.364668
70.6637
0.357082
71.0017
0.349174
71.3312
0.340952
71.6525
0.332422
71.9661
0.323592
72.2724
0.31447
72.5716
0.305062
72.8642
0.295376
73.1504
0.285419
73.4306
0.2752
73.705
0.264724
73.9738
0.254001
74.2375
0.243038
74.4961
0.231842
74.7499
0.220422
74.9992
0.208786
75.2441
0.196941
75.4849
0.184896
75.7217
0.17266
75.9547
0.160239
76.184
0.147644
76.4098
0.134882
76.6323
0.121961
76.8516
0.108891
77.0677
0.0956801
77.2809
0.0823372
77.4911
0.0688704
77.6986
0.0552895
77.9033
0.0416031
78.1053
0.0278196
78.3048
0.013949
78.5017
0
78.6962
-0.0140182
78.8882
-0.0280965
79.0777
-0.042226
79.2648
-0.0563964
79.4495
-0.0705991
79.6318
-0.0848249
79.8116
-0.0990636
79.9889
-0.113307
80.1638
-0.127544
80.3361
-0.141766
80.5057
-0.155964
80.6729
-0.170127
80.8377
-0.184247
80.9975
-0.198315
81.1546
-0.212314
81.3216
-0.22624
81.4705
-0.240127
81.5532
-0.253877
81.7837
-0.267285
82.2417
-0.281134
81.5524
-0.295884
80.5741
-0.305779
86.83
-0.31365
86.9472
-0.354388
50.5496
-0.370388
10.3926
-0.201698
0.234638
-0.0309693
-0.00131121
-0.000376746
-9.57848e-06
4.16548e-06
1.60099e-07
9.32265e-09
-6.21028e-11
-5.06204e-10
-1.61723e-11
1.8727e-12
1.05428e-13
5.47988e-14
1.40983e-15
-6.37605e-16
-2.55273e-17
-4.9433e-18
-6.57097e-20
1.59649e-19
5.42606e-21
-3.60534e-24
-2.28693e-23
-3.95357e-23
2.7259e-25
-1.18319e-24
66.1678
0.541063
-65.7768
66.5477
0.533973
66.9166
0.526415
67.275
0.518395
67.6235
0.509923
67.9625
0.501007
68.2925
0.491656
68.6139
0.481878
68.9272
0.471683
69.2328
0.461078
69.531
0.450073
69.8222
0.438676
70.1067
0.426897
70.3849
0.414745
70.657
0.402227
70.9234
0.389356
71.1843
0.376138
71.4399
0.362584
71.6907
0.348704
71.9367
0.334507
72.1782
0.320003
72.4154
0.305203
72.6486
0.290115
72.8779
0.27475
73.1035
0.25912
73.3255
0.243232
73.5442
0.2271
73.7597
0.210732
73.9721
0.194141
74.1816
0.177336
74.3883
0.160328
74.5922
0.14313
74.7937
0.12575
74.9926
0.108202
75.1891
0.0904962
75.3834
0.0726438
75.5754
0.0546562
75.7652
0.0365455
75.9529
0.0183228
76.1386
0
76.3222
-0.0184112
76.5038
-0.036899
76.6835
-0.0554516
76.8612
-0.0740564
77.037
-0.0927029
77.2108
-0.111377
77.3826
-0.130069
77.5525
-0.148765
77.7204
-0.167454
77.8862
-0.186123
78.0499
-0.20476
78.2113
-0.223352
78.3709
-0.241889
78.5283
-0.260357
78.6808
-0.278745
78.833
-0.29703
78.9953
-0.315217
79.1288
-0.333347
79.2089
-0.351227
79.4929
-0.368684
79.8751
-0.387072
78.9022
-0.406024
78.623
-0.416871
85.8778
-0.430799
80.7936
-0.493116
40.9816
-0.479878
6.41505
-0.22259
0.0777082
-0.0257109
-0.000822693
-0.000145962
-1.85932e-06
3.51238e-06
9.51284e-08
-3.81905e-09
-3.38723e-10
-4.37308e-10
-9.80795e-12
3.1332e-12
1.11145e-13
5.01546e-14
8.43215e-16
-9.2238e-16
-2.66834e-17
-4.30944e-18
1.88103e-21
2.51825e-19
6.3411e-21
-5.0208e-22
-7.21945e-23
-4.12665e-23
64.7367
0.672069
-64.3872
65.0767
0.662947
65.4073
0.653266
65.7288
0.643037
66.0418
0.632269
66.3466
0.620972
66.6437
0.609156
66.9334
0.59683
67.2161
0.584006
67.4922
0.570692
67.7619
0.556901
68.0255
0.54264
68.2834
0.527921
68.5359
0.512756
68.7831
0.497154
69.0255
0.481127
69.2631
0.464686
69.4963
0.447842
69.7253
0.430606
69.9502
0.41299
70.1714
0.395007
70.3888
0.376667
70.6029
0.357982
70.8136
0.338966
71.0213
0.31963
71.226
0.299987
71.4279
0.280049
71.6271
0.259828
71.8238
0.239339
72.018
0.218594
72.2099
0.197606
72.3996
0.176388
72.5873
0.154953
72.7729
0.133316
72.9565
0.11149
73.1383
0.0894873
73.3184
0.0673236
73.4966
0.0450116
73.6732
0.0225656
73.8482
0
74.0216
-0.0226714
74.1934
-0.0454346
74.3636
-0.0682749
74.5323
-0.0911777
74.6995
-0.114129
74.8652
-0.137115
75.0293
-0.16012
75.1919
-0.18313
75.3529
-0.20613
75.5123
-0.229106
75.67
-0.252043
75.826
-0.274927
75.9802
-0.297741
76.133
-0.320472
76.2837
-0.343108
76.4298
-0.365629
76.5781
-0.388009
76.735
-0.41027
76.8536
-0.432443
76.9394
-0.454222
77.271
-0.475575
77.5376
-0.498456
76.3578
-0.520897
76.9527
-0.531979
84.5347
-0.555555
74.0655
-0.638283
32.7114
-0.573563
3.84545
-0.229405
0.0217385
-0.02024
-0.000500032
-3.26536e-05
5.0213e-07
2.88636e-06
5.9223e-08
-1.12812e-08
-4.12008e-10
-3.86895e-10
-6.47089e-12
4.35619e-12
1.16334e-13
4.85032e-14
5.27562e-16
-1.33337e-15
-3.04637e-17
-3.82116e-18
6.21599e-20
4.16801e-19
-1.42115e-21
8.5045e-21
63.3033
0.801042
-62.991
63.6075
0.789823
63.9035
0.777966
64.1918
0.76548
64.4727
0.752378
64.7466
0.738669
65.0138
0.724364
65.2747
0.709476
65.5296
0.694013
65.7788
0.677989
66.0225
0.661414
66.2611
0.644301
66.4947
0.626661
66.7237
0.608507
66.9482
0.58985
67.1685
0.570704
67.3849
0.551081
67.5974
0.530993
67.8064
0.510455
68.0119
0.489478
68.2143
0.468078
68.4136
0.446266
68.61
0.424058
68.8036
0.401467
68.9947
0.378507
69.1834
0.355193
69.3697
0.331539
69.5538
0.30756
69.7358
0.28327
69.9159
0.258685
70.0941
0.233821
70.2705
0.208691
70.4453
0.183312
70.6184
0.157699
70.79
0.131868
70.9602
0.105835
71.129
0.0796152
71.2964
0.0532256
71.4625
0.0266816
71.6274
0
71.791
-0.0268031
71.9535
-0.0537114
72.1148
-0.0807078
72.2749
-0.107777
72.4339
-0.1349
72.5917
-0.162063
72.7484
-0.189246
72.9039
-0.216435
73.0583
-0.243612
73.2114
-0.270759
73.3632
-0.297861
73.5138
-0.3249
73.6629
-0.351859
73.8107
-0.378721
73.9575
-0.405468
74.1021
-0.432088
74.2428
-0.458556
74.3877
-0.484842
74.5388
-0.510988
74.6445
-0.537002
74.7418
-0.562457
75.1075
-0.58758
75.2401
-0.614824
73.9554
-0.639998
75.4476
-0.651197
82.6878
-0.687737
67.476
-0.785935
26.1403
-0.653979
2.32871
-0.230672
0.0038283
-0.0160158
-0.000315716
1.95992e-05
1.19038e-06
2.47079e-06
4.02736e-08
-1.66134e-08
-4.42341e-10
-3.71903e-10
-4.80772e-12
5.95076e-12
1.298e-13
5.31003e-14
3.54261e-16
-2.03354e-15
-3.89447e-17
-4.1693e-18
7.47889e-19
1.16866e-19
61.871
0.927857
-61.5922
62.1429
0.914496
62.4078
0.900422
62.666
0.885648
62.918
0.870185
63.1639
0.854045
63.4041
0.837239
63.6389
0.81978
63.8685
0.80168
64.0932
0.782951
64.3133
0.763606
64.529
0.743659
64.7404
0.723121
64.9479
0.702007
65.1517
0.680331
65.3518
0.658105
65.5486
0.635345
65.7422
0.612065
65.9328
0.588279
66.1206
0.564001
66.3057
0.539248
66.4882
0.514035
66.6683
0.488375
66.8462
0.462287
67.022
0.435785
67.1958
0.408885
67.3677
0.381604
67.5378
0.353958
67.7063
0.325965
67.8732
0.29764
68.0386
0.269
68.2026
0.240065
68.3654
0.210849
68.5269
0.181371
68.6873
0.151649
68.8465
0.1217
69.0047
0.0915428
69.1619
0.0611947
69.3182
0.0306745
69.4736
0
69.628
-0.0308102
69.7817
-0.0617372
69.9344
-0.0927629
70.0864
-0.123868
70.2376
-0.155035
70.3879
-0.186244
70.5374
-0.217476
70.6861
-0.248713
70.834
-0.279934
70.981
-0.311122
71.1271
-0.342258
71.2723
-0.373321
71.4164
-0.404294
71.5595
-0.435157
71.7016
-0.46589
71.8429
-0.496475
71.9822
-0.526897
72.1182
-0.557125
72.26
-0.58713
72.4051
-0.616972
72.5007
-0.646624
72.6119
-0.675551
72.9963
-0.704313
72.9996
-0.735708
71.701
-0.762976
73.9802
-0.774612
80.4335
-0.826247
61.5658
-0.933451
21.2353
-0.727285
1.47469
-0.232827
-0.00168474
-0.0133013
-0.000216272
4.66936e-05
1.4143e-06
2.30705e-06
3.09943e-08
-2.2169e-08
-4.85802e-10
-4.06692e-10
-4.20712e-12
8.47706e-12
1.59255e-13
7.04932e-14
3.00276e-16
-3.35634e-15
-7.12025e-18
-5.66579e-17
60.4436
1.05242
-60.1949
60.6864
1.03688
60.9232
1.02056
61.1543
1.00348
61.38
0.98564
61.6005
0.96706
61.8162
0.947749
62.0272
0.927723
62.2339
0.906993
62.4364
0.885573
62.6349
0.863476
62.8297
0.840718
63.0209
0.817312
63.2088
0.793273
63.3935
0.768616
63.5752
0.743355
63.7541
0.717506
63.9304
0.691086
64.1041
0.664109
64.2755
0.636593
64.4447
0.608553
64.6118
0.580007
64.7769
0.550971
64.9402
0.521462
65.1019
0.491499
65.2619
0.461098
65.4205
0.430278
65.5776
0.399058
65.7335
0.367454
65.8882
0.335486
66.0417
0.303173
66.1942
0.270533
66.3458
0.237587
66.4965
0.204352
66.6463
0.170849
66.7953
0.137097
66.9436
0.103116
67.0913
0.0689262
67.2382
0.0345474
67.3846
0
67.5304
-0.0346958
67.6757
-0.0695196
67.8204
-0.104451
67.9646
-0.139469
68.1083
-0.174553
68.2515
-0.209683
68.3941
-0.244837
68.5363
-0.279994
68.6779
-0.315134
68.8189
-0.350236
68.9594
-0.385278
69.0993
-0.420239
69.2385
-0.4551
69.377
-0.489837
69.5146
-0.524431
69.6516
-0.55886
69.7881
-0.593103
69.9227
-0.627144
70.0546
-0.660947
70.1933
-0.694485
70.3328
-0.727834
70.4213
-0.760925
70.5451
-0.793132
70.935
-0.825383
70.8324
-0.860663
69.5789
-0.889614
72.4493
-0.90215
77.9707
-0.969364
56.6626
-1.08019
17.7873
-0.801191
1.00762
-0.240711
-0.00341811
-0.0120081
-0.000166244
6.6001e-05
1.56166e-06
2.43333e-06
2.79111e-08
-2.98759e-08
-5.7254e-10
-5.24485e-10
-4.59001e-12
1.2905e-11
2.17667e-13
1.19001e-13
-6.04539e-15
5.49044e-16
59.0243
1.17465
-58.8027
59.2408
1.15691
59.4522
1.13834
59.6587
1.11893
59.8607
1.09871
60.0583
1.07769
60.2517
1.05588
60.4412
1.03329
60.627
1.00995
60.8092
0.985856
60.9881
0.961032
61.1638
0.935493
61.3366
0.909251
61.5065
0.882325
61.6738
0.854729
61.8386
0.826479
62.0011
0.797593
62.1614
0.768088
62.3197
0.73798
62.476
0.707287
62.6306
0.676027
62.7834
0.644218
62.9348
0.611879
63.0846
0.579029
63.2332
0.545685
63.3805
0.511867
63.5267
0.477595
63.6719
0.44289
63.8161
0.407769
63.9594
0.372254
64.1019
0.336365
64.2437
0.300123
64.3848
0.263548
64.5253
0.226662
64.6653
0.189485
64.8048
0.152039
64.9438
0.114346
65.0824
0.0764274
65.2207
0.0383046
65.3586
0
65.4962
-0.0384644
65.6336
-0.0770666
65.7706
-0.115784
65.9075
-0.154594
66.044
-0.193474
66.1804
-0.232403
66.3164
-0.271356
66.4523
-0.310311
66.5878
-0.349246
66.7231
-0.388138
66.8581
-0.426963
66.9927
-0.4657
67.127
-0.504325
67.2609
-0.542815
67.3943
-0.581148
67.5272
-0.6193
67.6596
-0.657248
67.7918
-0.694971
67.9222
-0.732451
68.0505
-0.769646
68.1862
-0.80653
68.3208
-0.843197
68.4047
-0.879534
68.5373
-0.914844
68.9236
-0.950394
68.75
-0.989274
67.5644
-1.01978
70.7918
-1.03353
75.5079
-1.11511
52.9285
-1.22724
15.5589
-0.883701
0.764052
-0.258588
-0.00409463
-0.0121153
-0.00014741
8.61704e-05
1.77779e-06
2.97054e-06
3.02726e-08
-4.20774e-08
-7.36875e-10
-8.12763e-10
-6.51444e-12
2.11073e-11
2.47591e-13
3.30614e-13
57.6159
1.29449
-57.4189
57.8088
1.27455
57.9972
1.2537
58.1816
1.23197
58.362
1.20937
58.5387
1.18591
58.712
1.16162
58.8818
1.13649
59.0486
1.11055
59.2124
1.08381
59.3734
1.05629
59.5317
1.028
59.6876
0.998959
59.8412
0.969186
59.9925
0.938697
60.1419
0.907508
60.2893
0.875638
60.435
0.843104
60.579
0.809925
60.7215
0.77612
60.8626
0.741707
61.0023
0.706707
61.1409
0.671139
61.2784
0.635022
61.4149
0.598378
61.5505
0.561227
61.6852
0.523589
61.8192
0.485486
61.9526
0.44694
62.0853
0.407971
62.2176
0.368603
62.3493
0.328856
62.4807
0.288754
62.6118
0.248318
62.7426
0.207573
62.8731
0.16654
63.0034
0.125243
63.1336
0.0837046
63.2636
0.041949
63.3936
0
63.5235
-0.042119
63.6533
-0.0843845
63.7832
-0.126772
63.9129
-0.169257
64.0427
-0.211817
64.1725
-0.254425
64.3023
-0.297059
64.432
-0.339694
64.5618
-0.382304
64.6915
-0.424867
64.8211
-0.467357
64.9507
-0.50975
65.0801
-0.55202
65.2094
-0.594144
65.3386
-0.636097
65.4675
-0.677855
65.596
-0.719393
65.7243
-0.760686
65.8526
-0.801711
65.9794
-0.842448
66.1044
-0.882853
66.237
-0.9229
66.3677
-0.962696
66.4491
-1.00209
66.585
-1.04034
66.9629
-1.07896
66.7583
-1.12116
65.634
-1.15339
68.9781
-1.16834
73.2031
-1.26154
50.4164
-1.37659
14.3573
-0.98246
0.658059
-0.291197
-0.00459332
-0.0139153
-0.000153794
0.000112531
2.15094e-06
4.24099e-06
4.01325e-08
-6.2242e-08
-1.03645e-09
-1.5044e-09
3.69528e-11
-1.24495e-11
56.2211
1.41191
-56.0461
56.3925
1.38974
56.5602
1.36663
56.7245
1.34258
56.8854
1.31761
57.0432
1.29173
57.1981
1.26496
57.3501
1.23731
57.4996
1.2088
57.6466
1.17944
57.7912
1.14926
57.9337
1.11826
58.0742
1.08646
58.2127
1.05389
58.3495
1.02055
58.4847
0.986473
58.6183
0.951673
58.7506
0.916169
58.8815
0.87998
59.0113
0.843127
59.14
0.80563
59.2677
0.767509
59.3945
0.728785
59.5205
0.689479
59.6458
0.649614
59.7705
0.609211
59.8947
0.568292
60.0184
0.52688
60.1416
0.484997
60.2646
0.442667
60.3873
0.399912
60.5098
0.356757
60.6321
0.313226
60.7543
0.269341
60.8764
0.225129
60.9986
0.180612
61.1208
0.135815
61.243
0.0907649
61.3653
0.0454846
61.4878
0
61.6104
-0.0456637
61.7331
-0.091481
61.8561
-0.137426
61.9792
-0.183474
62.1025
-0.229598
62.226
-0.275773
62.3498
-0.321973
62.4737
-0.368171
62.5978
-0.414342
62.7221
-0.46046
62.8466
-0.506498
62.9712
-0.552431
63.0959
-0.598232
63.2207
-0.643875
63.3455
-0.689334
63.4704
-0.734583
63.5952
-0.779597
63.7198
-0.824348
63.8445
-0.868811
63.9693
-0.912962
64.0928
-0.956778
64.2148
-1.00021
64.3443
-1.04324
64.4721
-1.08598
64.5527
-1.12826
64.6861
-1.16927
65.0528
-1.21069
64.858
-1.25596
63.7731
-1.29032
67.0031
-1.30615
71.131
-1.40691
49.1115
-1.53005
14.0656
-1.10434
0.653782
-0.344735
-0.00522358
-0.0183132
-0.000190211
0.000148217
2.77292e-06
7.0376e-06
6.44713e-08
-9.49515e-08
-3.20028e-09
-1.54776e-09
54.8419
1.52685
-54.6868
54.9939
1.50248
55.1429
1.47711
55.2889
1.45075
55.4321
1.42342
55.5727
1.39514
55.7109
1.36592
55.8468
1.33578
55.9805
1.30472
56.1121
1.27278
56.2419
1.23997
56.3699
1.20629
56.4963
1.17178
56.6211
1.13645
56.7446
1.10032
56.8668
1.06341
56.9877
1.02573
57.1076
0.987318
57.2266
0.948182
57.3446
0.908346
57.4619
0.867832
57.5785
0.82666
57.6945
0.784854
57.8099
0.742436
57.9249
0.699428
58.0396
0.655854
58.1539
0.611736
58.268
0.5671
58.382
0.521969
58.4958
0.476367
58.6096
0.430319
58.7234
0.383849
58.8373
0.336984
58.9512
0.289748
59.0653
0.242167
59.1796
0.194267
59.2941
0.146074
59.4089
0.0976143
59.524
0.048914
59.6393
0
59.755
-0.049101
59.8711
-0.0983622
59.9875
-0.147756
60.1043
-0.197257
60.2215
-0.246836
60.339
-0.296466
60.457
-0.34612
60.5753
-0.395771
60.694
-0.44539
60.8131
-0.494951
60.9325
-0.544426
61.0523
-0.593787
61.1724
-0.643007
61.2927
-0.692057
61.4133
-0.740912
61.5341
-0.789542
61.6551
-0.83792
61.7763
-0.886021
61.8975
-0.933815
62.0188
-0.981274
62.1404
-1.02837
62.261
-1.07509
62.3803
-1.12138
62.5066
-1.16721
62.6324
-1.2127
62.7138
-1.25769
62.8391
-1.30132
63.1923
-1.34525
63.0451
-1.39332
61.9797
-1.43042
64.8786
-1.4467
69.2726
-1.54978
48.9512
-1.68822
14.6522
-1.25495
0.752583
-0.427662
-0.00606983
-0.02742
-0.000276638
0.000188382
3.73533e-06
1.32883e-05
-1.44519e-07
1.24343e-07
53.48
1.63932
-53.343
53.6146
1.61274
53.7465
1.58512
53.876
1.55647
54.0032
1.52681
54.1282
1.49615
54.2512
1.46451
54.3723
1.43189
54.4917
1.39833
54.6094
1.36384
54.7256
1.32844
54.8404
1.29213
54.9539
1.25495
55.0662
1.21692
55.1774
1.17804
55.2877
1.13835
55.3971
1.09786
55.5056
1.05659
55.6135
1.01457
55.7208
0.971814
55.8276
0.928349
55.934
0.884198
56.0399
0.839383
56.1456
0.793926
56.2511
0.747853
56.3564
0.701188
56.4617
0.653955
56.5669
0.606178
56.6722
0.557885
56.7776
0.509099
56.8831
0.459847
56.9888
0.410155
57.0948
0.360049
57.201
0.309557
57.3076
0.258704
57.4145
0.207519
57.5219
0.156028
57.6296
0.104259
57.7379
0.0522407
57.8466
0
57.9557
-0.0524347
58.0655
-0.105035
58.1757
-0.157773
58.2865
-0.21062
58.3978
-0.263547
58.5097
-0.316525
58.6221
-0.369526
58.735
-0.422521
58.8485
-0.475481
58.9626
-0.528376
59.0771
-0.581179
59.1922
-0.63386
59.3077
-0.68639
59.4237
-0.73874
59.5402
-0.790881
59.657
-0.842785
59.7742
-0.894422
59.8917
-0.945764
60.0096
-0.996783
60.1275
-1.04745
60.2458
-1.09773
60.3646
-1.14761
60.4826
-1.19706
60.5993
-1.24602
60.7223
-1.29447
60.8469
-1.34253
60.9305
-1.39007
61.0437
-1.43617
61.379
-1.48232
61.311
-1.53286
60.2632
-1.57341
62.6331
-1.58997
67.5188
-1.68921
49.823
-1.8496
16.168
-1.43782
0.995246
-0.550901
-0.00691029
-0.0457852
-0.000462374
0.000190357
2.74442e-05
4.71778e-06
52.1371
1.74928
-52.0163
52.2558
1.72052
52.3723
1.69067
52.4868
1.65976
52.5994
1.62778
52.7103
1.59477
52.8195
1.56073
52.9272
1.52569
53.0335
1.48965
53.1385
1.45265
53.2423
1.4147
53.3451
1.37581
53.4468
1.33601
53.5476
1.29531
53.6477
1.25374
53.747
1.21132
53.8458
1.16807
53.944
1.12402
54.0417
1.07917
54.1391
1.03357
54.2362
0.987221
54.3331
0.940159
54.4299
0.892407
54.5265
0.843987
54.6232
0.794925
54.7199
0.745247
54.8168
0.694978
54.9138
0.644144
55.011
0.592772
55.1085
0.540889
55.2063
0.488521
55.3045
0.435696
55.4031
0.38244
55.5022
0.328783
55.6017
0.274753
55.7018
0.220378
55.8024
0.165686
55.9036
0.110706
56.0053
0.0554678
56.1078
0
56.2108
-0.0556679
56.3145
-0.111506
56.4189
-0.167486
56.524
-0.223576
56.6297
-0.279747
56.7361
-0.33597
56.8433
-0.392213
56.9511
-0.448448
57.0596
-0.504642
57.1688
-0.560768
57.2786
-0.616793
57.3891
-0.672689
57.5003
-0.728424
57.612
-0.783969
57.7243
-0.839293
57.8372
-0.894366
57.9506
-0.949158
58.0645
-1.00364
58.1789
-1.05778
58.2937
-1.11155
58.4088
-1.16492
58.5243
-1.21786
58.6404
-1.27034
58.7561
-1.32234
58.8705
-1.37381
58.9902
-1.42471
59.1138
-1.47515
59.2013
-1.52506
59.3003
-1.57351
59.6102
-1.62159
59.6428
-1.67421
58.64
-1.7189
60.3191
-1.7362
65.6917
-1.82507
51.5399
-2.01012
18.7287
-1.65339
1.48069
-0.726677
-0.00645536
-0.082728
-4.58412e-05
-0.000860826
50.8143
1.85675
-50.7083
50.9186
1.82583
51.0212
1.79377
51.1222
1.76061
51.2216
1.72635
51.3196
1.69102
51.4163
1.65462
51.5118
1.61718
51.6062
1.57871
51.6996
1.53924
51.7921
1.49878
51.8838
1.45735
51.9748
1.41498
52.0651
1.37167
52.1549
1.32747
52.2443
1.28238
52.3333
1.23643
52.4219
1.18964
52.5104
1.14204
52.5987
1.09364
52.6869
1.04448
52.7751
0.99458
52.8633
0.943961
52.9517
0.892652
53.0402
0.840677
53.129
0.788063
53.218
0.734838
53.3074
0.681028
53.3972
0.62666
53.4873
0.571762
53.578
0.516364
53.6692
0.460492
53.7609
0.404177
53.8533
0.347446
53.9462
0.290329
54.0398
0.232856
54.1341
0.175057
54.2291
0.11696
54.3248
0.0585982
54.4213
0
54.5186
-0.0588035
54.6166
-0.117782
54.7154
-0.176903
54.8151
-0.236137
54.9155
-0.295453
55.0168
-0.354819
55.1189
-0.414204
55.2218
-0.473577
55.3255
-0.532905
55.43
-0.592159
55.5353
-0.651305
55.6413
-0.710314
55.7482
-0.769152
55.8557
-0.82779
55.9641
-0.886195
56.0731
-0.944337
56.1827
-1.00218
56.293
-1.0597
56.4039
-1.11687
56.5154
-1.17364
56.6275
-1.23
56.7399
-1.28591
56.8528
-1.34133
56.9664
-1.39625
57.08
-1.45063
57.1923
-1.50444
57.3087
-1.55761
57.4311
-1.61024
57.5242
-1.66236
57.6096
-1.71303
57.8843
-1.76284
58.0236
-1.81702
57.1235
-1.86629
58.0197
-1.88576
63.5912
-1.95844
53.7956
-2.16345
22.4734
-1.8977
2.40347
-0.965594
-0.15313
0.0234852
49.5128
1.96173
-49.4201
49.6041
1.92866
49.6941
1.89443
49.7827
1.85905
49.8701
1.82254
49.9565
1.78491
50.0418
1.74619
50.1262
1.70639
50.2098
1.66553
50.2926
1.62363
50.3748
1.58071
50.4564
1.53679
50.5376
1.4919
50.6183
1.44604
50.6988
1.39925
50.779
1.35155
50.859
1.30295
50.9389
1.2535
51.0188
1.2032
51.0987
1.15208
51.1788
1.10017
51.2589
1.0475
51.3393
0.994083
51.42
0.939955
51.501
0.885141
51.5824
0.829668
51.6642
0.773564
51.7465
0.716856
51.8294
0.659573
51.9128
0.601745
51.9968
0.543399
52.0814
0.484567
52.1667
0.425277
52.2528
0.365559
52.3396
0.305445
52.4271
0.244965
52.5155
0.184148
52.6047
0.123028
52.6947
0.0616348
52.7856
0
52.8774
-0.0618445
52.9701
-0.123867
53.0637
-0.186035
53.1582
-0.248317
53.2536
-0.31068
53.3499
-0.373092
53.4471
-0.43552
53.5453
-0.497933
53.6444
-0.560297
53.7444
-0.62258
53.8453
-0.684749
53.9471
-0.746771
54.0498
-0.808615
54.1533
-0.870248
54.2577
-0.931636
54.3629
-0.992748
54.4688
-1.05355
54.5756
-1.11401
54.683
-1.1741
54.7912
-1.23379
54.9001
-1.29303
55.0095
-1.35181
55.1196
-1.41009
55.2301
-1.46784
55.3414
-1.52502
55.453
-1.58162
55.5635
-1.63759
55.6766
-1.69287
55.7971
-1.74753
55.8968
-1.80166
55.9724
-1.85444
56.2022
-1.90583
56.4343
-1.96099
55.7137
-2.01485
55.8458
-2.03874
61.071
-2.09236
56.1267
-2.2997
27.4253
-2.18195
-1.14949
6.87205
48.2334
2.06423
-48.1527
48.313
2.02905
48.3915
1.99266
48.469
1.9551
48.5455
1.91637
48.6212
1.87649
48.6962
1.83548
48.7705
1.79336
48.8442
1.75015
48.9174
1.70587
48.9902
1.66054
49.0627
1.61417
49.1349
1.5668
49.2068
1.51845
49.2787
1.46913
49.3505
1.41887
49.4223
1.36769
49.4942
1.31562
49.5662
1.26269
49.6385
1.20891
49.711
1.15432
49.7838
1.09894
49.8569
1.0428
49.9305
0.985931
50.0046
0.928351
50.0791
0.870093
50.1543
0.811186
50.23
0.751658
50.3064
0.69154
50.3835
0.63086
50.4613
0.56965
50.5399
0.507939
50.6192
0.445759
50.6994
0.38314
50.7804
0.320115
50.8623
0.256714
50.9452
0.19297
51.0289
0.128914
51.1136
0.0645804
51.1992
0
51.2858
-0.0647938
51.3734
-0.129768
51.462
-0.194889
51.5516
-0.260125
51.6422
-0.325441
51.7339
-0.390805
51.8265
-0.456183
51.9202
-0.52154
52.0148
-0.586844
52.1105
-0.652061
52.2072
-0.717158
52.3048
-0.782099
52.4035
-0.846852
52.503
-0.911384
52.6036
-0.97566
52.705
-1.03965
52.8074
-1.10331
52.9106
-1.16662
53.0146
-1.22954
53.1195
-1.29204
53.2251
-1.35409
53.3315
-1.41565
53.4386
-1.47669
53.5464
-1.53717
53.6547
-1.59708
53.7638
-1.65636
53.8736
-1.71501
53.9825
-1.77297
54.0926
-1.8302
54.2104
-1.88671
54.3166
-1.94266
54.3888
-1.99742
54.5679
-2.05033
54.8572
-2.10608
54.3972
-2.16303
53.851
-2.19828
58.5643
-2.2138
55.5415
-2.48716
-2.21923
45.2593
46.9768
2.16427
-46.9071
47.0458
2.127
47.114
2.0885
47.1813
2.04878
47.248
2.00786
47.3141
1.96577
47.3796
1.92252
47.4447
1.87812
47.5095
1.8326
47.5739
1.78598
47.6381
1.73828
47.7022
1.68953
47.7662
1.63973
47.8302
1.58893
47.8942
1.53713
47.9583
1.48437
48.0226
1.43067
48.0871
1.37606
48.1519
1.32055
48.2171
1.26418
48.2826
1.20697
48.3486
1.14896
48.4151
1.09016
48.4822
1.03061
48.5498
0.970338
48.6181
0.909368
48.687
0.847733
48.7567
0.785461
48.8271
0.722584
48.8983
0.659132
48.9704
0.595136
49.0433
0.530629
49.117
0.46564
49.1917
0.400204
49.2674
0.334351
49.344
0.268115
49.4216
0.201529
49.5002
0.134625
49.5798
0.0674377
49.6605
0
49.7423
-0.0676542
49.8251
-0.135491
49.909
-0.203476
49.9939
-0.271574
50.08
-0.339753
50.1671
-0.407977
50.2554
-0.476212
50.3447
-0.544423
50.4351
-0.612574
50.5267
-0.680633
50.6192
-0.748564
50.7129
-0.816332
50.8076
-0.883903
50.9034
-0.951241
51.0002
-1.01831
51.0979
-1.08508
51.1967
-1.15152
51.2964
-1.21759
51.3971
-1.28325
51.4987
-1.34847
51.6012
-1.41323
51.7045
-1.47747
51.8086
-1.54118
51.9135
-1.60432
52.0191
-1.66686
52.1254
-1.72875
52.2325
-1.78998
52.3403
-1.85051
52.4478
-1.91031
52.5554
-1.96931
52.6698
-2.02751
52.7806
-2.08511
52.8593
-2.14156
52.9757
-2.19661
53.344
-2.2502
52.879
-2.31805
52.9822
-2.33496
54.0106
-2.41694
-2.47271
55.6014
45.7437
2.26186
-45.6839
45.8031
2.22254
45.8618
2.18195
45.92
2.14012
45.9777
2.09706
46.0351
2.05279
46.0921
2.00733
46.1488
1.9607
46.2054
1.91292
46.2619
1.86401
46.3183
1.81399
46.3747
1.76289
46.4312
1.71073
46.4878
1.65753
46.5447
1.60331
46.6017
1.54811
46.6591
1.49194
46.7169
1.43484
46.7751
1.37682
46.8338
1.31792
46.8929
1.25816
46.9527
1.19758
47.013
1.13619
47.074
1.07403
47.1357
1.01113
47.1981
0.947525
47.2614
0.883234
47.3254
0.818292
47.3903
0.752732
47.456
0.686584
47.5227
0.619881
47.5903
0.552655
47.6589
0.484938
47.7285
0.416764
47.7991
0.348166
47.8707
0.279178
47.9435
0.209833
48.0173
0.140165
48.0922
0.0702093
48.1682
0
48.2453
-0.0704281
48.3236
-0.14104
48.403
-0.211801
48.4836
-0.282676
48.5653
-0.353629
48.6482
-0.424624
48.7322
-0.495627
48.8174
-0.566602
48.9038
-0.637513
48.9913
-0.708324
49.08
-0.779
49.1698
-0.849504
49.2607
-0.919803
49.3528
-0.989859
49.4459
-1.05964
49.5401
-1.1291
49.6354
-1.19822
49.7317
-1.26696
49.829
-1.33527
49.9274
-1.40313
50.0267
-1.47051
50.1269
-1.53736
50.228
-1.60365
50.33
-1.66936
50.4328
-1.73443
50.5365
-1.79886
50.6408
-1.86259
50.7459
-1.92559
50.852
-1.98784
50.958
-2.04931
51.064
-2.10992
51.1726
-2.16973
51.2933
-2.22852
51.3562
-2.28738
51.5074
-2.34163
51.6866
-2.4017
51.6686
-2.45638
51.6686
-2.50598
-2.55828
51.6059
44.5345
2.35704
-44.4835
44.5852
2.3157
44.6354
2.27306
44.6853
2.22915
44.7348
2.18398
44.7842
2.13758
44.8335
2.08995
44.8826
2.04113
44.9318
1.99114
44.981
1.93998
45.0302
1.8877
45.0797
1.8343
45.1294
1.77982
45.1793
1.72428
45.2296
1.6677
45.2802
1.61011
45.3313
1.55154
45.3829
1.492
45.435
1.43154
45.4877
1.37017
45.541
1.30792
45.5949
1.24483
45.6496
1.18092
45.705
1.11622
45.7613
1.05077
45.8183
0.984591
45.8762
0.917716
45.935
0.850178
45.9947
0.782008
46.0554
0.713239
46.1171
0.643904
46.1798
0.574036
46.2436
0.503669
46.3084
0.432837
46.3743
0.361573
46.4413
0.289912
46.5094
0.217889
46.5787
0.145539
46.6491
0.0728979
46.7207
0
46.7935
-0.0731186
46.8675
-0.146422
46.9427
-0.219874
47.0191
-0.29344
47.0967
-0.367081
47.1755
-0.440762
47.2556
-0.514448
47.3368
-0.5881
47.4193
-0.661683
47.503
-0.73516
47.5879
-0.808495
47.674
-0.88165
47.7612
-0.954589
47.8497
-1.02728
47.9393
-1.09968
48.03
-1.17175
48.1219
-1.24346
48.2149
-1.31478
48.3089
-1.38566
48.404
-1.45608
48.5002
-1.52599
48.5973
-1.59536
48.6955
-1.66415
48.7945
-1.73234
48.8945
-1.79988
48.9954
-1.86674
49.0972
-1.9329
49.1997
-1.9983
49.303
-2.06292
49.407
-2.12674
49.5124
-2.1897
49.6148
-2.25185
49.7251
-2.31284
49.8338
-2.37342
49.925
-2.43253
50.0413
-2.49025
50.1716
-2.54826
50.2819
-2.60474
-2.65983
50.3861
43.3494
2.44983
-43.3065
43.3922
2.40651
43.4348
2.36186
43.4771
2.31591
43.5193
2.26867
43.5615
2.22017
43.6037
2.17043
43.646
2.11946
43.6884
2.0673
43.7309
2.01395
43.7737
1.95944
43.8168
1.90381
43.8602
1.84706
43.9041
1.78923
43.9483
1.73034
43.9931
1.67042
44.0384
1.60949
44.0843
1.54759
44.1308
1.48473
44.178
1.42096
44.2259
1.35629
44.2746
1.29075
44.324
1.22439
44.3743
1.15722
44.4255
1.08928
44.4775
1.0206
44.5305
0.951208
44.5845
0.881143
44.6394
0.810436
44.6954
0.739119
44.7524
0.667227
44.8106
0.594792
44.8698
0.52185
44.9301
0.448435
44.9916
0.374583
45.0543
0.300328
45.1181
0.225706
45.1831
0.150753
45.2493
0.075506
45.3168
0
45.3855
-0.075728
45.4554
-0.151641
45.5266
-0.227703
45.5991
-0.303876
45.6728
-0.380124
45.7477
-0.456408
45.824
-0.532692
45.9015
-0.608939
45.9802
-0.68511
46.0602
-0.761169
46.1415
-0.837078
46.224
-0.9128
46.3077
-0.988297
46.3927
-1.06353
46.4789
-1.13847
46.5662
-1.21307
46.6548
-1.28729
46.7445
-1.36111
46.8353
-1.43448
46.9272
-1.50736
47.0203
-1.57972
47.1144
-1.65153
47.2096
-1.72275
47.3057
-1.79334
47.4029
-1.86326
47.501
-1.93249
47.6
-2.00098
47.6999
-2.06871
47.8007
-2.13563
47.9021
-2.20172
48.0047
-2.26693
48.1078
-2.33128
48.2104
-2.39465
48.3164
-2.45702
48.4226
-2.51855
48.5239
-2.57892