/*--------------------------------*- C++ -*----------------------------------*\
| =========                 |                                                 |
| \\      /  F ield         | OpenFOAM: The Open Source CFD Toolbox           |
|  \\    /   O peration     | Version:  2312                                  |
|   \\  /    A nd           | Website:  www.openfoam.com                      |
|    \\/     M anipulation  |                                                 |
\*---------------------------------------------------------------------------*/
FoamFile
{
    version     2.0;
    format      ascii;
    arch        "LSB;label=32;scalar=64";
    class       surfaceScalarField;
    location    "0.363";
    object      phi;
}
// * * * * * * * * * * * * * * * * * * * * * * * * * * * * * * * * * * * * * //

dimensions      [0 3 -1 0 0 0 0];

oriented        oriented;

internalField   nonuniform List<scalar> 
62015
(
33.8796
0.0661479
-33.2298
34.5547
0.0661884
35.2469
0.0661775
35.95
0.0661007
36.6591
0.0659474
37.3704
0.0657085
38.081
0.0653781
38.7887
0.064951
39.492
0.0644242
40.1894
0.0637948
40.8803
0.0630614
41.5639
0.062223
42.2399
0.0612793
42.9081
0.0602301
43.5682
0.0590759
44.2204
0.0578171
44.8646
0.0564548
45.5009
0.0549898
46.1296
0.0534231
46.7508
0.0517563
47.3647
0.0499908
47.9716
0.0481276
48.5717
0.0461688
49.1652
0.0441159
49.7525
0.0419704
50.3338
0.0397344
50.9092
0.0374092
51.4792
0.0349973
52.0439
0.0325002
52.6037
0.02992
53.1587
0.0272584
53.7092
0.0245178
54.2554
0.0217005
54.7976
0.0188077
55.336
0.0158425
55.8708
0.0128063
56.4022
0.00970179
56.9304
0.00653122
57.4557
0.0032963
57.9782
0
58.4982
-0.00335567
59.0157
-0.0067687
59.5309
-0.010236
60.0441
-0.0137558
60.5554
-0.0173256
61.0649
-0.0209425
61.5728
-0.0246048
62.0793
-0.0283092
62.5843
-0.0320539
63.0882
-0.0358362
63.591
-0.0396534
64.0928
-0.0435029
64.5937
-0.0473823
65.0939
-0.0512893
65.5934
-0.0552207
66.0923
-0.0591745
66.5908
-0.0631477
67.0888
-0.0671378
67.5865
-0.0711424
68.084
-0.0751584
68.5813
-0.0791836
69.0784
-0.0832153
69.5754
-0.0872506
70.0725
-0.0912868
70.5695
-0.0953219
71.0665
-0.0993527
71.5637
-0.103377
72.0609
-0.107391
72.5583
-0.111394
73.0559
-0.115381
73.5535
-0.119352
74.0514
-0.123302
74.5493
-0.127231
75.0479
-0.131133
75.5449
-0.13501
76.0475
-0.138848
76.5333
-0.142683
77.0715
-0.146389
-0.150351
77.4489
33.6181
0.133377
-32.9854
34.2675
0.133378
34.9268
0.133251
35.5916
0.132978
36.2586
0.132541
36.9251
0.131928
37.5892
0.131132
38.2493
0.130144
38.9043
0.12896
39.5534
0.127577
40.196
0.125993
40.8317
0.124206
41.4603
0.122217
42.0816
0.120025
42.6956
0.117632
43.3024
0.115039
43.902
0.112247
44.4945
0.109259
45.0802
0.106078
45.6592
0.102704
46.2317
0.0991415
46.798
0.0953929
47.3583
0.0914611
47.9127
0.0873491
48.4616
0.0830604
49.0052
0.0785984
49.5437
0.0739662
50.0774
0.0691677
50.6064
0.0642061
51.1311
0.0590857
51.6516
0.0538098
52.1682
0.0483825
52.6811
0.0428076
53.1904
0.0370896
53.6965
0.0312318
54.1995
0.025239
54.6995
0.019115
55.1968
0.0128642
55.6916
0.00649113
56.1841
0
56.6743
-0.00660475
57.1625
-0.0133186
57.6488
-0.0201372
58.1335
-0.0270558
58.6165
-0.0340696
59.0981
-0.0411742
59.5784
-0.0483644
60.0575
-0.0556363
60.5356
-0.0629843
61.0127
-0.070404
61.4891
-0.0778901
61.9647
-0.0854384
62.4397
-0.0930432
62.9142
-0.1007
63.3882
-0.108404
63.8619
-0.116149
64.3354
-0.123932
64.8086
-0.131746
65.2818
-0.139587
65.7549
-0.14745
66.2279
-0.155329
66.7011
-0.16322
67.1743
-0.171118
67.6478
-0.179016
68.1214
-0.186911
68.5952
-0.194797
69.0693
-0.202669
69.5437
-0.210521
70.0183
-0.21835
70.4933
-0.226149
70.9687
-0.233915
71.4444
-0.24164
71.9203
-0.249322
72.397
-0.256952
72.8724
-0.264534
73.3533
-0.272039
73.8186
-0.279536
74.3332
-0.286786
-0.294522
74.6983
33.3739
0.201732
-32.7659
33.9918
0.201576
34.6147
0.201206
35.2394
0.2006
35.8637
0.199743
36.4859
0.19862
37.1045
0.197223
37.7186
0.195545
38.3274
0.19358
38.9303
0.191326
39.5269
0.18878
40.1172
0.185942
40.7008
0.182813
41.2779
0.179392
41.8483
0.175682
42.4122
0.171685
42.9697
0.167403
43.521
0.162839
44.0661
0.157998
44.6053
0.152881
45.1387
0.147493
45.6666
0.141838
46.1893
0.135921
46.7068
0.129746
47.2194
0.123317
47.7274
0.116638
48.2309
0.109717
48.7302
0.102556
49.2254
0.0951614
49.7169
0.0875386
50.2047
0.0796928
50.6892
0.0716298
51.1704
0.063355
51.6486
0.0548744
52.124
0.0461935
52.5967
0.0373186
53.0669
0.0282557
53.5349
0.0190106
54.0007
0.00958999
54.4645
0
54.9265
-0.00975298
55.3868
-0.0196625
55.8455
-0.0297222
56.3029
-0.0399249
56.759
-0.0502644
57.214
-0.0607339
57.668
-0.0713262
58.1211
-0.082035
58.5734
-0.0928528
59.025
-0.103773
59.476
-0.114788
59.9266
-0.125892
60.3768
-0.137076
60.8267
-0.148335
61.2764
-0.159659
61.7259
-0.171044
62.1754
-0.18248
62.6249
-0.193961
63.0744
-0.205479
63.5241
-0.217027
63.974
-0.228599
64.4241
-0.240185
64.8745
-0.251779
65.3252
-0.263374
65.7763
-0.274962
66.2278
-0.286536
66.6796
-0.298088
67.132
-0.309611
67.5847
-0.321098
68.038
-0.33254
68.4917
-0.343932
68.946
-0.355265
69.4006
-0.366533
69.8562
-0.377726
70.3107
-0.388847
70.7705
-0.399855
71.2159
-0.410849
71.7076
-0.421486
-0.432818
72.0594
33.1166
0.271072
-32.5386
33.7
0.270626
34.285
0.269877
34.8696
0.268805
35.4522
0.267394
36.0315
0.265633
36.6067
0.263511
37.1771
0.261023
37.7423
0.258165
38.3018
0.254934
38.8555
0.251328
39.4032
0.247348
39.9449
0.242995
40.4806
0.238269
41.0104
0.233174
41.5343
0.227713
42.0525
0.221888
42.5651
0.215704
43.0723
0.209165
43.5743
0.202275
44.0712
0.19504
44.5632
0.187464
45.0506
0.179554
45.5335
0.171314
46.0122
0.16275
46.4868
0.153869
46.9574
0.144677
47.4245
0.13518
47.888
0.125385
48.3482
0.115298
48.8053
0.104927
49.2595
0.0942789
49.7109
0.0833604
50.1598
0.0721792
50.6062
0.0607424
51.0504
0.049058
51.4925
0.0371336
51.9327
0.0249773
52.3711
0.0125966
52.8078
0
53.2431
-0.0128045
53.677
-0.0258085
54.1097
-0.0390037
54.5412
-0.0523811
54.9718
-0.0659332
55.4016
-0.0796501
55.8306
-0.0935237
56.2589
-0.107545
56.6867
-0.121705
57.114
-0.135995
57.541
-0.150406
57.9678
-0.164928
58.3943
-0.179553
58.8208
-0.194271
59.2473
-0.209073
59.6738
-0.223949
60.1004
-0.238891
60.5272
-0.253888
60.9542
-0.268932
61.3815
-0.284012
61.8092
-0.29912
62.2373
-0.314246
62.6658
-0.32938
63.0948
-0.344513
63.5242
-0.359635
63.9542
-0.374736
64.3848
-0.389808
64.8159
-0.404841
65.2476
-0.419824
65.68
-0.43475
66.1129
-0.449607
66.5465
-0.464387
66.9806
-0.479082
67.4158
-0.493677
67.8501
-0.508178
68.2896
-0.52253
68.7156
-0.536864
69.1856
-0.550737
-0.565498
69.5236
32.8333
0.341197
-32.2881
33.381
0.340326
33.9281
0.339066
34.4734
0.337399
35.0156
0.335311
35.5541
0.332791
36.0882
0.329832
36.6176
0.326428
37.1418
0.322576
37.6608
0.318275
38.1744
0.313523
38.6825
0.308322
39.1851
0.302672
39.6824
0.296577
40.1743
0.290039
40.661
0.283063
41.1426
0.275651
41.6193
0.26781
42.0913
0.259544
42.5586
0.250859
43.0214
0.241761
43.48
0.232255
43.9345
0.222348
44.3852
0.212047
44.832
0.201359
45.2754
0.190291
45.7154
0.178851
46.1522
0.167047
46.586
0.154885
47.0169
0.142375
47.4452
0.129524
47.871
0.116341
48.2945
0.102835
48.7157
0.0890145
49.135
0.0748882
49.5523
0.0604657
49.9679
0.0457563
50.382
0.030769
50.7945
0.0155136
51.2058
0
51.6158
-0.015762
52.0248
-0.0317627
52.4328
-0.0479916
52.84
-0.0644383
53.2465
-0.0810931
53.6523
-0.0979452
54.0576
-0.114984
54.4625
-0.132198
54.8671
-0.149578
55.2714
-0.167113
55.6756
-0.184791
56.0797
-0.202601
56.4839
-0.220532
56.8881
-0.238574
57.2924
-0.256715
57.697
-0.274943
58.1019
-0.293248
58.5071
-0.311618
58.9126
-0.330041
59.3186
-0.348507
59.7251
-0.367003
60.1322
-0.385518
60.5398
-0.404041
60.9479
-0.42256
61.3567
-0.441063
61.7662
-0.45954
62.1764
-0.477978
62.5872
-0.496366
62.9987
-0.514692
63.411
-0.532946
63.824
-0.551115
64.2378
-0.569188
64.6522
-0.587155
65.0677
-0.605
65.4826
-0.622727
65.9025
-0.640274
66.3098
-0.657795
66.759
-0.674757
-0.692786
67.083
32.52
0.411896
-32.0086
33.0318
0.410471
33.5419
0.408576
34.0491
0.406194
34.5529
0.403315
35.0528
0.39993
35.5483
0.396033
36.0392
0.391619
36.5252
0.386686
37.0064
0.381233
37.4826
0.37526
37.9538
0.368769
38.4202
0.361762
38.8817
0.354242
39.3385
0.346213
39.7906
0.33768
40.2383
0.328647
40.6816
0.31912
41.1207
0.309105
41.5557
0.298608
41.9869
0.287636
42.4143
0.276195
42.8382
0.264295
43.2586
0.251941
43.6759
0.239143
44.0901
0.225907
44.5014
0.212245
44.9099
0.198162
45.3159
0.18367
45.7195
0.168777
46.1208
0.153493
46.5199
0.137827
46.9171
0.121789
47.3125
0.10539
47.7062
0.0886405
48.0983
0.0715499
48.489
0.0541296
48.8785
0.0363905
49.2667
0.0183435
49.6539
0
50.0402
-0.0186287
50.4257
-0.037531
50.8104
-0.056695
51.1946
-0.0761094
51.5783
-0.0957613
51.9615
-0.11564
52.3445
-0.135731
52.7272
-0.156024
53.1098
-0.176506
53.4923
-0.197164
53.8749
-0.217986
54.2576
-0.238958
54.6404
-0.260069
55.0235
-0.281304
55.4069
-0.302651
55.7906
-0.324098
56.1748
-0.345629
56.5594
-0.367234
56.9445
-0.388897
57.3303
-0.410607
57.7166
-0.432349
58.1035
-0.45411
58.4912
-0.475877
58.8795
-0.497637
59.2686
-0.519376
59.6584
-0.541081
60.0491
-0.562737
60.4405
-0.584333
60.8327
-0.605855
61.2258
-0.627289
61.6197
-0.648622
62.0144
-0.66984
62.4099
-0.690932
62.8066
-0.711879
63.2028
-0.732687
63.6039
-0.753283
63.9932
-0.773844
64.4223
-0.793756
-0.814898
64.7328
32.1763
0.48297
-31.6988
32.6531
0.48087
33.1274
0.478225
33.5985
0.475021
34.0659
0.471251
34.5294
0.466905
34.9887
0.46198
35.4436
0.456473
35.8941
0.450382
36.34
0.443707
36.7815
0.436449
37.2185
0.42861
37.6512
0.420194
38.0795
0.411203
38.5036
0.401644
38.9236
0.391519
39.3397
0.380837
39.7519
0.369602
40.1605
0.357821
40.5655
0.345501
40.9671
0.332651
41.3655
0.319277
41.7608
0.305388
42.1532
0.290994
42.5428
0.276101
42.9298
0.260721
43.3142
0.244863
43.6964
0.228535
44.0763
0.21175
44.4542
0.194516
44.8302
0.176845
45.2045
0.158747
45.5771
0.140234
45.9481
0.121317
46.3178
0.102008
46.6863
0.0823186
47.0536
0.0622608
47.4199
0.0418466
47.7852
0.0210889
48.1498
0
48.5137
-0.0214071
48.877
-0.0431192
49.2398
-0.0651235
49.6023
-0.0874062
49.9644
-0.109954
50.3263
-0.132754
50.6881
-0.155791
51.0499
-0.179052
51.4117
-0.202523
51.7736
-0.226189
52.1357
-0.250036
52.498
-0.27405
52.8607
-0.298216
53.2237
-0.32252
53.5872
-0.346947
53.9511
-0.371482
54.3156
-0.39611
54.6807
-0.420817
55.0464
-0.445587
55.4128
-0.470405
55.7799
-0.495257
56.1477
-0.520128
56.5164
-0.545001
56.8858
-0.569862
57.2561
-0.594697
57.6272
-0.619489
57.9991
-0.644224
58.372
-0.668886
58.7458
-0.693461
59.1205
-0.717933
59.496
-0.742289
59.8726
-0.76651
60.2499
-0.790587
60.6285
-0.814495
61.0068
-0.838243
61.3899
-0.861748
61.7618
-0.885209
62.1717
-0.907936
-0.932042
62.4691
31.8038
0.55423
-31.3593
32.2469
0.551346
32.6871
0.547849
33.124
0.543728
33.5572
0.538975
33.9866
0.533585
34.412
0.527555
34.8334
0.520882
35.2508
0.513567
35.664
0.505609
36.0732
0.497011
36.4784
0.487776
36.8797
0.477907
37.2772
0.467408
37.671
0.456285
38.0612
0.444544
38.4479
0.43219
38.8312
0.41923
39.2114
0.405673
39.5885
0.391526
39.9626
0.376797
40.3339
0.361494
40.7026
0.345627
41.0688
0.329206
41.4326
0.31224
41.7941
0.294739
42.1535
0.276714
42.511
0.258175
42.8666
0.239134
43.2205
0.219602
43.5728
0.199592
43.9236
0.179114
44.2731
0.158181
44.6214
0.136806
44.9686
0.115001
45.3147
0.0927803
45.66
0.070156
46.0046
0.0471419
46.3484
0.0237519
46.6917
0
47.0345
-0.0240998
47.3769
-0.0485331
47.719
-0.0732855
48.061
-0.0983421
48.4028
-0.123688
48.7446
-0.149308
49.0864
-0.175187
49.4283
-0.201309
49.7704
-0.22766
50.1128
-0.254223
50.4555
-0.280982
50.7986
-0.307922
51.1421
-0.335026
51.4861
-0.362279
51.8307
-0.389664
52.1758
-0.417164
52.5216
-0.444764
52.8681
-0.472446
53.2154
-0.500195
53.5634
-0.527993
53.9122
-0.555825
54.2618
-0.583673
54.6124
-0.61152
54.9637
-0.63935
55.3161
-0.667146
55.6693
-0.694891
56.0235
-0.722569
56.3786
-0.750163
56.7347
-0.777656
57.0918
-0.805031
57.4499
-0.832272
57.809
-0.859362
58.1689
-0.886287
58.5302
-0.913022
58.8913
-0.939575
59.257
-0.965855
59.6123
-0.992082
60.0037
-1.0175
-1.04442
60.2886
31.4048
0.625504
-30.9921
31.8159
0.621739
32.2238
0.617299
32.6285
0.612176
33.0296
0.606362
33.4272
0.599856
33.8211
0.592653
34.2113
0.584753
34.5978
0.576157
34.9806
0.566865
35.3598
0.556881
35.7355
0.546209
36.1077
0.53485
36.4766
0.522813
36.8421
0.510101
37.2046
0.496721
37.564
0.482681
37.9205
0.467987
38.2742
0.452647
38.6253
0.436671
38.9738
0.420067
39.32
0.402844
39.6638
0.385012
40.0055
0.366582
40.3452
0.347563
40.683
0.327968
41.019
0.307807
41.3533
0.287092
41.6861
0.265835
42.0175
0.244049
42.3476
0.221746
42.6766
0.198939
43.0044
0.175641
43.3313
0.151867
43.6573
0.127629
43.9826
0.102943
44.3072
0.0778218
44.6313
0.0522812
44.9549
0.0263355
45.2781
0
45.601
-0.0267098
45.9237
-0.0537785
46.2464
-0.0811899
46.569
-0.108928
46.8916
-0.136978
47.2143
-0.165321
47.5372
-0.193942
47.8604
-0.222824
48.1839
-0.25195
48.5078
-0.281303
48.8321
-0.310865
49.157
-0.34062
49.4824
-0.370549
49.8083
-0.400636
50.135
-0.430862
50.4623
-0.46121
50.7904
-0.491662
51.1193
-0.522199
51.4489
-0.552804
51.7794
-0.583458
52.1109
-0.614145
52.4432
-0.644844
52.7764
-0.675538
53.1106
-0.706209
53.4458
-0.736839
53.782
-0.767409
54.1192
-0.797901
54.4574
-0.828296
54.7966
-0.858577
55.1369
-0.888726
55.4782
-0.918723
55.8206
-0.948552
56.1639
-0.978195
56.5087
-1.00763
56.8533
-1.03686
57.2024
-1.06578
57.5417
-1.09465
57.9154
-1.12262
-1.15223
58.1881
30.9819
0.696634
-30.5994
31.3626
0.691903
31.7403
0.686442
32.1147
0.680242
32.4859
0.6733
32.8538
0.665613
33.2183
0.65718
33.5795
0.648001
33.9373
0.638076
34.2919
0.627408
34.6433
0.616
34.9915
0.603856
35.3368
0.590981
35.679
0.57738
36.0184
0.56306
36.3551
0.548028
36.6891
0.53229
37.0207
0.515855
37.3498
0.498732
37.6766
0.48093
38.0013
0.462458
38.3239
0.443326
38.6446
0.423545
38.9635
0.403125
39.2807
0.382079
39.5962
0.360417
39.9104
0.338153
40.2231
0.315298
40.5346
0.291865
40.845
0.267867
41.1543
0.243319
41.4627
0.218234
41.7702
0.192626
42.077
0.16651
42.3832
0.139902
42.6888
0.112815
42.994
0.085265
43.2988
0.0572688
43.6033
0.0288415
43.9076
0
44.2119
-0.0292395
44.516
-0.0588604
44.8202
-0.0888455
45.1246
-0.119177
45.4291
-0.149839
45.7339
-0.180812
46.0389
-0.212079
46.3444
-0.243623
46.6503
-0.275423
46.9567
-0.307464
47.2636
-0.339725
47.5712
-0.372188
47.8794
-0.404834
48.1883
-0.437645
48.4979
-0.470601
48.8083
-0.503683
49.1195
-0.536872
49.4316
-0.570148
49.7446
-0.603492
50.0585
-0.636884
50.3734
-0.670306
50.6892
-0.703737
51.006
-0.737157
51.3238
-0.770547
51.6427
-0.803888
51.9626
-0.837159
52.2836
-0.870341
52.6057
-0.903415
52.9288
-0.93636
53.253
-0.969158
53.5783
-1.00179
53.9048
-1.03423
54.2321
-1.06647
54.561
-1.09847
54.8898
-1.13026
55.223
-1.16171
55.547
-1.19309
55.9037
-1.22351
-1.25566
56.1648
30.5377
0.767477
-30.1836
30.8899
0.761707
31.2391
0.755155
31.5854
0.747816
31.9287
0.739688
32.2689
0.730768
32.6062
0.721056
32.9404
0.710552
33.2716
0.699259
33.6
0.687179
33.9255
0.674316
34.2483
0.660675
34.5684
0.64626
34.8859
0.631078
35.201
0.615136
35.5137
0.598441
35.8242
0.581001
36.1325
0.562824
36.4387
0.54392
36.743
0.524298
37.0454
0.503969
37.3461
0.482942
37.6452
0.46123
37.9428
0.438844
38.239
0.415795
38.5338
0.392097
38.8275
0.367762
39.12
0.342803
39.4115
0.317235
39.7022
0.29107
39.992
0.264324
40.2811
0.237012
40.5696
0.209148
40.8576
0.180748
41.1451
0.151828
41.4323
0.122403
41.7192
0.0924916
42.0059
0.0621093
42.2925
0.0312728
42.579
0
42.8656
-0.0316917
43.1523
-0.0637844
43.4392
-0.0962597
43.7263
-0.1291
44.0137
-0.162286
44.3015
-0.195799
44.5897
-0.22962
44.8784
-0.26373
45.1677
-0.29811
45.4575
-0.332739
45.748
-0.367598
46.0392
-0.402668
46.3311
-0.437927
46.6237
-0.473356
46.9172
-0.508935
47.2116
-0.544643
47.5068
-0.580459
47.803
-0.616363
48.1001
-0.652334
48.3982
-0.688352
48.6973
-0.724394
48.9974
-0.760442
49.2986
-0.796472
49.6009
-0.832465
49.9042
-0.8684
50.2086
-0.904255
50.5141
-0.94001
50.8208
-0.975643
51.1285
-1.01113
51.4374
-1.04646
51.7474
-1.0816
52.0586
-1.11654
52.3708
-1.15126
52.6844
-1.18572
52.9981
-1.21993
53.316
-1.25379
53.6254
-1.28756
53.9657
-1.32032
-1.3549
54.2157
30.0747
0.837905
-29.7474
30.4002
0.831032
30.723
0.823331
31.043
0.8148
31.3603
0.805436
31.6749
0.795238
31.9867
0.784206
32.2959
0.772342
32.6024
0.759648
32.9064
0.746128
33.208
0.731786
33.5071
0.716627
33.8039
0.700657
34.0986
0.683881
34.391
0.666308
34.6815
0.647945
34.97
0.628801
35.2566
0.608884
35.5415
0.588205
35.8248
0.566774
36.1065
0.5446
36.3868
0.521697
36.6658
0.498074
36.9434
0.473744
37.22
0.448721
37.4955
0.423017
37.77
0.396646
38.0436
0.369621
38.3165
0.341957
38.5887
0.31367
38.8602
0.284773
39.1313
0.255283
39.4019
0.225217
39.6722
0.194589
39.9422
0.163416
40.2121
0.131717
40.4818
0.0995079
40.7514
0.0668067
41.0211
0.0336312
41.2909
0
41.5609
-0.0340685
41.8311
-0.0685553
42.1016
-0.103441
42.3725
-0.138707
42.6438
-0.174333
42.9156
-0.210299
43.1878
-0.246586
43.4607
-0.283172
43.7342
-0.320037
44.0084
-0.357161
44.2833
-0.394522
44.559
-0.4321
44.8354
-0.469873
45.1128
-0.50782
45.391
-0.545919
45.6701
-0.584149
45.9501
-0.622487
46.2312
-0.660913
46.5132
-0.699404
46.7963
-0.737938
47.0804
-0.776492
47.3656
-0.815046
47.6519
-0.853576
47.9393
-0.89206
48.2278
-0.930477
48.5175
-0.968803
48.8082
-1.00702
49.1002
-1.0451
49.3933
-1.08302
49.6875
-1.12076
49.9829
-1.15831
50.2795
-1.19563
50.5771
-1.2327
50.8762
-1.26951
51.1754
-1.30604
51.4788
-1.3422
51.7741
-1.37825
52.0988
-1.41323
-1.45011
52.338
29.5956
0.907803
-29.2933
29.8962
0.899774
30.1943
0.890876
30.4899
0.881107
30.783
0.870466
31.0737
0.858952
31.362
0.846568
31.6479
0.833314
31.9315
0.819194
32.213
0.804212
32.4922
0.788372
32.7694
0.77168
33.0446
0.754142
33.3179
0.735765
33.5894
0.716557
33.8591
0.696526
34.1272
0.67568
34.3937
0.65403
34.6588
0.631585
34.9225
0.608356
35.1849
0.584355
35.4461
0.559593
35.7063
0.534082
35.9654
0.507835
36.2236
0.480866
36.481
0.453188
36.7376
0.424815
36.9936
0.395763
37.249
0.366045
37.5038
0.335678
37.7583
0.304678
38.0124
0.273061
38.2663
0.240844
38.52
0.208043
38.7736
0.174677
39.0271
0.140763
39.2807
0.10632
39.5343
0.0713655
39.7881
0.0359191
40.0422
0
40.2965
-0.0363724
40.5512
-0.0731783
40.8063
-0.110397
41.0618
-0.148009
41.3179
-0.185994
41.5745
-0.22433
41.8317
-0.262996
42.0896
-0.30197
42.3482
-0.341233
42.6076
-0.38076
42.8677
-0.420531
43.1287
-0.460523
43.3906
-0.500714
43.6533
-0.541082
43.917
-0.581604
44.1817
-0.622256
44.4474
-0.663016
44.714
-0.703862
44.9818
-0.74477
45.2506
-0.785716
45.5205
-0.826679
45.7915
-0.867633
46.0636
-0.908557
46.3368
-0.949426
46.6112
-0.990217
46.8868
-1.03091
47.1635
-1.07147
47.4415
-1.11189
47.7205
-1.15214
48.0008
-1.19219
48.2822
-1.23202
48.5649
-1.27162
48.8486
-1.31095
49.1338
-1.34998
49.4192
-1.38873
49.7086
-1.42708
49.9904
-1.4653
50.3002
-1.5024
-1.54147
50.5291
29.1026
0.97707
-28.8237
29.38
0.96784
29.6551
0.957703
29.928
0.946659
30.1987
0.934708
30.4673
0.92185
30.7337
0.908087
30.9981
0.89342
31.2605
0.877854
31.5209
0.861394
31.7795
0.844043
32.0363
0.825808
32.2914
0.806696
32.5449
0.786714
32.7968
0.76587
33.0473
0.744173
33.2964
0.721631
33.5442
0.698256
33.7908
0.674058
34.0363
0.649047
34.2807
0.623236
34.5242
0.596637
34.7668
0.569262
35.0086
0.541125
35.2497
0.51224
35.4901
0.482621
35.73
0.452283
35.9694
0.421241
36.2084
0.389511
36.4471
0.357109
36.6856
0.324051
36.9238
0.290356
37.162
0.25604
37.4001
0.221121
37.6382
0.185618
37.8764
0.149549
38.1148
0.112933
38.3534
0.0757895
38.5922
0.0381385
38.8314
0
39.071
-0.0386057
39.3111
-0.0776578
39.5516
-0.117136
39.7927
-0.157017
40.0344
-0.197281
40.2767
-0.237906
40.5197
-0.278869
40.7635
-0.320149
41.008
-0.361722
41.2534
-0.403567
41.4996
-0.445658
41.7467
-0.487975
41.9947
-0.530493
42.2436
-0.573188
42.4936
-0.616038
42.7445
-0.659018
42.9965
-0.702104
43.2496
-0.745272
43.5037
-0.788499
43.7589
-0.831759
44.0153
-0.875029
44.2728
-0.918284
44.5314
-0.961499
44.7912
-1.00465
45.0522
-1.04772
45.3144
-1.09067
45.5777
-1.13348
45.8422
-1.17613
46.108
-1.2186
46.3749
-1.26085
46.643
-1.30288
46.9124
-1.34464
47.1828
-1.38612
47.4547
-1.42729
47.7269
-1.46815
48.0029
-1.50858
48.2719
-1.54887
48.5673
-1.58799
-1.62913
48.7864
28.598
1.04562
-28.3409
28.8539
1.03515
29.1077
1.02374
29.3595
1.01139
29.6094
0.998104
29.8574
0.983877
30.1036
0.968714
30.3479
0.952618
30.5906
0.935592
30.8316
0.917641
31.071
0.898771
31.3089
0.878988
31.5454
0.858299
31.7804
0.836712
32.0142
0.814236
32.2468
0.790879
32.4782
0.766651
32.7086
0.741563
32.938
0.715626
33.1665
0.688851
33.3941
0.66125
33.621
0.632836
33.8472
0.603623
34.0728
0.573624
34.2979
0.542854
34.5226
0.511328
34.7468
0.47906
34.9707
0.446067
35.1944
0.412366
35.418
0.377972
35.6414
0.342905
35.8647
0.30718
36.0881
0.270816
36.3116
0.233832
36.5352
0.196248
36.7591
0.158081
36.9832
0.119353
37.2076
0.0800827
37.4324
0.0402916
37.6576
0
37.8833
-0.0407706
38.1096
-0.0819988
38.3364
-0.123662
38.5639
-0.16574
38.792
-0.208208
39.0208
-0.251044
39.2504
-0.294226
39.4808
-0.33773
39.712
-0.381532
39.9441
-0.425609
40.1771
-0.469936
40.411
-0.514491
40.6459
-0.559247
40.8818
-0.604182
41.1187
-0.649269
41.3566
-0.694485
41.5957
-0.739805
41.8358
-0.785203
42.077
-0.830654
42.3193
-0.876133
42.5628
-0.921615
42.8075
-0.967074
43.0533
-1.01248
43.3003
-1.05782
43.5485
-1.10306
43.7979
-1.14817
44.0485
-1.19314
44.3003
-1.23793
44.5533
-1.28251
44.8075
-1.32687
45.0629
-1.37098
45.3195
-1.41482
45.5773
-1.45835
45.8365
-1.50155
46.096
-1.54442
46.3593
-1.58683
46.6159
-1.6291
46.8976
-1.67014
-1.71326
47.1073
28.084
1.11337
-27.847
28.3198
1.10163
28.5538
1.08892
28.7861
1.07525
29.0167
1.0606
29.2457
1.04499
29.473
1.02841
29.6989
1.01087
29.9232
0.992375
30.1462
0.972928
30.3678
0.952534
30.5881
0.931202
30.8072
0.908938
31.0252
0.88575
31.2421
0.861648
31.458
0.83664
31.673
0.810738
31.8872
0.783951
32.1005
0.756291
32.3132
0.727771
32.5252
0.698402
32.7366
0.668199
32.9476
0.637174
33.1581
0.605343
33.3682
0.57272
33.5781
0.53932
33.7877
0.50516
33.9971
0.470255
34.2065
0.434624
34.4158
0.398283
34.6251
0.36125
34.8345
0.323543
35.0441
0.285183
35.2538
0.246186
35.4638
0.206575
35.6741
0.166368
35.8848
0.125585
36.0959
0.084249
36.3075
0.0423802
36.5196
0
36.7322
-0.0428693
36.9454
-0.0862052
37.1593
-0.129985
37.3739
-0.174187
37.5892
-0.218786
37.8053
-0.263759
38.0222
-0.309083
38.24
-0.354733
38.4586
-0.400685
38.6782
-0.446914
38.8987
-0.493396
39.1201
-0.540105
39.3426
-0.587016
39.5661
-0.634104
39.7906
-0.681343
40.0162
-0.728708
40.243
-0.776172
40.4708
-0.823711
40.6998
-0.871297
40.9299
-0.918904
41.1611
-0.966506
41.3936
-1.01408
41.6272
-1.06159
41.862
-1.10902
42.0981
-1.15634
42.3353
-1.20352
42.5738
-1.25054
42.8134
-1.29737
43.0543
-1.34399
43.2964
-1.39036
43.5396
-1.43646
43.7842
-1.48227
44.0298
-1.52776
44.2769
-1.57289
44.5243
-1.61768
44.7754
-1.66199
45.0202
-1.70613
45.2888
-1.74901
-1.794
45.4894
27.5624
1.18025
-27.3442
27.7796
1.16722
27.9953
1.15319
28.2095
1.13817
28.4222
1.12215
28.6335
1.10514
28.8434
1.08714
29.052
1.06815
29.2594
1.04818
29.4656
1.02723
29.6707
1.00532
29.8747
0.982436
30.0778
0.958601
30.2798
0.93382
30.4811
0.908101
30.6815
0.881454
30.8812
0.853891
31.0802
0.825422
31.2787
0.796059
31.4766
0.765814
31.674
0.734701
31.871
0.702734
32.0677
0.669926
32.2641
0.636292
32.4602
0.601848
32.6563
0.56661
32.8522
0.530594
33.0481
0.493817
33.244
0.456296
33.44
0.418051
33.6361
0.379098
33.8324
0.339458
34.029
0.299149
34.2259
0.258192
34.4231
0.216607
34.6207
0.174414
34.8188
0.131635
35.0173
0.0882922
35.2164
0.0444063
35.4161
0
35.6164
-0.0449038
35.8174
-0.0902818
36.0191
-0.136111
36.2216
-0.182367
36.4248
-0.229026
36.6289
-0.276065
36.8338
-0.323457
37.0396
-0.371179
37.2464
-0.419204
37.4541
-0.467509
37.6627
-0.516066
37.8724
-0.56485
38.0831
-0.613835
38.2949
-0.662995
38.5077
-0.712303
38.7216
-0.761733
38.9367
-0.811258
39.1528
-0.860851
39.3702
-0.910485
39.5887
-0.960134
39.8083
-1.00977
40.0292
-1.05936
40.2512
-1.10889
40.4744
-1.15833
40.6989
-1.20764
40.9246
-1.2568
41.1514
-1.30578
41.3795
-1.35456
41.6088
-1.40311
41.8393
-1.45141
42.0711
-1.49941
42.304
-1.54711
42.5381
-1.59446
42.7736
-1.64144
43.0095
-1.68806
43.2489
-1.73417
43.4825
-1.7801
43.7386
-1.82473
-1.87149
43.9305
27.035
1.2462
-26.8342
27.2351
1.23187
27.4337
1.21651
27.6311
1.20013
27.8272
1.18273
28.0222
1.16431
28.2159
1.14487
28.4086
1.12443
28.6003
1.10299
28.7909
1.08054
28.9807
1.0571
29.1695
1.03268
29.3576
1.00728
29.5449
0.980916
29.7316
0.953593
29.9176
0.925321
30.1031
0.896113
30.288
0.86598
30.4725
0.834934
30.6567
0.802988
30.8405
0.770156
31.0241
0.736451
31.2074
0.701888
31.3906
0.666483
31.5738
0.630252
31.7569
0.59321
31.94
0.555375
32.1232
0.516764
32.3065
0.477396
32.4901
0.437289
32.6738
0.396462
32.8579
0.354935
33.0422
0.312727
33.227
0.269859
33.4122
0.226352
33.5979
0.182228
33.7841
0.137509
33.9709
0.0922156
34.1582
0.0463717
34.3463
0
34.535
-0.046876
34.7244
-0.0942324
34.9146
-0.142045
35.1057
-0.19029
35.2975
-0.238942
35.4902
-0.287975
35.6838
-0.337366
35.8783
-0.387087
36.0738
-0.437113
36.2703
-0.487418
36.4678
-0.537975
36.6663
-0.588758
36.8658
-0.639739
37.0665
-0.690893
37.2682
-0.742191
37.4711
-0.793605
37.675
-0.84511
37.8802
-0.896676
38.0864
-0.948277
38.2939
-0.999883
38.5025
-1.05147
38.7124
-1.103
38.9234
-1.15446
39.1356
-1.20581
39.349
-1.25703
39.5637
-1.30808
39.7795
-1.35895
39.9966
-1.4096
40.2149
-1.46
40.4344
-1.51012
40.6551
-1.55994
40.877
-1.60944
41.1001
-1.65857
41.3245
-1.70732
41.5495
-1.75567
41.7777
-1.8035
42.0005
-1.85113
42.2446
-1.89743
-1.94587
42.4283
26.5035
1.31118
-26.3188
26.6876
1.29553
26.8705
1.27882
27.0524
1.26108
27.2331
1.24229
27.4129
1.22246
27.5917
1.20159
27.7696
1.1797
27.9466
1.15677
28.1229
1.13283
28.2984
1.10788
28.4732
1.08193
28.6473
1.05498
28.8209
1.02704
28.994
0.998123
29.1666
0.968243
29.3388
0.937409
29.5107
0.905632
29.6823
0.872925
29.8536
0.839301
30.0247
0.804775
30.1957
0.76936
30.3667
0.733073
30.5376
0.695928
30.7085
0.657943
30.8795
0.619133
31.0507
0.579516
31.222
0.539111
31.3935
0.497936
31.5654
0.45601
31.7375
0.413353
31.9101
0.369984
32.083
0.325925
32.2564
0.281196
32.4304
0.235819
32.6048
0.189816
32.7799
0.14321
32.9556
0.096023
33.1319
0.0482782
33.309
0
33.4868
-0.0487879
33.6653
-0.0980612
33.8447
-0.147794
34.0249
-0.197963
34.206
-0.248542
34.388
-0.299504
34.5709
-0.350824
34.7548
-0.402476
34.9396
-0.454432
35.1255
-0.506666
35.3124
-0.559151
35.5003
-0.611859
35.6893
-0.664763
35.8794
-0.717834
36.0707
-0.771045
36.263
-0.824369
36.4565
-0.877775
36.6511
-0.931236
36.8469
-0.984724
37.0439
-1.03821
37.242
-1.09166
37.4414
-1.14506
37.6419
-1.19836
37.8437
-1.25155
38.0466
-1.30459
38.2508
-1.35746
38.4562
-1.41012
38.6628
-1.46255
38.8706
-1.51472
39.0796
-1.5666
39.2898
-1.61815
39.5012
-1.66936
39.7137
-1.7202
39.9276
-1.77062
40.142
-1.82063
40.3596
-1.8701
40.5722
-1.91935
40.8049
-1.96723
-2.01727
40.9805
25.9694
1.37515
-25.7996
26.1387
1.35816
26.3071
1.34011
26.4745
1.32099
26.641
1.30081
26.8067
1.27957
26.9716
1.25727
27.1358
1.23392
27.2993
1.20954
27.4621
1.18411
27.6244
1.15765
27.7862
1.13017
27.9474
1.10168
28.1083
1.07218
28.2687
1.0417
28.4289
1.01022
28.5888
0.977783
28.7484
0.944383
28.9079
0.910039
29.0673
0.874762
29.2266
0.838569
29.3859
0.801474
29.5452
0.763492
29.7046
0.72464
29.8642
0.684933
30.0239
0.644391
30.1838
0.60303
30.344
0.56087
30.5045
0.517928
30.6654
0.474225
30.8267
0.429781
30.9885
0.384617
31.1507
0.338753
31.3134
0.292212
31.4768
0.245014
31.6407
0.197184
31.8053
0.148744
31.9705
0.0997172
32.1365
0.0501278
32.3032
0
32.4707
-0.0506415
32.639
-0.101772
32.8082
-0.153365
32.9782
-0.205396
33.1491
-0.257837
33.321
-0.310664
33.4938
-0.363848
33.6676
-0.417363
33.8424
-0.471183
34.0183
-0.525277
34.1951
-0.57962
34.3731
-0.634183
34.5521
-0.688937
34.7322
-0.743855
34.9135
-0.798907
35.0959
-0.854064
35.2794
-0.909298
35.4641
-0.96458
35.6499
-1.01988
35.8369
-1.07517
36.0252
-1.13041
36.2146
-1.18559
36.4051
-1.24067
36.5969
-1.29562
36.7899
-1.35041
36.9841
-1.40501
37.1795
-1.45939
37.3761
-1.51352
37.5739
-1.56738
37.7729
-1.62093
37.9731
-1.67414
38.1745
-1.72699
38.377
-1.77944
38.5808
-1.83146
38.7852
-1.88306
38.9926
-1.93408
39.1954
-1.98487
39.4172
-2.03427
-2.08581
39.5853
25.434
1.43805
-25.2781
25.5897
1.41974
25.7445
1.40033
25.8985
1.37984
26.0519
1.35827
26.2045
1.33562
26.3566
1.3119
26.508
1.28711
26.659
1.26126
26.8094
1.23435
26.9594
1.2064
27.109
1.17741
27.2583
1.14739
27.4073
1.11636
27.556
1.08431
27.7046
1.05127
27.853
1.01724
28.0013
0.982243
28.1495
0.946285
28.2977
0.909382
28.446
0.87155
28.5944
0.832803
28.7428
0.793157
28.8915
0.75263
29.0404
0.711237
29.1895
0.668998
29.339
0.62593
29.4888
0.582052
29.639
0.537384
29.7896
0.491946
29.9407
0.445759
30.0923
0.398843
30.2445
0.351221
30.3972
0.302914
30.5506
0.253946
30.7046
0.204338
30.8594
0.154116
31.0148
0.103302
31.171
0.0519221
31.328
0
31.4858
-0.0524386
31.6444
-0.105368
31.804
-0.158762
31.9644
-0.212594
32.1258
-0.266839
32.2881
-0.321467
32.4514
-0.376453
32.6156
-0.431768
32.781
-0.487384
32.9473
-0.543273
33.1147
-0.599407
33.2832
-0.655757
33.4528
-0.712294
33.6234
-0.768988
33.7953
-0.825811
33.9682
-0.882732
34.1423
-0.939723
34.3175
-0.996752
34.4939
-1.05379
34.6715
-1.11081
34.8503
-1.16778
35.0302
-1.22466
35.2114
-1.28144
35.3937
-1.33807
35.5772
-1.39453
35.7619
-1.45079
35.9478
-1.50682
36.1349
-1.56258
36.3232
-1.61805
36.5127
-1.67319
36.7033
-1.72799
36.8951
-1.7824
37.0881
-1.8364
37.2823
-1.88994
37.4772
-1.94305
37.6749
-1.99556
37.8683
-2.04781
38.0796
-2.09865
-2.15163
38.2404
24.8986
1.49988
-24.7554
25.0416
1.48023
25.1838
1.45947
25.3255
1.43761
25.4667
1.41466
25.6073
1.3906
25.7474
1.36546
25.887
1.33924
26.0263
1.31194
26.1652
1.28357
26.3038
1.25413
26.4422
1.22365
26.5803
1.19212
26.7183
1.15956
26.8561
1.12598
26.9939
1.09139
27.1316
1.0558
27.2693
1.01922
27.407
0.981674
27.5449
0.943172
27.6828
0.903729
27.821
0.86336
27.9594
0.822082
28.098
0.779911
28.2369
0.736867
28.3762
0.692966
28.5158