/*--------------------------------*- C++ -*----------------------------------*\
| =========                 |                                                 |
| \\      /  F ield         | OpenFOAM: The Open Source CFD Toolbox           |
|  \\    /   O peration     | Version:  2312                                  |
|   \\  /    A nd           | Website:  www.openfoam.com                      |
|    \\/     M anipulation  |                                                 |
\*---------------------------------------------------------------------------*/
FoamFile
{
    version     2.0;
    format      ascii;
    arch        "LSB;label=32;scalar=64";
    class       volVectorField;
    location    "0.363";
    object      U;
}
// * * * * * * * * * * * * * * * * * * * * * * * * * * * * * * * * * * * * * //

dimensions      [0 1 -1 0 0 0 0];

internalField   nonuniform List<vector> 
31205
(
(111.914 0 0)
(114.352 0 0)
(116.865 0 0)
(119.427 0 0)
(122.021 0 0)
(124.632 0 0)
(127.249 0 0)
(129.863 0 0)
(132.467 0 0)
(135.056 0 0)
(137.625 0 0)
(140.172 0 0)
(142.694 0 0)
(145.19 0 0)
(147.659 0 0)
(150.1 0 0)
(152.513 0 0)
(154.896 0 0)
(157.251 0 0)
(159.577 0 0)
(161.874 0 0)
(164.143 0 0)
(166.384 0 0)
(168.597 0 0)
(170.783 0 0)
(172.942 0 0)
(175.074 0 0)
(177.181 0 0)
(179.261 0 0)
(181.317 0 0)
(183.348 0 0)
(185.354 0 0)
(187.337 0 0)
(189.296 0 0)
(191.232 0 0)
(193.145 0 0)
(195.036 0 0)
(196.905 0 0)
(198.753 0 0)
(200.579 0 0)
(202.384 0 0)
(204.169 0 0)
(205.933 0 0)
(207.678 0 0)
(209.403 0 0)
(211.109 0 0)
(212.795 0 0)
(214.463 0 0)
(216.112 0 0)
(217.742 0 0)
(219.355 0 0)
(220.95 0 0)
(222.527 0 0)
(224.086 0 0)
(225.628 0 0)
(227.154 0 0)
(228.662 0 0)
(230.154 0 0)
(231.629 0 0)
(233.087 0 0)
(234.529 0 0)
(235.956 0 0)
(237.366 0 0)
(238.76 0 0)
(240.139 0 0)
(241.502 0 0)
(242.85 0 0)
(244.182 0 0)
(245.499 0 0)
(246.801 0 0)
(248.088 0 0)
(249.36 0 0)
(250.617 0 0)
(251.858 0 0)
(253.089 0 0)
(254.288 0 0)
(255.528 0 0)
(256.584 0 0)
(258.144 0 0)
(114.513 0 0)
(116.951 0 0)
(119.436 0 0)
(121.951 0 0)
(124.483 0 0)
(127.021 0 0)
(129.557 0 0)
(132.084 0 0)
(134.598 0 0)
(137.094 0 0)
(139.57 0 0)
(142.024 0 0)
(144.453 0 0)
(146.857 0 0)
(149.235 0 0)
(151.586 0 0)
(153.91 0 0)
(156.207 0 0)
(158.477 0 0)
(160.72 0 0)
(162.936 0 0)
(165.125 0 0)
(167.289 0 0)
(169.426 0 0)
(171.538 0 0)
(173.624 0 0)
(175.686 0 0)
(177.723 0 0)
(179.737 0 0)
(181.726 0 0)
(183.693 0 0)
(185.636 0 0)
(187.558 0 0)
(189.457 0 0)
(191.334 0 0)
(193.19 0 0)
(195.025 0 0)
(196.84 0 0)
(198.634 0 0)
(200.408 0 0)
(202.162 0 0)
(203.897 0 0)
(205.613 0 0)
(207.31 0 0)
(208.988 0 0)
(210.648 0 0)
(212.29 0 0)
(213.914 0 0)
(215.521 0 0)
(217.11 0 0)
(218.682 0 0)
(220.237 0 0)
(221.775 0 0)
(223.297 0 0)
(224.802 0 0)
(226.291 0 0)
(227.764 0 0)
(229.221 0 0)
(230.663 0 0)
(232.088 0 0)
(233.499 0 0)
(234.894 0 0)
(236.274 0 0)
(237.639 0 0)
(238.989 0 0)
(240.324 0 0)
(241.644 0 0)
(242.95 0 0)
(244.242 0 0)
(245.519 0 0)
(246.781 0 0)
(248.03 0 0)
(249.264 0 0)
(250.483 0 0)
(251.693 0 0)
(252.873 0 0)
(254.091 0 0)
(255.132 0 0)
(256.661 0 0)
(117.239 0 0)
(119.65 0 0)
(122.088 0 0)
(124.541 0 0)
(127.001 0 0)
(129.458 0 0)
(131.909 0 0)
(134.347 0 0)
(136.769 0 0)
(139.173 0 0)
(141.555 0 0)
(143.916 0 0)
(146.253 0 0)
(148.566 0 0)
(150.854 0 0)
(153.116 0 0)
(155.354 0 0)
(157.566 0 0)
(159.752 0 0)
(161.914 0 0)
(164.05 0 0)
(166.161 0 0)
(168.248 0 0)
(170.311 0 0)
(172.35 0 0)
(174.365 0 0)
(176.358 0 0)
(178.327 0 0)
(180.274 0 0)
(182.199 0 0)
(184.102 0 0)
(185.984 0 0)
(187.845 0 0)
(189.684 0 0)
(191.504 0 0)
(193.304 0 0)
(195.083 0 0)
(196.844 0 0)
(198.585 0 0)
(200.307 0 0)
(202.011 0 0)
(203.697 0 0)
(205.364 0 0)
(207.014 0 0)
(208.646 0 0)
(210.26 0 0)
(211.858 0 0)
(213.439 0 0)
(215.003 0 0)
(216.551 0 0)
(218.082 0 0)
(219.597 0 0)
(221.097 0 0)
(222.581 0 0)
(224.049 0 0)
(225.502 0 0)
(226.939 0 0)
(228.362 0 0)
(229.77 0 0)
(231.162 0 0)
(232.541 0 0)
(233.904 0 0)
(235.254 0 0)
(236.589 0 0)
(237.91 0 0)
(239.216 0 0)
(240.509 0 0)
(241.788 0 0)
(243.053 0 0)
(244.305 0 0)
(245.543 0 0)
(246.767 0 0)
(247.979 0 0)
(249.175 0 0)
(250.363 0 0)
(251.522 0 0)
(252.718 0 0)
(253.744 0 0)
(255.241 0 0)
(119.984 0 0)
(122.348 0 0)
(124.726 0 0)
(127.109 0 0)
(129.491 0 0)
(131.866 0 0)
(134.229 0 0)
(136.578 0 0)
(138.91 0 0)
(141.223 0 0)
(143.515 0 0)
(145.786 0 0)
(148.033 0 0)
(150.258 0 0)
(152.459 0 0)
(154.637 0 0)
(156.79 0 0)
(158.92 0 0)
(161.027 0 0)
(163.109 0 0)
(165.168 0 0)
(167.205 0 0)
(169.218 0 0)
(171.208 0 0)
(173.177 0 0)
(175.123 0 0)
(177.048 0 0)
(178.952 0 0)
(180.834 0 0)
(182.696 0 0)
(184.538 0 0)
(186.359 0 0)
(188.161 0 0)
(189.943 0 0)
(191.707 0 0)
(193.451 0 0)
(195.177 0 0)
(196.884 0 0)
(198.574 0 0)
(200.246 0 0)
(201.9 0 0)
(203.537 0 0)
(205.157 0 0)
(206.76 0 0)
(208.347 0 0)
(209.917 0 0)
(211.471 0 0)
(213.009 0 0)
(214.532 0 0)
(216.038 0 0)
(217.53 0 0)
(219.006 0 0)
(220.467 0 0)
(221.914 0 0)
(223.345 0 0)
(224.762 0 0)
(226.165 0 0)
(227.553 0 0)
(228.927 0 0)
(230.287 0 0)
(231.633 0 0)
(232.966 0 0)
(234.285 0 0)
(235.59 0 0)
(236.881 0 0)
(238.16 0 0)
(239.425 0 0)
(240.677 0 0)
(241.916 0 0)
(243.141 0 0)
(244.354 0 0)
(245.554 0 0)
(246.742 0 0)
(247.916 0 0)
(249.082 0 0)
(250.219 0 0)
(251.393 0 0)
(252.402 0 0)
(253.87 0 0)
(122.693 0 0)
(124.998 0 0)
(127.307 0 0)
(129.614 0 0)
(131.916 0 0)
(134.206 0 0)
(136.484 0 0)
(138.745 0 0)
(140.989 0 0)
(143.214 0 0)
(145.418 0 0)
(147.602 0 0)
(149.764 0 0)
(151.904 0 0)
(154.022 0 0)
(156.118 0 0)
(158.191 0 0)
(160.242 0 0)
(162.271 0 0)
(164.278 0 0)
(166.263 0 0)
(168.227 0 0)
(170.17 0 0)
(172.091 0 0)
(173.991 0 0)
(175.871 0 0)
(177.731 0 0)
(179.571 0 0)
(181.392 0 0)
(183.193 0 0)
(184.975 0 0)
(186.738 0 0)
(188.482 0 0)
(190.209 0 0)
(191.917 0 0)
(193.608 0 0)
(195.282 0 0)
(196.938 0 0)
(198.577 0 0)
(200.2 0 0)
(201.806 0 0)
(203.396 0 0)
(204.969 0 0)
(206.527 0 0)
(208.069 0 0)
(209.596 0 0)
(211.108 0 0)
(212.604 0 0)
(214.086 0 0)
(215.553 0 0)
(217.005 0 0)
(218.443 0 0)
(219.866 0 0)
(221.276 0 0)
(222.671 0 0)
(224.053 0 0)
(225.421 0 0)
(226.775 0 0)
(228.116 0 0)
(229.444 0 0)
(230.759 0 0)
(232.06 0 0)
(233.348 0 0)
(234.624 0 0)
(235.887 0 0)
(237.137 0 0)
(238.374 0 0)
(239.599 0 0)
(240.812 0 0)
(242.012 0 0)
(243.2 0 0)
(244.375 0 0)
(245.539 0 0)
(246.69 0 0)
(247.833 0 0)
(248.949 0 0)
(250.101 0 0)
(251.092 0 0)
(252.532 0 0)
(125.338 0 0)
(127.576 0 0)
(129.811 0 0)
(132.041 0 0)
(134.26 0 0)
(136.467 0 0)
(138.66 0 0)
(140.836 0 0)
(142.994 0 0)
(145.134 0 0)
(147.254 0 0)
(149.354 0 0)
(151.434 0 0)
(153.493 0 0)
(155.531 0 0)
(157.549 0 0)
(159.545 0 0)
(161.521 0 0)
(163.476 0 0)
(165.41 0 0)
(167.325 0 0)
(169.219 0 0)
(171.093 0 0)
(172.948 0 0)
(174.783 0 0)
(176.599 0 0)
(178.396 0 0)
(180.175 0 0)
(181.935 0 0)
(183.678 0 0)
(185.402 0 0)
(187.109 0 0)
(188.798 0 0)
(190.471 0 0)
(192.126 0 0)
(193.765 0 0)
(195.388 0 0)
(196.994 0 0)
(198.585 0 0)
(200.16 0 0)
(201.719 0 0)
(203.263 0 0)
(204.792 0 0)
(206.305 0 0)
(207.804 0 0)
(209.289 0 0)
(210.759 0 0)
(212.215 0 0)
(213.656 0 0)
(215.084 0 0)
(216.498 0 0)
(217.898 0 0)
(219.285 0 0)
(220.658 0 0)
(222.018 0 0)
(223.365 0 0)
(224.699 0 0)
(226.02 0 0)
(227.329 0 0)
(228.625 0 0)
(229.908 0 0)
(231.179 0 0)
(232.437 0 0)
(233.683 0 0)
(234.917 0 0)
(236.139 0 0)
(237.349 0 0)
(238.547 0 0)
(239.734 0 0)
(240.908 0 0)
(242.071 0 0)
(243.223 0 0)
(244.363 0 0)
(245.49 0 0)
(246.611 0 0)
(247.705 0 0)
(248.835 0 0)
(249.808 0 0)
(251.22 0 0)
(127.908 0 0)
(130.073 0 0)
(132.232 0 0)
(134.382 0 0)
(136.521 0 0)
(138.646 0 0)
(140.755 0 0)
(142.849 0 0)
(144.924 0 0)
(146.982 0 0)
(149.021 0 0)
(151.041 0 0)
(153.042 0 0)
(155.023 0 0)
(156.985 0 0)
(158.927 0 0)
(160.85 0 0)
(162.754 0 0)
(164.638 0 0)
(166.503 0 0)
(168.349 0 0)
(170.176 0 0)
(171.985 0 0)
(173.776 0 0)
(175.548 0 0)
(177.303 0 0)
(179.04 0 0)
(180.76 0 0)
(182.462 0 0)
(184.148 0 0)
(185.817 0 0)
(187.469 0 0)
(189.106 0 0)
(190.726 0 0)
(192.33 0 0)
(193.919 0 0)
(195.492 0 0)
(197.05 0 0)
(198.594 0 0)
(200.122 0 0)
(201.636 0 0)
(203.135 0 0)
(204.62 0 0)
(206.091 0 0)
(207.548 0 0)
(208.991 0 0)
(210.42 0 0)
(211.836 0 0)
(213.239 0 0)
(214.629 0 0)
(216.005 0 0)
(217.368 0 0)
(218.719 0 0)
(220.057 0 0)
(221.383 0 0)
(222.696 0 0)
(223.996 0 0)
(225.285 0 0)
(226.561 0 0)
(227.826 0 0)
(229.078 0 0)
(230.319 0 0)
(231.548 0 0)
(232.765 0 0)
(233.971 0 0)
(235.165 0 0)
(236.348 0 0)
(237.519 0 0)
(238.68 0 0)
(239.829 0 0)
(240.967 0 0)
(242.094 0 0)
(243.21 0 0)
(244.314 0 0)
(245.413 0 0)
(246.485 0 0)
(247.593 0 0)
(248.547 0 0)
(249.931 0 0)
(130.395 0 0)
(132.486 0 0)
(134.568 0 0)
(136.639 0 0)
(138.698 0 0)
(140.743 0 0)
(142.772 0 0)
(144.785 0 0)
(146.781 0 0)
(148.76 0 0)
(150.721 0 0)
(152.665 0 0)
(154.59 0 0)
(156.496 0 0)
(158.385 0 0)
(160.255 0 0)
(162.108 0 0)
(163.942 0 0)
(165.758 0 0)
(167.556 0 0)
(169.337 0 0)
(171.101 0 0)
(172.847 0 0)
(174.576 0 0)
(176.288 0 0)
(177.983 0 0)
(179.662 0 0)
(181.325 0 0)
(182.972 0 0)
(184.603 0 0)
(186.218 0 0)
(187.818 0 0)
(189.403 0 0)
(190.973 0 0)
(192.528 0 0)
(194.068 0 0)
(195.593 0 0)
(197.105 0 0)
(198.602 0 0)
(200.085 0 0)
(201.555 0 0)
(203.011 0 0)
(204.453 0 0)
(205.882 0 0)
(207.298 0 0)
(208.701 0 0)
(210.091 0 0)
(211.469 0 0)
(212.833 0 0)
(214.186 0 0)
(215.525 0 0)
(216.853 0 0)
(218.168 0 0)
(219.472 0 0)
(220.763 0 0)
(222.043 0 0)
(223.311 0 0)
(224.567 0 0)
(225.812 0 0)
(227.046 0 0)
(228.268 0 0)
(229.479 0 0)
(230.679 0 0)
(231.867 0 0)
(233.045 0 0)
(234.212 0 0)
(235.368 0 0)
(236.513 0 0)
(237.648 0 0)
(238.772 0 0)
(239.886 0 0)
(240.988 0 0)
(242.081 0 0)
(243.162 0 0)
(244.238 0 0)
(245.288 0 0)
(246.374 0 0)
(247.309 0 0)
(248.666 0 0)
(132.798 0 0)
(134.814 0 0)
(136.819 0 0)
(138.813 0 0)
(140.794 0 0)
(142.76 0 0)
(144.712 0 0)
(146.647 0 0)
(148.567 0 0)
(150.47 0 0)
(152.357 0 0)
(154.227 0 0)
(156.079 0 0)
(157.915 0 0)
(159.733 0 0)
(161.535 0 0)
(163.319 0 0)
(165.087 0 0)
(166.838 0 0)
(168.572 0 0)
(170.291 0 0)
(171.992 0 0)
(173.678 0 0)
(175.348 0 0)
(177.002 0 0)
(178.641 0 0)
(180.264 0 0)
(181.872 0 0)
(183.465 0 0)
(185.043 0 0)
(186.607 0 0)
(188.156 0 0)
(189.691 0 0)
(191.212 0 0)
(192.719 0 0)
(194.212 0 0)
(195.691 0 0)
(197.157 0 0)
(198.61 0 0)
(200.05 0 0)
(201.477 0 0)
(202.89 0 0)
(204.291 0 0)
(205.68 0 0)
(207.056 0 0)
(208.42 0 0)
(209.772 0 0)
(211.111 0 0)
(212.439 0 0)
(213.754 0 0)
(215.059 0 0)
(216.351 0 0)
(217.632 0 0)
(218.902 0 0)
(220.16 0 0)
(221.407 0 0)
(222.643 0 0)
(223.868 0 0)
(225.082 0 0)
(226.285 0 0)
(227.477 0 0)
(228.659 0 0)
(229.83 0 0)
(230.991 0 0)
(232.141 0 0)
(233.281 0 0)
(234.41 0 0)
(235.53 0 0)
(236.639 0 0)
(237.738 0 0)
(238.827 0 0)
(239.906 0 0)
(240.975 0 0)
(242.033 0 0)
(243.086 0 0)
(244.115 0 0)
(245.178 0 0)
(246.095 0 0)
(247.424 0 0)
(135.116 0 0)
(137.057 0 0)
(138.987 0 0)
(140.906 0 0)
(142.81 0 0)
(144.701 0 0)
(146.578 0 0)
(148.439 0 0)
(150.286 0 0)
(152.116 0 0)
(153.931 0 0)
(155.73 0 0)
(157.513 0 0)
(159.28 0 0)
(161.032 0 0)
(162.767 0 0)
(164.487 0 0)
(166.191 0 0)
(167.88 0 0)
(169.553 0 0)
(171.21 0 0)
(172.853 0 0)
(174.481 0 0)
(176.094 0 0)
(177.692 0 0)
(179.276 0 0)
(180.845 0 0)
(182.401 0 0)
(183.942 0 0)
(185.469 0 0)
(186.983 0 0)
(188.483 0 0)
(189.97 0 0)
(191.444 0 0)
(192.904 0 0)
(194.352 0 0)
(195.786 0 0)
(197.208 0 0)
(198.618 0 0)
(200.015 0 0)
(201.4 0 0)
(202.773 0 0)
(204.134 0 0)
(205.483 0 0)
(206.821 0 0)
(208.146 0 0)
(209.46 0 0)
(210.763 0 0)
(212.055 0 0)
(213.335 0 0)
(214.604 0 0)
(215.862 0 0)
(217.11 0 0)
(218.346 0 0)
(219.572 0 0)
(220.787 0 0)
(221.991 0 0)
(223.186 0 0)
(224.369 0 0)
(225.543 0 0)
(226.706 0 0)
(227.859 0 0)
(229.002 0 0)
(230.135 0 0)
(231.258 0 0)
(232.371 0 0)
(233.474 0 0)
(234.568 0 0)
(235.652 0 0)
(236.726 0 0)
(237.791 0 0)
(238.846 0 0)
(239.892 0 0)
(240.927 0 0)
(241.958 0 0)
(242.965 0 0)
(244.006 0 0)
(244.905 0 0)
(246.205 0 0)
(137.35 0 0)
(139.218 0 0)
(141.075 0 0)
(142.919 0 0)
(144.751 0 0)
(146.569 0 0)
(148.373 0 0)
(150.163 0 0)
(151.939 0 0)
(153.7 0 0)
(155.446 0 0)
(157.177 0 0)
(158.894 0 0)
(160.596 0 0)
(162.283 0 0)
(163.955 0 0)
(165.613 0 0)
(167.256 0 0)
(168.884 0 0)
(170.498 0 0)
(172.098 0 0)
(173.684 0 0)
(175.256 0 0)
(176.814 0 0)
(178.359 0 0)
(179.89 0 0)
(181.408 0 0)
(182.912 0 0)
(184.403 0 0)
(185.882 0 0)
(187.347 0 0)
(188.8 0 0)
(190.24 0 0)
(191.668 0 0)
(193.084 0 0)
(194.487 0 0)
(195.878 0 0)
(197.258 0 0)
(198.626 0 0)
(199.982 0 0)
(201.327 0 0)
(202.66 0 0)
(203.982 0 0)
(205.292 0 0)
(206.592 0 0)
(207.88 0 0)
(209.158 0 0)
(210.425 0 0)
(211.681 0 0)
(212.927 0 0)
(214.162 0 0)
(215.387 0 0)
(216.601 0 0)
(217.805 0 0)
(218.999 0 0)
(220.183 0 0)
(221.357 0 0)
(222.521 0 0)
(223.675 0 0)
(224.819 0 0)
(225.953 0 0)
(227.078 0 0)
(228.193 0 0)
(229.299 0 0)
(230.395 0 0)
(231.482 0 0)
(232.56 0 0)
(233.628 0 0)
(234.687 0 0)
(235.737 0 0)
(236.778 0 0)
(237.809 0 0)
(238.832 0 0)
(239.845 0 0)
(240.853 0 0)
(241.838 0 0)
(242.857 0 0)
(243.737 0 0)
(245.01 0 0)
(139.501 0 0)
(141.298 0 0)
(143.083 0 0)
(144.857 0 0)
(146.618 0 0)
(148.366 0 0)
(150.101 0 0)
(151.822 0 0)
(153.53 0 0)
(155.224 0 0)
(156.905 0 0)
(158.571 0 0)
(160.224 0 0)
(161.863 0 0)
(163.488 0 0)
(165.1 0 0)
(166.698 0 0)
(168.282 0 0)
(169.853 0 0)
(171.411 0 0)
(172.956 0 0)
(174.487 0 0)
(176.005 0 0)
(177.511 0 0)
(179.004 0 0)
(180.484 0 0)
(181.951 0 0)
(183.407 0 0)
(184.85 0 0)
(186.281 0 0)
(187.699 0 0)
(189.107 0 0)
(190.502 0 0)
(191.886 0 0)
(193.258 0 0)
(194.618 0 0)
(195.968 0 0)
(197.306 0 0)
(198.633 0 0)
(199.95 0 0)
(201.255 0 0)
(202.55 0 0)
(203.833 0 0)
(205.107 0 0)
(206.37 0 0)
(207.622 0 0)
(208.864 0 0)
(210.096 0 0)
(211.318 0 0)
(212.53 0 0)
(213.732 0 0)
(214.924 0 0)
(216.106 0 0)
(217.278 0 0)
(218.441 0 0)
(219.594 0 0)
(220.738 0 0)
(221.872 0 0)
(222.997 0 0)
(224.113 0 0)
(225.219 0 0)
(226.316 0 0)
(227.404 0 0)
(228.483 0 0)
(229.553 0 0)
(230.614 0 0)
(231.666 0 0)
(232.709 0 0)
(233.744 0 0)
(234.77 0 0)
(235.787 0 0)
(236.795 0 0)
(237.795 0 0)
(238.785 0 0)
(239.771 0 0)
(240.735 0 0)
(241.732 0 0)
(242.594 0 0)
(243.839 0 0)
(141.572 0 0)
(143.299 0 0)
(145.016 0 0)
(146.721 0 0)
(148.414 0 0)
(150.094 0 0)
(151.763 0 0)
(153.418 0 0)
(155.062 0 0)
(156.692 0 0)
(158.309 0 0)
(159.914 0 0)
(161.505 0 0)
(163.084 0 0)
(164.651 0 0)
(166.204 0 0)
(167.745 0 0)
(169.273 0 0)
(170.789 0 0)
(172.292 0 0)
(173.783 0 0)
(175.262 0 0)
(176.729 0 0)
(178.184 0 0)
(179.627 0 0)
(181.058 0 0)
(182.477 0 0)
(183.885 0 0)
(185.282 0 0)
(186.667 0 0)
(188.041 0 0)
(189.404 0 0)
(190.755 0 0)
(192.096 0 0)
(193.426 0 0)
(194.746 0 0)
(196.055 0 0)
(197.353 0 0)
(198.641 0 0)
(199.918 0 0)
(201.186 0 0)
(202.443 0 0)
(203.69 0 0)
(204.927 0 0)
(206.154 0 0)
(207.371 0 0)
(208.579 0 0)
(209.777 0 0)
(210.965 0 0)
(212.144 0 0)
(213.313 0 0)
(214.474 0 0)
(215.624 0 0)
(216.766 0 0)
(217.898 0 0)
(219.021 0 0)
(220.136 0 0)
(221.241 0 0)
(222.337 0 0)
(223.425 0 0)
(224.503 0 0)
(225.573 0 0)
(226.634 0 0)
(227.687 0 0)
(228.731 0 0)
(229.767 0 0)
(230.794 0 0)
(231.812 0 0)
(232.822 0 0)
(233.824 0 0)
(234.818 0 0)
(235.803 0 0)
(236.78 0 0)
(237.748 0 0)
(238.712 0 0)
(239.655 0 0)
(240.63 0 0)
(241.473 0 0)
(242.691 0 0)
(143.564 0 0)
(145.225 0 0)
(146.875 0 0)
(148.514 0 0)
(150.142 0 0)
(151.758 0 0)
(153.362 0 0)
(154.955 0 0)
(156.536 0 0)
(158.105 0 0)
(159.662 0 0)
(161.207 0 0)
(162.74 0 0)
(164.261 0 0)
(165.771 0 0)
(167.269 0 0)
(168.755 0 0)
(170.229 0 0)
(171.691 0 0)
(173.143 0 0)
(174.582 0 0)
(176.011 0 0)
(177.428 0 0)
(178.834 0 0)
(180.229 0 0)
(181.613 0 0)
(182.986 0 0)
(184.348 0 0)
(185.7 0 0)
(187.041 0 0)
(188.371 0 0)
(189.691 0 0)
(191.001 0 0)
(192.301 0 0)
(193.59 0 0)
(194.87 0 0)
(196.139 0 0)
(197.398 0 0)
(198.648 0 0)
(199.888 0 0)
(201.118 0 0)
(202.339 0 0)
(203.55 0 0)
(204.752 0 0)
(205.944 0 0)
(207.128 0 0)
(208.301 0 0)
(209.466 0 0)
(210.622 0 0)
(211.769 0 0)
(212.907 0 0)
(214.035 0 0)
(215.155 0 0)
(216.267 0 0)
(217.369 0 0)
(218.463 0 0)
(219.549 0 0)
(220.626 0 0)
(221.694 0 0)
(222.754 0 0)
(223.805 0 0)
(224.849 0 0)
(225.883 0 0)
(226.91 0 0)
(227.929 0 0)
(228.939 0 0)
(229.941 0 0)
(230.936 0 0)
(231.922 0 0)
(232.9 0 0)
(233.871 0 0)
(234.833 0 0)
(235.788 0 0)
(236.734 0 0)
(237.676 0 0)
(238.598 0 0)
(239.551 0 0)
(240.376 0 0)
(241.566 0 0)
(145.481 0 0)
(147.078 0 0)
(148.664 0 0)
(150.239 0 0)
(151.804 0 0)
(153.358 0 0)
(154.902 0 0)
(156.434 0 0)
(157.955 0 0)
(159.466 0 0)
(160.965 0 0)
(162.453 0 0)
(163.93 0 0)
(165.396 0 0)
(166.851 0 0)
(168.295 0 0)
(169.729 0 0)
(171.151 0 0)
(172.563 0 0)
(173.964 0 0)
(175.354 0 0)
(176.734 0 0)
(178.104 0 0)
(179.463 0 0)
(180.811 0 0)
(182.15 0 0)
(183.478 0 0)
(184.796 0 0)
(186.105 0 0)
(187.403 0 0)
(188.692 0 0)
(189.97 0 0)
(191.239 0 0)
(192.499 0 0)
(193.749 0 0)
(194.989 0 0)
(196.221 0 0)
(197.443 0 0)
(198.655 0 0)
(199.859 0 0)
(201.053 0 0)
(202.238 0 0)
(203.415 0 0)
(204.582 0 0)
(205.741 0 0)
(206.891 0 0)
(208.032 0 0)
(209.165 0 0)
(210.288 0 0)
(211.404 0 0)
(212.511 0 0)
(213.609 0 0)
(214.699 0 0)
(215.781 0 0)
(216.855 0 0)
(217.92 0 0)
(218.977 0 0)
(220.026 0 0)
(221.067 0 0)
(222.1 0 0)
(223.125 0 0)
(224.142 0 0)
(225.151 0 0)
(226.152 0 0)
(227.146 0 0)
(228.132 0 0)
(229.11 0 0)
(230.08 0 0)
(231.043 0 0)
(231.998 0 0)
(232.945 0 0)
(233.885 0 0)
(234.818 0 0)
(235.742 0 0)
(236.663 0 0)
(237.564 0 0)
(238.496 0 0)
(239.303 0 0)
(240.465 0 0)
(147.326 0 0)
(148.86 0 0)
(150.385 0 0)
(151.899 0 0)
(153.404 0 0)
(154.899 0 0)
(156.384 0 0)
(157.858 0 0)
(159.322 0 0)
(160.776 0 0)
(162.22 0 0)
(163.654 0 0)
(165.077 0 0)
(166.49 0 0)
(167.893 0 0)
(169.286 0 0)
(170.669 0 0)
(172.041 0 0)
(173.404 0 0)
(174.757 0 0)
(176.1 0 0)
(177.433 0 0)
(178.756 0 0)
(180.07 0 0)
(181.374 0 0)
(182.669 0 0)
(183.954 0 0)
(185.23 0 0)
(186.496 0 0)
(187.754 0 0)
(189.002 0 0)
(190.24 0 0)
(191.47 0 0)
(192.691 0 0)
(193.903 0 0)
(195.106 0 0)
(196.3 0 0)
(197.485 0 0)
(198.662 0 0)
(199.83 0 0)
(200.99 0 0)
(202.141 0 0)
(203.283 0 0)
(204.418 0 0)
(205.543 0 0)
(206.661 0 0)
(207.77 0 0)
(208.871 0 0)
(209.964 0 0)
(211.049 0 0)
(212.126 0 0)
(213.195 0 0)
(214.256 0 0)
(215.309 0 0)
(216.354 0 0)
(217.391 0 0)
(218.42 0 0)
(219.442 0 0)
(220.456 0 0)
(221.463 0 0)
(222.462 0 0)
(223.453 0 0)
(224.437 0 0)
(225.413 0 0)
(226.382 0 0)
(227.344 0 0)
(228.298 0 0)
(229.244 0 0)
(230.184 0 0)
(231.116 0 0)
(232.041 0 0)
(232.959 0 0)
(233.87 0 0)
(234.773 0 0)
(235.672 0 0)
(236.552 0 0)
(237.463 0 0)
(238.252 0 0)
(239.387 0 0)
(149.1 0 0)
(150.575 0 0)
(152.041 0 0)
(153.497 0 0)
(154.944 0 0)
(156.382 0 0)
(157.811 0 0)
(159.23 0 0)
(160.639 0 0)
(162.039 0 0)
(163.43 0 0)
(164.811 0 0)
(166.183 0 0)
(167.545 0 0)
(168.898 0 0)
(170.242 0 0)
(171.576 0 0)
(172.901 0 0)
(174.216 0 0)
(175.523 0 0)
(176.82 0 0)
(178.108 0 0)
(179.388 0 0)
(180.658 0 0)
(181.919 0 0)
(183.171 0 0)
(184.415 0 0)
(185.65 0 0)
(186.876 0 0)
(188.093 0 0)
(189.302 0 0)
(190.502 0 0)
(191.694 0 0)
(192.877 0 0)
(194.052 0 0)
(195.219 0 0)
(196.377 0 0)
(197.527 0 0)
(198.669 0 0)
(199.803 0 0)
(200.929 0 0)
(202.046 0 0)
(203.156 0 0)
(204.258 0 0)
(205.352 0 0)
(206.438 0 0)
(207.516 0 0)
(208.586 0 0)
(209.649 0 0)
(210.704 0 0)
(211.752 0 0)
(212.791 0 0)
(213.824 0 0)
(214.849 0 0)
(215.866 0 0)
(216.876 0 0)
(217.878 0 0)
(218.874 0 0)
(219.862 0 0)
(220.842 0 0)
(221.815 0 0)
(222.782 0 0)
(223.741 0 0)
(224.692 0 0)
(225.637 0 0)
(226.575 0 0)
(227.505 0 0)
(228.429 0 0)
(229.346 0 0)
(230.255 0 0)
(231.158 0 0)
(232.054 0 0)
(232.943 0 0)
(233.825 0 0)
(234.703 0 0)
(235.563 0 0)
(236.452 0 0)
(237.224 0 0)
(238.331 0 0)
(150.808 0 0)
(152.225 0 0)
(153.634 0 0)
(155.035 0 0)
(156.427 0 0)
(157.81 0 0)
(159.185 0 0)
(160.551 0 0)
(161.908 0 0)
(163.256 0 0)
(164.596 0 0)
(165.927 0 0)
(167.249 0 0)
(168.563 0 0)
(169.868 0 0)
(171.164 0 0)
(172.451 0 0)
(173.73 0 0)
(175.001 0 0)
(176.263 0 0)
(177.516 0 0)
(178.761 0 0)
(179.998 0 0)
(181.226 0 0)
(182.446 0 0)
(183.657 0 0)
(184.861 0 0)
(186.056 0 0)
(187.243 0 0)
(188.422 0 0)
(189.593 0 0)
(190.756 0 0)
(191.911 0 0)
(193.058 0 0)
(194.197 0 0)
(195.328 0 0)
(196.452 0 0)
(197.568 0 0)
(198.676 0 0)
(199.776 0 0)
(200.869 0 0)
(201.954 0 0)
(203.032 0 0)
(204.102 0 0)
(205.165 0 0)
(206.221 0 0)
(207.269 0 0)
(208.309 0 0)
(209.343 0 0)
(210.369 0 0)
(211.388 0 0)
(212.399 0 0)
(213.404 0 0)
(214.401 0 0)
(215.391 0 0)
(216.375 0 0)
(217.351 0 0)
(218.32 0 0)
(219.282 0 0)
(220.237 0 0)
(221.186 0 0)
(222.127 0 0)
(223.062 0 0)
(223.99 0 0)
(224.911 0 0)
(225.825 0 0)
(226.732 0 0)
(227.633 0 0)
(228.527 0 0)
(229.415 0 0)
(230.296 0 0)
(231.17 0 0)
(232.038 0 0)
(232.899 0 0)
(233.756 0 0)
(234.596 0 0)
(235.464 0 0)
(236.218 0 0)
(237.299 0 0)
(152.45 0 0)
(153.813 0 0)
(155.168 0 0)
(156.515 0 0)
(157.854 0 0)
(159.185 0 0)
(160.508 0 0)
(161.823 0 0)
(163.13 0 0)
(164.429 0 0)
(165.72 0 0)
(167.003 0 0)
(168.278 0 0)
(169.545 0 0)
(170.803 0 0)
(172.054 0 0)
(173.297 0 0)
(174.532 0 0)
(175.759 0 0)
(176.978 0 0)
(178.189 0 0)
(179.392 0 0)
(180.587 0 0)
(181.775 0 0)
(182.955 0 0)
(184.127 0 0)
(185.292 0 0)
(186.449 0 0)
(187.598 0 0)
(188.74 0 0)
(189.875 0 0)
(191.001 0 0)
(192.121 0 0)
(193.233 0 0)
(194.337 0 0)
(195.434 0 0)
(196.524 0 0)
(197.607 0 0)
(198.682 0 0)
(199.751 0 0)
(200.812 0 0)
(201.865 0 0)
(202.912 0 0)
(203.952 0 0)
(204.984 0 0)
(206.01 0 0)
(207.029 0 0)
(208.04 0 0)
(209.045 0 0)
(210.043 0 0)
(211.034 0 0)
(212.018 0 0)
(212.995 0 0)
(213.966 0 0)
(214.93 0 0)
(215.887 0 0)
(216.837 0 0)
(217.781 0 0)
(218.718 0 0)
(219.648 0 0)
(220.572 0 0)
(221.489 0 0)
(222.4 0 0)
(223.304 0 0)
(224.202 0 0)
(225.094 0 0)
(225.978 0 0)
(226.857 0 0)
(227.729 0 0)
(228.595 0 0)
(229.454 0 0)
(230.307 0 0)
(231.154 0 0)
(231.994 0 0)
(232.831 0 0)
(233.651 0 0)
(234.498 0 0)
(235.235 0 0)
(236.29 0 0)
(154.031 0 0)
(155.341 0 0)
(156.644 0 0)
(157.94 0 0)
(159.228 0 0)
(160.509 0 0)
(161.783 0 0)
(163.049 0 0)
(164.308 0 0)
(165.56 0 0)
(166.804 0 0)
(168.041 0 0)
(169.27 0 0)
(170.492 0 0)
(171.706 0 0)
(172.913 0 0)
(174.113 0 0)
(175.305 0 0)
(176.49 0 0)
(177.668 0 0)
(178.839 0 0)
(180.002 0 0)
(181.158 0 0)
(182.306 0 0)
(183.448 0 0)
(184.582 0 0)
(185.71 0 0)
(186.83 0 0)
(187.943 0 0)
(189.049 0 0)
(190.147 0 0)
(191.239 0 0)
(192.324 0 0)
(193.402 0 0)
(194.473 0 0)
(195.538 0 0)
(196.595 0 0)
(197.645 0 0)
(198.689 0 0)
(199.726 0 0)
(200.756 0 0)
(201.779 0 0)
(202.796 0 0)
(203.806 0 0)
(204.809 0 0)
(205.806 0 0)
(206.796 0 0)
(207.779 0 0)
(208.756 0 0)
(209.726 0 0)
(210.69 0 0)
(211.647 0 0)
(212.598 0 0)
(213.542 0 0)
(214.48 0 0)
(215.412 0 0)
(216.337 0 0)
(217.256 0 0)
(218.168 0 0)
(219.075 0 0)
(219.974 0 0)
(220.868 0 0)
(221.755 0 0)
(222.637 0 0)
(223.512 0 0)
(224.38 0 0)
(225.243 0 0)
(226.099 0 0)
(226.95 0 0)
(227.794 0 0)
(228.632 0 0)
(229.465 0 0)
(230.291 0 0)
(231.11 0 0)
(231.927 0 0)
(232.727 0 0)
(233.554 0 0)
(234.274 0 0)
(235.302 0 0)
(155.553 0 0)
(156.813 0 0)
(158.066 0 0)
(159.312 0 0)
(160.552 0 0)
(161.785 0 0)
(163.011 0 0)
(164.231 0 0)
(165.444 0 0)
(166.65 0 0)
(167.849 0 0)
(169.041 0 0)
(170.227 0 0)
(171.406 0 0)
(172.578 0 0)
(173.743 0 0)
(174.901 0 0)
(176.053 0 0)
(177.198 0 0)
(178.336 0 0)
(179.467 0 0)
(180.591 0 0)
(181.709 0 0)
(182.82 0 0)
(183.925 0 0)
(185.022 0 0)
(186.114 0 0)
(187.198 0 0)
(188.276 0 0)
(189.347 0 0)
(190.412 0 0)
(191.47 0 0)
(192.522 0 0)
(193.567 0 0)
(194.605 0 0)
(195.637 0 0)
(196.663 0 0)
(197.682 0 0)
(198.695 0 0)
(199.702 0 0)
(200.702 0 0)
(201.695 0 0)
(202.683 0 0)
(203.664 0 0)
(204.638 0 0)
(205.607 0 0)
(206.569 0 0)
(207.525 0 0)
(208.475 0 0)
(209.418 0 0)
(210.356 0 0)
(211.287 0 0)
(212.212 0 0)
(213.131 0 0)
(214.043 0 0)
(214.95 0 0)
(215.85 0 0)
(216.745 0 0)
(217.633 0 0)
(218.516 0 0)
(219.392 0 0)
(220.263 0 0)
(221.127 0 0)
(221.986 0 0)
(222.838 0 0)
(223.685 0 0)
(224.526 0 0)
(225.361 0 0)
(226.19 0 0)
(227.013 0 0)
(227.831 0 0)
(228.642 0 0)
(229.448 0 0)
(230.247 0 0)
(231.044 0 0)
(231.825 0 0)
(232.632 0 0)
(233.335 0 0)
(234.337 0 0)
(157.018 0 0)
(158.229 0 0)
(159.435 0 0)
(160.634 0 0)
(161.827 0 0)
(163.014 0 0)
(164.195 0 0)
(165.37 0 0)
(166.539 0 0)
(167.701 0 0)
(168.857 0 0)
(170.007 0 0)
(171.151 0 0)
(172.288 0 0)
(173.419 0 0)
(174.544 0 0)
(175.662 0 0)
(176.775 0 0)
(177.881 0 0)
(178.981 0 0)
(180.074 0 0)
(181.161 0 0)
(182.242 0 0)
(183.317 0 0)
(184.386 0 0)
(185.448 0 0)
(186.505 0 0)
(187.555 0 0)
(188.599 0 0)
(189.636 0 0)
(190.668 0 0)
(191.694 0 0)
(192.713 0 0)
(193.726 0 0)
(194.733 0 0)
(195.734 0 0)
(196.73 0 0)
(197.719 0 0)
(198.701 0 0)
(199.678 0 0)
(200.649 0 0)
(201.614 0 0)
(202.573 0 0)
(203.526 0 0)
(204.473 0 0)
(205.414 0 0)
(206.349 0 0)
(207.278 0 0)
(208.202 0 0)
(209.119 0 0)
(210.031 0 0)
(210.936 0 0)
(211.836 0 0)
(212.73 0 0)
(213.618 0 0)
(214.5 0 0)
(215.377 0 0)
(216.248 0 0)
(217.113 0 0)
(217.972 0 0)
(218.825 0 0)
(219.673 0 0)
(220.515 0 0)
(221.352 0 0)
(222.182 0 0)
(223.007 0 0)
(223.827 0 0)
(224.64 0 0)
(225.449 0 0)
(226.251 0 0)
(227.048 0 0)
(227.839 0 0)
(228.626 0 0)
(229.405 0 0)
(230.182 0 0)
(230.944 0 0)
(231.731 0 0)
(232.417 0 0)
(233.394 0 0)
(158.428 0 0)
(159.593 0 0)
(160.753 0 0)
(161.907 0 0)
(163.056 0 0)
(164.199 0 0)
(165.337 0 0)
(166.468 0 0)
(167.595 0 0)
(168.715 0 0)
(169.83 0 0)
(170.939 0 0)
(172.042 0 0)
(173.14 0 0)
(174.231 0 0)
(175.317 0 0)
(176.398 0 0)
(177.472 0 0)
(178.541 0 0)
(179.604 0 0)
(180.661 0 0)
(181.713 0 0)
(182.758 0 0)
(183.798 0 0)
(184.832 0 0)
(185.861 0 0)
(186.883 0 0)
(187.9 0 0)
(188.911 0 0)
(189.917 0 0)
(190.916 0 0)
(191.91 0 0)
(192.898 0 0)
(193.881 0 0)
(194.858 0 0)
(195.829 0 0)
(196.794 0 0)
(197.754 0 0)
(198.708 0 0)
(199.656 0 0)
(200.598 0 0)
(201.535 0 0)
(202.467 0 0)
(203.392 0 0)
(204.312 0 0)
(205.227 0 0)
(206.136 0 0)
(207.039 0 0)
(207.936 0 0)
(208.828 0 0)
(209.715 0 0)
(210.595 0 0)
(211.471 0 0)
(212.34 0 0)
(213.204 0 0)
(214.063 0 0)
(214.916 0 0)
(215.764 0 0)
(216.606 0 0)
(217.442 0 0)
(218.273 0 0)
(219.099 0 0)
(219.919 0 0)
(220.734 0 0)
(221.543 0 0)
(222.347 0 0)
(223.145 0 0)
(223.938 0 0)
(224.726 0 0)
(225.508 0 0)
(226.285 0 0)
(227.056 0 0)
(227.823 0 0)
(228.583 0 0)
(229.341 0 0)
(230.084 0 0)
(230.851 0 0)
(231.521 0 0)
(232.473 0 0)
(159.786 0 0)
(160.907 0 0)
(162.023 0 0)
(163.134 0 0)
(164.24 0 0)
(165.341 0 0)
(166.437 0 0)
(167.527 0 0)
(168.613 0 0)
(169.693 0 0)
(170.768 0 0)
(171.838 0 0)
(172.903 0 0)
(173.962 0 0)
(175.016 0 0)
(176.065 0 0)
(177.108 0 0)
(178.146 0 0)
(179.179 0 0)
(180.207 0 0)
(181.229 0 0)
(182.246 0 0)
(183.257 0 0)
(184.263 0 0)
(185.264 0 0)
(186.26 0 0)
(187.25 0 0)
(188.234 0 0)
(189.214 0 0)
(190.188 0 0)
(191.157 0 0)
(192.12 0 0)
(193.078 0 0)
(194.031 0 0)
(194.978 0 0)
(195.92 0 0)
(196.856 0 0)
(197.788 0 0)
(198.714 0 0)
(199.634 0 0)
(200.549 0 0)
(201.459 0 0)
(202.364 0 0)
(203.263 0 0)
(204.156 0 0)
(205.045 0 0)
(205.928 0 0)
(206.806 0 0)
(207.678 0 0)
(208.546 0 0)
(209.408 0 0)
(210.264 0 0)
(211.115 0 0)
(211.961 0 0)
(212.802 0 0)
(213.638 0 0)
(214.468 0 0)
(215.293 0 0)
(216.112 0 0)
(216.927 0 0)
(217.736 0 0)
(218.54 0 0)
(219.338 0 0)
(220.132 0 0)
(220.92 0 0)
(221.703 0 0)
(222.481 0 0)
(223.253 0 0)
(224.021 0 0)
(224.783 0 0)
(225.54 0 0)
(226.292 0 0)
(227.039 0 0)
(227.78 0 0)
(228.519 0 0)
(229.244 0 0)
(229.992 0 0)
(230.646 0 0)
(231.573 0 0)
(161.094 0 0)
(162.173 0 0)
(163.247 0 0)
(164.317 0 0)
(165.382 0 0)
(166.442 0 0)
(167.498 0 0)
(168.549 0 0)
(169.595 0 0)
(170.637 0 0)
(171.674 0 0)
(172.706 0 0)
(173.733 0 0)
(174.756 0 0)
(175.773 0 0)
(176.786 0 0)
(177.794 0 0)
(178.798 0 0)
(179.796 0 0)
(180.789 0 0)
(181.778 0 0)
(182.761 0 0)
(183.74 0 0)
(184.713 0 0)
(185.682 0 0)
(186.646 0 0)
(187.605 0 0)
(188.558 0 0)
(189.507 0 0)
(190.451 0 0)
(191.39 0 0)
(192.323 0 0)
(193.252 0 0)
(194.176 0 0)
(195.095 0 0)
(196.008 0 0)
(196.917 0 0)
(197.821 0 0)
(198.719 0 0)
(199.613 0 0)
(200.501 0 0)
(201.385 0 0)
(202.263 0 0)
(203.137 0 0)
(204.005 0 0)
(204.868 0 0)
(205.727 0 0)
(206.58 0 0)
(207.428 0 0)
(208.271 0 0)
(209.109 0 0)
(209.942 0 0)
(210.77 0 0)
(211.593 0 0)
(212.411 0 0)
(213.224 0 0)
(214.032 0 0)
(214.834 0 0)
(215.632 0 0)
(216.425 0 0)
(217.212 0 0)
(217.995 0 0)
(218.773 0 0)
(219.545 0 0)
(220.313 0 0)
(221.076 0 0)
(221.833 0 0)
(222.586 0 0)
(223.334 0 0)
(224.076 0 0)
(224.814 0 0)
(225.547 0 0)
(226.275 0 0)
(226.997 0 0)
(227.718 0 0)
(228.424 0 0)
(229.153 0 0)
(229.791 0 0)
(230.694 0 0)
(162.355 0 0)
(163.393 0 0)
(164.427 0 0)
(165.456 0 0)
(166.482 0 0)
(167.504 0 0)
(168.521 0 0)
(169.534 0 0)
(170.543 0 0)
(171.548 0 0)
(172.548 0 0)
(173.544 0 0)
(174.535 0 0)
(175.523 0 0)
(176.505 0 0)
(177.484 0 0)
(178.458 0 0)
(179.427 0 0)
(180.392 0 0)
(181.352 0 0)
(182.308 0 0)
(183.26 0 0)
(184.207 0 0)
(185.149 0 0)
(186.087 0 0)
(187.02 0 0)
(187.948 0 0)
(188.872 0 0)
(189.791 0 0)
(190.706 0 0)
(191.615 0 0)
(192.521 0 0)
(193.421 0 0)
(194.317 0 0)
(195.208 0 0)
(196.094 0 0)
(196.976 0 0)
(197.853 0 0)
(198.725 0 0)
(199.593 0 0)
(200.455 0 0)
(201.313 0 0)
(202.166 0 0)
(203.015 0 0)
(203.858 0 0)
(204.697 0 0)
(205.531 0 0)
(206.36 0 0)
(207.185 0 0)
(208.004 0 0)
(208.819 0 0)
(209.629 0 0)
(210.434 0 0)
(211.235 0 0)
(212.03 0 0)
(212.821 0 0)
(213.607 0 0)
(214.388 0 0)
(215.165 0 0)
(215.936 0 0)
(216.703 0 0)
(217.465 0 0)
(218.222 0 0)
(218.974 0 0)
(219.722 0 0)
(220.465 0 0)
(221.202 0 0)
(221.936 0 0)
(222.664 0 0)
(223.388 0 0)
(224.106 0 0)
(224.82 0 0)
(225.53 0 0)
(226.234 0 0)
(226.936 0 0)
(227.624 0 0)
(228.335 0 0)
(228.957 0 0)
(229.835 0 0)
(163.569 0 0)
(164.568 0 0)
(165.563 0 0)
(166.555 0 0)
(167.543 0 0)
(168.527 0 0)
(169.508 0 0)
(170.485 0 0)
(171.457 0 0)
(172.426 0 0)
(173.392 0 0)
(174.353 0 0)
(175.31 0 0)
(176.263 0 0)
(177.212 0 0)
(178.157 0 0)
(179.099 0 0)
(180.036 0 0)
(180.968 0 0)
(181.897 0 0)
(182.822 0 0)
(183.742 0 0)
(184.658 0 0)
(185.57 0 0)
(186.478 0 0)
(187.381 0 0)
(188.281 0 0)
(189.175 0 0)
(190.066 0 0)
(190.952 0 0)
(191.834 0 0)
(192.712 0 0)
(193.585 0 0)
(194.453 0 0)
(195.318 0 0)
(196.178 0 0)
(197.033 0 0)
(197.884 0 0)
(198.731 0 0)