/*--------------------------------*- C++ -*----------------------------------*\
| =========                 |                                                 |
| \\      /  F ield         | OpenFOAM: The Open Source CFD Toolbox           |
|  \\    /   O peration     | Version:  2312                                  |
|   \\  /    A nd           | Website:  www.openfoam.com                      |
|    \\/     M anipulation  |                                                 |
\*---------------------------------------------------------------------------*/
FoamFile
{
    version     2.0;
    format      ascii;
    arch        "LSB;label=32;scalar=64";
    class       volVectorField;
    location    "0.667";
    object      U;
}
// * * * * * * * * * * * * * * * * * * * * * * * * * * * * * * * * * * * * * //

dimensions      [0 1 -1 0 0 0 0];

internalField   nonuniform List<vector> 
31205
(
(154.807 0 0)
(151.291 0 0)
(147.687 0 0)
(143.996 0 0)
(140.224 0 0)
(136.38 0 0)
(132.483 0 0)
(128.562 0 0)
(124.659 0 0)
(120.839 0 0)
(117.179 0 0)
(113.772 0 0)
(110.706 0 0)
(108.059 0 0)
(105.877 0 0)
(104.177 0 0)
(102.946 0 0)
(102.148 0 0)
(101.738 0 0)
(101.662 0 0)
(101.871 0 0)
(102.317 0 0)
(102.961 0 0)
(103.767 0 0)
(104.707 0 0)
(105.757 0 0)
(106.897 0 0)
(108.11 0 0)
(109.385 0 0)
(110.709 0 0)
(112.074 0 0)
(113.472 0 0)
(114.898 0 0)
(116.346 0 0)
(117.811 0 0)
(119.291 0 0)
(120.782 0 0)
(122.282 0 0)
(123.789 0 0)
(125.3 0 0)
(126.814 0 0)
(128.329 0 0)
(129.846 0 0)
(131.362 0 0)
(132.876 0 0)
(134.389 0 0)
(135.898 0 0)
(137.405 0 0)
(138.908 0 0)
(140.406 0 0)
(141.9 0 0)
(143.389 0 0)
(144.873 0 0)
(146.352 0 0)
(147.825 0 0)
(149.292 0 0)
(150.753 0 0)
(152.208 0 0)
(153.657 0 0)
(155.1 0 0)
(156.537 0 0)
(157.967 0 0)
(159.39 0 0)
(160.807 0 0)
(162.217 0 0)
(163.621 0 0)
(165.018 0 0)
(166.409 0 0)
(167.792 0 0)
(169.169 0 0)
(170.54 0 0)
(171.903 0 0)
(173.261 0 0)
(174.61 0 0)
(175.958 0 0)
(177.28 0 0)
(178.657 0 0)
(179.835 0 0)
(181.599 0 0)
(151.073 0 0)
(147.574 0 0)
(143.993 0 0)
(140.335 0 0)
(136.609 0 0)
(132.831 0 0)
(129.025 0 0)
(125.232 0 0)
(121.503 0 0)
(117.911 0 0)
(114.536 0 0)
(111.463 0 0)
(108.767 0 0)
(106.501 0 0)
(104.688 0 0)
(103.326 0 0)
(102.388 0 0)
(101.836 0 0)
(101.622 0 0)
(101.699 0 0)
(102.021 0 0)
(102.548 0 0)
(103.246 0 0)
(104.086 0 0)
(105.042 0 0)
(106.094 0 0)
(107.226 0 0)
(108.423 0 0)
(109.674 0 0)
(110.97 0 0)
(112.302 0 0)
(113.665 0 0)
(115.053 0 0)
(116.461 0 0)
(117.885 0 0)
(119.322 0 0)
(120.77 0 0)
(122.226 0 0)
(123.688 0 0)
(125.155 0 0)
(126.625 0 0)
(128.096 0 0)
(129.568 0 0)
(131.039 0 0)
(132.51 0 0)
(133.978 0 0)
(135.444 0 0)
(136.907 0 0)
(138.367 0 0)
(139.823 0 0)
(141.275 0 0)
(142.722 0 0)
(144.164 0 0)
(145.601 0 0)
(147.034 0 0)
(148.46 0 0)
(149.882 0 0)
(151.297 0 0)
(152.707 0 0)
(154.111 0 0)
(155.509 0 0)
(156.9 0 0)
(158.286 0 0)
(159.666 0 0)
(161.039 0 0)
(162.406 0 0)
(163.767 0 0)
(165.121 0 0)
(166.469 0 0)
(167.811 0 0)
(169.146 0 0)
(170.475 0 0)
(171.799 0 0)
(173.113 0 0)
(174.428 0 0)
(175.717 0 0)
(177.06 0 0)
(178.211 0 0)
(179.925 0 0)
(147.171 0 0)
(143.693 0 0)
(140.143 0 0)
(136.53 0 0)
(132.868 0 0)
(129.179 0 0)
(125.499 0 0)
(121.876 0 0)
(118.372 0 0)
(115.061 0 0)
(112.02 0 0)
(109.322 0 0)
(107.018 0 0)
(105.138 0 0)
(103.687 0 0)
(102.645 0 0)
(101.981 0 0)
(101.652 0 0)
(101.615 0 0)
(101.827 0 0)
(102.249 0 0)
(102.847 0 0)
(103.592 0 0)
(104.459 0 0)
(105.427 0 0)
(106.479 0 0)
(107.601 0 0)
(108.781 0 0)
(110.009 0 0)
(111.276 0 0)
(112.577 0 0)
(113.905 0 0)
(115.255 0 0)
(116.624 0 0)
(118.007 0 0)
(119.403 0 0)
(120.809 0 0)
(122.222 0 0)
(123.641 0 0)
(125.064 0 0)
(126.49 0 0)
(127.918 0 0)
(129.346 0 0)
(130.774 0 0)
(132.201 0 0)
(133.627 0 0)
(135.05 0 0)
(136.471 0 0)
(137.888 0 0)
(139.302 0 0)
(140.712 0 0)
(142.118 0 0)
(143.52 0 0)
(144.917 0 0)
(146.309 0 0)
(147.696 0 0)
(149.078 0 0)
(150.454 0 0)
(151.825 0 0)
(153.191 0 0)
(154.551 0 0)
(155.905 0 0)
(157.254 0 0)
(158.596 0 0)
(159.933 0 0)
(161.264 0 0)
(162.589 0 0)
(163.908 0 0)
(165.221 0 0)
(166.528 0 0)
(167.829 0 0)
(169.124 0 0)
(170.413 0 0)
(171.694 0 0)
(172.976 0 0)
(174.232 0 0)
(175.541 0 0)
(176.666 0 0)
(178.329 0 0)
(143.216 0 0)
(139.768 0 0)
(136.261 0 0)
(132.71 0 0)
(129.135 0 0)
(125.568 0 0)
(122.052 0 0)
(118.644 0 0)
(115.411 0 0)
(112.424 0 0)
(109.749 0 0)
(107.438 0 0)
(105.523 0 0)
(104.012 0 0)
(102.894 0 0)
(102.141 0 0)
(101.717 0 0)
(101.582 0 0)
(101.697 0 0)
(102.025 0 0)
(102.532 0 0)
(103.19 0 0)
(103.973 0 0)
(104.862 0 0)
(105.838 0 0)
(106.888 0 0)
(107.998 0 0)
(109.16 0 0)
(110.364 0 0)
(111.604 0 0)
(112.873 0 0)
(114.166 0 0)
(115.481 0 0)
(116.811 0 0)
(118.156 0 0)
(119.512 0 0)
(120.876 0 0)
(122.248 0 0)
(123.625 0 0)
(125.006 0 0)
(126.39 0 0)
(127.775 0 0)
(129.161 0 0)
(130.547 0 0)
(131.932 0 0)
(133.316 0 0)
(134.698 0 0)
(136.077 0 0)
(137.453 0 0)
(138.826 0 0)
(140.196 0 0)
(141.562 0 0)
(142.924 0 0)
(144.281 0 0)
(145.634 0 0)
(146.982 0 0)
(148.325 0 0)
(149.664 0 0)
(150.997 0 0)
(152.325 0 0)
(153.648 0 0)
(154.965 0 0)
(156.277 0 0)
(157.584 0 0)
(158.884 0 0)
(160.18 0 0)
(161.47 0 0)
(162.754 0 0)
(164.032 0 0)
(165.305 0 0)
(166.572 0 0)
(167.833 0 0)
(169.089 0 0)
(170.338 0 0)
(171.586 0 0)
(172.811 0 0)
(174.086 0 0)
(175.183 0 0)
(176.801 0 0)
(139.266 0 0)
(135.862 0 0)
(132.417 0 0)
(128.952 0 0)
(125.496 0 0)
(122.088 0 0)
(118.78 0 0)
(115.633 0 0)
(112.711 0 0)
(110.076 0 0)
(107.778 0 0)
(105.849 0 0)
(104.301 0 0)
(103.126 0 0)
(102.303 0 0)
(101.801 0 0)
(101.583 0 0)
(101.613 0 0)
(101.855 0 0)
(102.279 0 0)
(102.855 0 0)
(103.561 0 0)
(104.374 0 0)
(105.278 0 0)
(106.258 0 0)
(107.302 0 0)
(108.399 0 0)
(109.542 0 0)
(110.722 0 0)
(111.934 0 0)
(113.172 0 0)
(114.432 0 0)
(115.711 0 0)
(117.005 0 0)
(118.312 0 0)
(119.628 0 0)
(120.953 0 0)
(122.285 0 0)
(123.621 0 0)
(124.961 0 0)
(126.304 0 0)
(127.648 0 0)
(128.993 0 0)
(130.338 0 0)
(131.683 0 0)
(133.026 0 0)
(134.367 0 0)
(135.706 0 0)
(137.043 0 0)
(138.376 0 0)
(139.706 0 0)
(141.033 0 0)
(142.356 0 0)
(143.675 0 0)
(144.989 0 0)
(146.3 0 0)
(147.605 0 0)
(148.906 0 0)
(150.203 0 0)
(151.494 0 0)
(152.78 0 0)
(154.062 0 0)
(155.338 0 0)
(156.609 0 0)
(157.875 0 0)
(159.136 0 0)
(160.391 0 0)
(161.641 0 0)
(162.885 0 0)
(164.125 0 0)
(165.358 0 0)
(166.587 0 0)
(167.81 0 0)
(169.026 0 0)
(170.242 0 0)
(171.436 0 0)
(172.677 0 0)
(173.748 0 0)
(175.322 0 0)
(135.359 0 0)
(132.017 0 0)
(128.659 0 0)
(125.311 0 0)
(122.01 0 0)
(118.804 0 0)
(115.748 0 0)
(112.9 0 0)
(110.317 0 0)
(108.047 0 0)
(106.122 0 0)
(104.554 0 0)
(103.34 0 0)
(102.463 0 0)
(101.897 0 0)
(101.607 0 0)
(101.562 0 0)
(101.728 0 0)
(102.076 0 0)
(102.577 0 0)
(103.209 0 0)
(103.951 0 0)
(104.786 0 0)
(105.7 0 0)
(106.679 0 0)
(107.715 0 0)
(108.798 0 0)
(109.92 0 0)
(111.075 0 0)
(112.259 0 0)
(113.467 0 0)
(114.695 0 0)
(115.939 0 0)
(117.197 0 0)
(118.466 0 0)
(119.745 0 0)
(121.032 0 0)
(122.324 0 0)
(123.621 0 0)
(124.922 0 0)
(126.225 0 0)
(127.529 0 0)
(128.835 0 0)
(130.14 0 0)
(131.445 0 0)
(132.748 0 0)
(134.05 0 0)
(135.35 0 0)
(136.648 0 0)
(137.943 0 0)
(139.235 0 0)
(140.523 0 0)
(141.808 0 0)
(143.09 0 0)
(144.367 0 0)
(145.64 0 0)
(146.909 0 0)
(148.174 0 0)
(149.434 0 0)
(150.69 0 0)
(151.941 0 0)
(153.187 0 0)
(154.428 0 0)
(155.665 0 0)
(156.896 0 0)
(158.123 0 0)
(159.344 0 0)
(160.561 0 0)
(161.772 0 0)
(162.979 0 0)
(164.18 0 0)
(165.376 0 0)
(166.567 0 0)
(167.751 0 0)
(168.936 0 0)
(170.098 0 0)
(171.307 0 0)
(172.351 0 0)
(173.883 0 0)
(131.523 0 0)
(128.268 0 0)
(125.027 0 0)
(121.833 0 0)
(118.729 0 0)
(115.767 0 0)
(113 0 0)
(110.479 0 0)
(108.25 0 0)
(106.341 0 0)
(104.769 0 0)
(103.531 0 0)
(102.615 0 0)
(101.997 0 0)
(101.648 0 0)
(101.538 0 0)
(101.636 0 0)
(101.915 0 0)
(102.347 0 0)
(102.91 0 0)
(103.586 0 0)
(104.355 0 0)
(105.205 0 0)
(106.124 0 0)
(107.099 0 0)
(108.124 0 0)
(109.19 0 0)
(110.291 0 0)
(111.422 0 0)
(112.578 0 0)
(113.755 0 0)
(114.951 0 0)
(116.161 0 0)
(117.384 0 0)
(118.618 0 0)
(119.86 0 0)
(121.109 0 0)
(122.363 0 0)
(123.622 0 0)
(124.884 0 0)
(126.149 0 0)
(127.415 0 0)
(128.682 0 0)
(129.948 0 0)
(131.215 0 0)
(132.48 0 0)
(133.744 0 0)
(135.006 0 0)
(136.266 0 0)
(137.523 0 0)
(138.778 0 0)
(140.029 0 0)
(141.278 0 0)
(142.522 0 0)
(143.763 0 0)
(145.001 0 0)
(146.234 0 0)
(147.463 0 0)
(148.688 0 0)
(149.909 0 0)
(151.125 0 0)
(152.337 0 0)
(153.544 0 0)
(154.747 0 0)
(155.945 0 0)
(157.138 0 0)
(158.327 0 0)
(159.51 0 0)
(160.689 0 0)
(161.863 0 0)
(163.033 0 0)
(164.197 0 0)
(165.356 0 0)
(166.509 0 0)
(167.663 0 0)
(168.795 0 0)
(169.973 0 0)
(170.99 0 0)
(172.481 0 0)
(127.788 0 0)
(124.651 0 0)
(121.563 0 0)
(118.563 0 0)
(115.698 0 0)
(113.016 0 0)
(110.566 0 0)
(108.386 0 0)
(106.507 0 0)
(104.944 0 0)
(103.696 0 0)
(102.754 0 0)
(102.097 0 0)
(101.699 0 0)
(101.534 0 0)
(101.573 0 0)
(101.789 0 0)
(102.159 0 0)
(102.659 0 0)
(103.272 0 0)
(103.98 0 0)
(104.77 0 0)
(105.629 0 0)
(106.547 0 0)
(107.516 0 0)
(108.528 0 0)
(109.576 0 0)
(110.655 0 0)
(111.761 0 0)
(112.889 0 0)
(114.036 0 0)
(115.2 0 0)
(116.378 0 0)
(117.566 0 0)
(118.765 0 0)
(119.971 0 0)
(121.184 0 0)
(122.402 0 0)
(123.623 0 0)
(124.848 0 0)
(126.076 0 0)
(127.304 0 0)
(128.533 0 0)
(129.763 0 0)
(130.992 0 0)
(132.22 0 0)
(133.447 0 0)
(134.672 0 0)
(135.895 0 0)
(137.116 0 0)
(138.334 0 0)
(139.55 0 0)
(140.762 0 0)
(141.971 0 0)
(143.177 0 0)
(144.379 0 0)
(145.578 0 0)
(146.772 0 0)
(147.963 0 0)
(149.15 0 0)
(150.332 0 0)
(151.51 0 0)
(152.684 0 0)
(153.854 0 0)
(155.019 0 0)
(156.18 0 0)
(157.336 0 0)
(158.488 0 0)
(159.635 0 0)
(160.778 0 0)
(161.915 0 0)
(163.049 0 0)
(164.177 0 0)
(165.3 0 0)
(166.423 0 0)
(167.525 0 0)
(168.672 0 0)
(169.663 0 0)
(171.114 0 0)
(124.19 0 0)
(121.207 0 0)
(118.312 0 0)
(115.546 0 0)
(112.954 0 0)
(110.579 0 0)
(108.459 0 0)
(106.62 0 0)
(105.077 0 0)
(103.831 0 0)
(102.875 0 0)
(102.19 0 0)
(101.755 0 0)
(101.544 0 0)
(101.532 0 0)
(101.694 0 0)
(102.007 0 0)
(102.449 0 0)
(103.004 0 0)
(103.655 0 0)
(104.388 0 0)
(105.191 0 0)
(106.054 0 0)
(106.969 0 0)
(107.928 0 0)
(108.925 0 0)
(109.954 0 0)
(111.011 0 0)
(112.092 0 0)
(113.192 0 0)
(114.31 0 0)
(115.443 0 0)
(116.588 0 0)
(117.743 0 0)
(118.908 0 0)
(120.079 0 0)
(121.257 0 0)
(122.439 0 0)
(123.625 0 0)
(124.813 0 0)
(126.004 0 0)
(127.197 0 0)
(128.39 0 0)
(129.583 0 0)
(130.776 0 0)
(131.968 0 0)
(133.158 0 0)
(134.348 0 0)
(135.535 0 0)
(136.721 0 0)
(137.904 0 0)
(139.084 0 0)
(140.262 0 0)
(141.436 0 0)
(142.607 0 0)
(143.775 0 0)
(144.94 0 0)
(146.101 0 0)
(147.258 0 0)
(148.412 0 0)
(149.561 0 0)
(150.707 0 0)
(151.848 0 0)
(152.986 0 0)
(154.119 0 0)
(155.248 0 0)
(156.372 0 0)
(157.493 0 0)
(158.609 0 0)
(159.721 0 0)
(160.828 0 0)
(161.931 0 0)
(163.029 0 0)
(164.122 0 0)
(165.215 0 0)
(166.288 0 0)
(167.404 0 0)
(168.37 0 0)
(169.782 0 0)
(120.772 0 0)
(117.981 0 0)
(115.316 0 0)
(112.817 0 0)
(110.524 0 0)
(108.471 0 0)
(106.68 0 0)
(105.167 0 0)
(103.935 0 0)
(102.975 0 0)
(102.274 0 0)
(101.811 0 0)
(101.564 0 0)
(101.509 0 0)
(101.623 0 0)
(101.885 0 0)
(102.276 0 0)
(102.778 0 0)
(103.375 0 0)
(104.055 0 0)
(104.805 0 0)
(105.616 0 0)
(106.48 0 0)
(107.389 0 0)
(108.336 0 0)
(109.317 0 0)
(110.326 0 0)
(111.36 0 0)
(112.415 0 0)
(113.488 0 0)
(114.577 0 0)
(115.679 0 0)
(116.793 0 0)
(117.916 0 0)
(119.047 0 0)
(120.184 0 0)
(121.327 0 0)
(122.475 0 0)
(123.626 0 0)
(124.78 0 0)
(125.935 0 0)
(127.092 0 0)
(128.25 0 0)
(129.408 0 0)
(130.566 0 0)
(131.723 0 0)
(132.879 0 0)
(134.033 0 0)
(135.186 0 0)
(136.337 0 0)
(137.486 0 0)
(138.632 0 0)
(139.776 0 0)
(140.916 0 0)
(142.054 0 0)
(143.189 0 0)
(144.321 0 0)
(145.449 0 0)
(146.573 0 0)
(147.694 0 0)
(148.812 0 0)
(149.925 0 0)
(151.035 0 0)
(152.141 0 0)
(153.243 0 0)
(154.341 0 0)
(155.435 0 0)
(156.525 0 0)
(157.61 0 0)
(158.692 0 0)
(159.769 0 0)
(160.842 0 0)
(161.911 0 0)
(162.975 0 0)
(164.038 0 0)
(165.083 0 0)
(166.169 0 0)
(167.11 0 0)
(168.483 0 0)
(117.576 0 0)
(115.014 0 0)
(112.612 0 0)
(110.405 0 0)
(108.423 0 0)
(106.689 0 0)
(105.215 0 0)
(104.005 0 0)
(103.052 0 0)
(102.344 0 0)
(101.862 0 0)
(101.587 0 0)
(101.498 0 0)
(101.572 0 0)
(101.79 0 0)
(102.134 0 0)
(102.587 0 0)
(103.136 0 0)
(103.766 0 0)
(104.466 0 0)
(105.228 0 0)
(106.043 0 0)
(106.904 0 0)
(107.804 0 0)
(108.738 0 0)
(109.701 0 0)
(110.69 0 0)
(111.701 0 0)
(112.731 0 0)
(113.777 0 0)
(114.837 0 0)
(115.91 0 0)
(116.992 0 0)
(118.083 0 0)
(119.182 0 0)
(120.287 0 0)
(121.396 0 0)
(122.51 0 0)
(123.628 0 0)
(124.747 0 0)
(125.869 0 0)
(126.992 0 0)
(128.115 0 0)
(129.239 0 0)
(130.362 0 0)
(131.485 0 0)
(132.607 0 0)
(133.728 0 0)
(134.847 0 0)
(135.965 0 0)
(137.08 0 0)
(138.193 0 0)
(139.304 0 0)
(140.412 0 0)
(141.517 0 0)
(142.62 0 0)
(143.719 0 0)
(144.815 0 0)
(145.908 0 0)
(146.997 0 0)
(148.083 0 0)
(149.166 0 0)
(150.245 0 0)
(151.32 0 0)
(152.391 0 0)
(153.459 0 0)
(154.523 0 0)
(155.583 0 0)
(156.638 0 0)
(157.69 0 0)
(158.738 0 0)
(159.782 0 0)
(160.823 0 0)
(161.857 0 0)
(162.893 0 0)
(163.909 0 0)
(164.966 0 0)
(165.882 0 0)
(167.217 0 0)
(114.646 0 0)
(112.342 0 0)
(110.224 0 0)
(108.32 0 0)
(106.649 0 0)
(105.222 0 0)
(104.042 0 0)
(103.105 0 0)
(102.398 0 0)
(101.907 0 0)
(101.612 0 0)
(101.495 0 0)
(101.536 0 0)
(101.716 0 0)
(102.019 0 0)
(102.429 0 0)
(102.932 0 0)
(103.517 0 0)
(104.171 0 0)
(104.887 0 0)
(105.656 0 0)
(106.47 0 0)
(107.325 0 0)
(108.214 0 0)
(109.133 0 0)
(110.079 0 0)
(111.047 0 0)
(112.034 0 0)
(113.039 0 0)
(114.058 0 0)
(115.091 0 0)
(116.134 0 0)
(117.186 0 0)
(118.246 0 0)
(119.313 0 0)
(120.386 0 0)
(121.464 0 0)
(122.545 0 0)
(123.629 0 0)
(124.716 0 0)
(125.804 0 0)
(126.894 0 0)
(127.984 0 0)
(129.075 0 0)
(130.165 0 0)
(131.255 0 0)
(132.344 0 0)
(133.432 0 0)
(134.519 0 0)
(135.604 0 0)
(136.687 0 0)
(137.767 0 0)
(138.846 0 0)
(139.922 0 0)
(140.996 0 0)
(142.066 0 0)
(143.134 0 0)
(144.199 0 0)
(145.261 0 0)
(146.32 0 0)
(147.375 0 0)
(148.428 0 0)
(149.476 0 0)
(150.521 0 0)
(151.563 0 0)
(152.601 0 0)
(153.635 0 0)
(154.666 0 0)
(155.693 0 0)
(156.716 0 0)
(157.736 0 0)
(158.751 0 0)
(159.763 0 0)
(160.77 0 0)
(161.777 0 0)
(162.766 0 0)
(163.795 0 0)
(164.686 0 0)
(165.985 0 0)
(112.014 0 0)
(109.989 0 0)
(108.166 0 0)
(106.563 0 0)
(105.189 0 0)
(104.047 0 0)
(103.133 0 0)
(102.436 0 0)
(101.942 0 0)
(101.635 0 0)
(101.497 0 0)
(101.511 0 0)
(101.66 0 0)
(101.927 0 0)
(102.298 0 0)
(102.761 0 0)
(103.303 0 0)
(103.915 0 0)
(104.587 0 0)
(105.313 0 0)
(106.084 0 0)
(106.895 0 0)
(107.742 0 0)
(108.619 0 0)
(109.522 0 0)
(110.449 0 0)
(111.395 0 0)
(112.36 0 0)
(113.34 0 0)
(114.333 0 0)
(115.337 0 0)
(116.352 0 0)
(117.375 0 0)
(118.405 0 0)
(119.441 0 0)
(120.483 0 0)
(121.529 0 0)
(122.579 0 0)
(123.631 0 0)
(124.686 0 0)
(125.742 0 0)
(126.8 0 0)
(127.858 0 0)
(128.916 0 0)
(129.974 0 0)
(131.032 0 0)
(132.089 0 0)
(133.145 0 0)
(134.2 0 0)
(135.253 0 0)
(136.305 0 0)
(137.354 0 0)
(138.402 0 0)
(139.447 0 0)
(140.489 0 0)
(141.529 0 0)
(142.567 0 0)
(143.602 0 0)
(144.633 0 0)
(145.662 0 0)
(146.688 0 0)
(147.71 0 0)
(148.729 0 0)
(149.745 0 0)
(150.758 0 0)
(151.767 0 0)
(152.773 0 0)
(153.775 0 0)
(154.773 0 0)
(155.768 0 0)
(156.76 0 0)
(157.747 0 0)
(158.732 0 0)
(159.711 0 0)
(160.691 0 0)
(161.653 0 0)
(162.654 0 0)
(163.522 0 0)
(164.784 0 0)
(109.704 0 0)
(107.966 0 0)
(106.435 0 0)
(105.119 0 0)
(104.021 0 0)
(103.136 0 0)
(102.455 0 0)
(101.966 0 0)
(101.654 0 0)
(101.502 0 0)
(101.495 0 0)
(101.617 0 0)
(101.854 0 0)
(102.191 0 0)
(102.617 0 0)
(103.122 0 0)
(103.694 0 0)
(104.326 0 0)
(105.011 0 0)
(105.741 0 0)
(106.512 0 0)
(107.317 0 0)
(108.154 0 0)
(109.017 0 0)
(109.904 0 0)
(110.811 0 0)
(111.737 0 0)
(112.678 0 0)
(113.633 0 0)
(114.6 0 0)
(115.577 0 0)
(116.564 0 0)
(117.558 0 0)
(118.559 0 0)
(119.566 0 0)
(120.577 0 0)
(121.593 0 0)
(122.612 0 0)
(123.633 0 0)
(124.657 0 0)
(125.682 0 0)
(126.708 0 0)
(127.735 0 0)
(128.762 0 0)
(129.789 0 0)
(130.816 0 0)
(131.842 0 0)
(132.867 0 0)
(133.891 0 0)
(134.913 0 0)
(135.934 0 0)
(136.953 0 0)
(137.97 0 0)
(138.985 0 0)
(139.998 0 0)
(141.008 0 0)
(142.016 0 0)
(143.021 0 0)
(144.023 0 0)
(145.023 0 0)
(146.019 0 0)
(147.013 0 0)
(148.003 0 0)
(148.991 0 0)
(149.975 0 0)
(150.956 0 0)
(151.934 0 0)
(152.908 0 0)
(153.879 0 0)
(154.846 0 0)
(155.81 0 0)
(156.771 0 0)
(157.728 0 0)
(158.68 0 0)
(159.633 0 0)
(160.57 0 0)
(161.543 0 0)
(162.388 0 0)
(163.614 0 0)
(107.724 0 0)
(106.268 0 0)
(105.015 0 0)
(103.965 0 0)
(103.116 0 0)
(102.457 0 0)
(101.979 0 0)
(101.667 0 0)
(101.507 0 0)
(101.485 0 0)
(101.586 0 0)
(101.797 0 0)
(102.105 0 0)
(102.499 0 0)
(102.969 0 0)
(103.505 0 0)
(104.1 0 0)
(104.747 0 0)
(105.439 0 0)
(106.171 0 0)
(106.937 0 0)
(107.735 0 0)
(108.56 0 0)
(109.408 0 0)
(110.278 0 0)
(111.166 0 0)
(112.07 0 0)
(112.988 0 0)
(113.919 0 0)
(114.86 0 0)
(115.811 0 0)
(116.77 0 0)
(117.737 0 0)
(118.709 0 0)
(119.687 0 0)
(120.669 0 0)
(121.655 0 0)
(122.644 0 0)
(123.635 0 0)
(124.629 0 0)
(125.623 0 0)
(126.619 0 0)
(127.616 0 0)
(128.613 0 0)
(129.61 0 0)
(130.606 0 0)
(131.602 0 0)
(132.597 0 0)
(133.591 0 0)
(134.584 0 0)
(135.575 0 0)
(136.564 0 0)
(137.552 0 0)
(138.537 0 0)
(139.521 0 0)
(140.502 0 0)
(141.481 0 0)
(142.457 0 0)
(143.431 0 0)
(144.402 0 0)
(145.37 0 0)
(146.336 0 0)
(147.298 0 0)
(148.258 0 0)
(149.214 0 0)
(150.168 0 0)
(151.118 0 0)
(152.065 0 0)
(153.009 0 0)
(153.95 0 0)
(154.887 0 0)
(155.821 0 0)
(156.752 0 0)
(157.678 0 0)
(158.604 0 0)
(159.515 0 0)
(160.461 0 0)
(161.284 0 0)
(162.475 0 0)
(106.068 0 0)
(104.88 0 0)
(103.884 0 0)
(103.073 0 0)
(102.442 0 0)
(101.98 0 0)
(101.674 0 0)
(101.512 0 0)
(101.479 0 0)
(101.564 0 0)
(101.753 0 0)
(102.036 0 0)
(102.402 0 0)
(102.841 0 0)
(103.345 0 0)
(103.906 0 0)
(104.517 0 0)
(105.173 0 0)
(105.869 0 0)
(106.599 0 0)
(107.36 0 0)
(108.148 0 0)
(108.96 0 0)
(109.793 0 0)
(110.644 0 0)
(111.512 0 0)
(112.395 0 0)
(113.29 0 0)
(114.197 0 0)
(115.113 0 0)
(116.038 0 0)
(116.971 0 0)
(117.91 0 0)
(118.855 0 0)
(119.804 0 0)
(120.758 0 0)
(121.715 0 0)
(122.675 0 0)
(123.637 0 0)
(124.602 0 0)
(125.567 0 0)
(126.534 0 0)
(127.501 0 0)
(128.468 0 0)
(129.436 0 0)
(130.403 0 0)
(131.369 0 0)
(132.335 0 0)
(133.3 0 0)
(134.264 0 0)
(135.226 0 0)
(136.186 0 0)
(137.145 0 0)
(138.102 0 0)
(139.057 0 0)
(140.01 0 0)
(140.961 0 0)
(141.909 0 0)
(142.855 0 0)
(143.799 0 0)
(144.739 0 0)
(145.677 0 0)
(146.613 0 0)
(147.545 0 0)
(148.475 0 0)
(149.401 0 0)
(150.325 0 0)
(151.246 0 0)
(152.163 0 0)
(153.077 0 0)
(153.989 0 0)
(154.896 0 0)
(155.801 0 0)
(156.702 0 0)
(157.603 0 0)
(158.489 0 0)
(159.408 0 0)
(160.209 0 0)
(161.366 0 0)
(104.719 0 0)
(103.778 0 0)
(103.012 0 0)
(102.412 0 0)
(101.97 0 0)
(101.675 0 0)
(101.514 0 0)
(101.476 0 0)
(101.549 0 0)
(101.722 0 0)
(101.983 0 0)
(102.324 0 0)
(102.736 0 0)
(103.21 0 0)
(103.74 0 0)
(104.319 0 0)
(104.942 0 0)
(105.603 0 0)
(106.299 0 0)
(107.025 0 0)
(107.778 0 0)
(108.555 0 0)
(109.353 0 0)
(110.17 0 0)
(111.003 0 0)
(111.851 0 0)
(112.713 0 0)
(113.585 0 0)
(114.468 0 0)
(115.36 0 0)
(116.26 0 0)
(117.166 0 0)
(118.079 0 0)
(118.996 0 0)
(119.919 0 0)
(120.845 0 0)
(121.774 0 0)
(122.706 0 0)
(123.64 0 0)
(124.575 0 0)
(125.513 0 0)
(126.451 0 0)
(127.389 0 0)
(128.328 0 0)
(129.267 0 0)
(130.206 0 0)
(131.144 0 0)
(132.081 0 0)
(133.018 0 0)
(133.953 0 0)
(134.887 0 0)
(135.82 0 0)
(136.751 0 0)
(137.68 0 0)
(138.608 0 0)
(139.533 0 0)
(140.456 0 0)
(141.378 0 0)
(142.296 0 0)
(143.213 0 0)
(144.127 0 0)
(145.038 0 0)
(145.947 0 0)
(146.853 0 0)
(147.756 0 0)
(148.657 0 0)
(149.554 0 0)
(150.449 0 0)
(151.341 0 0)
(152.229 0 0)
(153.115 0 0)
(153.998 0 0)
(154.877 0 0)
(155.753 0 0)
(156.629 0 0)
(157.49 0 0)
(158.384 0 0)
(159.163 0 0)
(160.287 0 0)
(103.653 0 0)
(102.932 0 0)
(102.368 0 0)
(101.95 0 0)
(101.669 0 0)
(101.514 0 0)
(101.475 0 0)
(101.54 0 0)
(101.699 0 0)
(101.943 0 0)
(102.263 0 0)
(102.651 0 0)
(103.098 0 0)
(103.6 0 0)
(104.149 0 0)
(104.741 0 0)
(105.371 0 0)
(106.034 0 0)
(106.727 0 0)
(107.447 0 0)
(108.19 0 0)
(108.955 0 0)
(109.739 0 0)
(110.539 0 0)
(111.354 0 0)
(112.182 0 0)
(113.022 0 0)
(113.873 0 0)
(114.732 0 0)
(115.6 0 0)
(116.475 0 0)
(117.356 0 0)
(118.243 0 0)
(119.134 0 0)
(120.03 0 0)
(120.929 0 0)
(121.831 0 0)
(122.735 0 0)
(123.642 0 0)
(124.55 0 0)
(125.46 0 0)
(126.37 0 0)
(127.281 0 0)
(128.192 0 0)
(129.104 0 0)
(130.015 0 0)
(130.925 0 0)
(131.835 0 0)
(132.744 0 0)
(133.652 0 0)
(134.559 0 0)
(135.465 0 0)
(136.369 0 0)
(137.271 0 0)
(138.171 0 0)
(139.07 0 0)
(139.967 0 0)
(140.861 0 0)
(141.754 0 0)
(142.644 0 0)
(143.532 0 0)
(144.417 0 0)
(145.3 0 0)
(146.18 0 0)
(147.058 0 0)
(147.933 0 0)
(148.805 0 0)
(149.674 0 0)
(150.541 0 0)
(151.405 0 0)
(152.265 0 0)
(153.123 0 0)
(153.978 0 0)
(154.829 0 0)
(155.681 0 0)
(156.518 0 0)
(157.387 0 0)
(158.145 0 0)
(159.236 0 0)
(102.838 0 0)
(102.311 0 0)
(101.921 0 0)
(101.657 0 0)
(101.512 0 0)
(101.475 0 0)
(101.536 0 0)
(101.686 0 0)
(101.915 0 0)
(102.217 0 0)
(102.584 0 0)
(103.008 0 0)
(103.484 0 0)
(104.006 0 0)
(104.569 0 0)
(105.169 0 0)
(105.802 0 0)
(106.464 0 0)
(107.152 0 0)
(107.864 0 0)
(108.597 0 0)
(109.349 0 0)
(110.117 0 0)
(110.9 0 0)
(111.697 0 0)
(112.505 0 0)
(113.324 0 0)
(114.153 0 0)
(114.989 0 0)
(115.834 0 0)
(116.684 0 0)
(117.541 0 0)
(118.402 0 0)
(119.268 0 0)
(120.138 0 0)
(121.011 0 0)
(121.887 0 0)
(122.765 0 0)
(123.645 0 0)
(124.526 0 0)
(125.409 0 0)
(126.292 0 0)
(127.176 0 0)
(128.061 0 0)
(128.945 0 0)
(129.829 0 0)
(130.713 0 0)
(131.596 0 0)
(132.479 0 0)
(133.36 0 0)
(134.241 0 0)
(135.12 0 0)
(135.997 0 0)
(136.873 0 0)
(137.748 0 0)
(138.62 0 0)
(139.491 0 0)
(140.36 0 0)
(141.227 0 0)
(142.091 0 0)
(142.954 0 0)
(143.814 0 0)
(144.671 0 0)
(145.526 0 0)
(146.379 0 0)
(147.229 0 0)
(148.077 0 0)
(148.921 0 0)
(149.764 0 0)
(150.603 0 0)
(151.439 0 0)
(152.273 0 0)
(153.104 0 0)
(153.931 0 0)
(154.759 0 0)
(155.573 0 0)
(156.417 0 0)
(157.154 0 0)
(158.213 0 0)
(102.245 0 0)
(101.884 0 0)
(101.641 0 0)
(101.508 0 0)
(101.476 0 0)
(101.536 0 0)
(101.679 0 0)
(101.898 0 0)
(102.185 0 0)
(102.533 0 0)
(102.936 0 0)
(103.389 0 0)
(103.886 0 0)
(104.423 0 0)
(104.995 0 0)
(105.6 0 0)
(106.233 0 0)
(106.892 0 0)
(107.574 0 0)
(108.276 0 0)
(108.997 0 0)
(109.735 0 0)
(110.488 0 0)
(111.254 0 0)
(112.032 0 0)
(112.82 0 0)
(113.619 0 0)
(114.425 0 0)
(115.24 0 0)
(116.061 0 0)
(116.888 0 0)
(117.72 0 0)
(118.557 0 0)
(119.398 0 0)
(120.243 0 0)
(121.09 0 0)
(121.941 0 0)
(122.793 0 0)
(123.647 0 0)
(124.503 0 0)
(125.359 0 0)
(126.217 0 0)
(127.075 0 0)
(127.933 0 0)
(128.792 0 0)
(129.65 0 0)
(130.508 0 0)
(131.365 0 0)
(132.221 0 0)
(133.077 0 0)
(133.932 0 0)
(134.785 0 0)
(135.637 0 0)
(136.488 0 0)
(137.337 0 0)
(138.184 0 0)
(139.03 0 0)
(139.873 0 0)
(140.715 0 0)
(141.555 0 0)
(142.392 0 0)
(143.228 0 0)
(144.061 0 0)
(144.891 0 0)
(145.72 0 0)
(146.546 0 0)
(147.369 0 0)
(148.19 0 0)
(149.008 0 0)
(149.823 0 0)
(150.636 0 0)
(151.446 0 0)
(152.254 0 0)
(153.058 0 0)
(153.862 0 0)
(154.653 0 0)
(155.473 0 0)
(156.19 0 0)
(157.218 0 0)
(101.841 0 0)
(101.621 0 0)
(101.503 0 0)
(101.479 0 0)
(101.54 0 0)
(101.679 0 0)
(101.889 0 0)
(102.164 0 0)
(102.496 0 0)
(102.881 0 0)
(103.313 0 0)
(103.788 0 0)
(104.301 0 0)
(104.848 0 0)
(105.426 0 0)
(106.032 0 0)
(106.662 0 0)
(107.316 0 0)
(107.99 0 0)
(108.682 0 0)
(109.39 0 0)
(110.114 0 0)
(110.85 0 0)
(111.599 0 0)
(112.359 0 0)
(113.128 0 0)
(113.905 0 0)
(114.691 0 0)
(115.483 0 0)
(116.282 0 0)
(117.086 0 0)
(117.895 0 0)
(118.708 0 0)
(119.525 0 0)
(120.345 0 0)
(121.168 0 0)
(121.993 0 0)
(122.821 0 0)
(123.65 0 0)
(124.48 0 0)
(125.312 0 0)
(126.144 0 0)
(126.977 0 0)
(127.81 0 0)
(128.643 0 0)
(129.476 0 0)
(130.308 0 0)
(131.14 0 0)
(131.972 0 0)
(132.802 0 0)
(133.632 0 0)
(134.46 0 0)
(135.288 0 0)
(136.114 0 0)
(136.938 0 0)
(137.761 0 0)
(138.582 0 0)
(139.401 0 0)
(140.218 0 0)
(141.034 0 0)
(141.847 0 0)
(142.659 0 0)
(143.468 0 0)
(144.275 0 0)
(145.079 0 0)
(145.881 0 0)
(146.681 0 0)
(147.479 0 0)
(148.274 0 0)
(149.066 0 0)
(149.856 0 0)
(150.643 0 0)
(151.427 0 0)
(152.208 0 0)
(152.99 0 0)
(153.758 0 0)
(154.555 0 0)
(155.252 0 0)
(156.25 0 0)
(101.599 0 0)
(101.497 0 0)
(101.483 0 0)
(101.548 0 0)
(101.685 0 0)
(101.89 0 0)
(102.154 0 0)
(102.474 0 0)
(102.842 0 0)
(103.256 0 0)
(103.71 0 0)
(104.2 0 0)
(104.724 0 0)
(105.277 0 0)
(105.858 0 0)
(106.463 0 0)
(107.089 0 0)
(107.736 0 0)
(108.4 0 0)
(109.081 0 0)
(109.776 0 0)
(110.485 0 0)
(111.205 0 0)
(111.936 0 0)
(112.677 0 0)
(113.427 0 0)
(114.185 0 0)
(114.949 0 0)
(115.72 0 0)
(116.497 0 0)
(117.278 0 0)
(118.064 0 0)
(118.854 0 0)
(119.648 0 0)
(120.444 0 0)
(121.243 0 0)
(122.044 0 0)
(122.848 0 0)
(123.652 0 0)
(124.458 0 0)
(125.265 0 0)
(126.073 0 0)
(126.881 0 0)
(127.69 0 0)
(128.498 0 0)
(129.307 0 0)
(130.115 0 0)
(130.923 0 0)
(131.73 0 0)
(132.536 0 0)
(133.341 0 0)
(134.146 0 0)
(134.949 0 0)
(135.75 0 0)
(136.551 0 0)
(137.35 0 0)
(138.147 0 0)
(138.942 0 0)
(139.736 0 0)
(140.528 0 0)
(141.318 0 0)
(142.106 0 0)
(142.892 0 0)
(143.675 0 0)
(144.457 0 0)
(145.236 0 0)
(146.013 0 0)
(146.788 0 0)
(147.56 0 0)
(148.329 0 0)
(149.097 0 0)
(149.861 0 0)
(150.624 0 0)
(151.382 0 0)
(152.141 0 0)
(152.888 0 0)
(153.662 0 0)
(154.34 0 0)
(155.308 0 0)
(101.492 0 0)
(101.489 0 0)
(101.56 0 0)
(101.698 0 0)
(101.898 0 0)
(102.155 0 0)
(102.463 0 0)
(102.818 0 0)
(103.215 0 0)
(103.65 0 0)
(104.121 0 0)
(104.623 0 0)
(105.153 0 0)
(105.71 0 0)
(106.29 0 0)
(106.891 0 0)
(107.512 0 0)
(108.15 0 0)
(108.804 0 0)
(109.473 0 0)
(110.154 0 0)
(110.848 0 0)
(111.552 0 0)
(112.266 0 0)
(112.988 0 0)
(113.719 0 0)
(114.457 0 0)
(115.201 0 0)
(115.951 0 0)
(116.706 0 0)
(117.465 0 0)
(118.229 0 0)
(118.996 0 0)
(119.767 0 0)
(120.54 0 0)
(121.316 0 0)
(122.094 0 0)
(122.874 0 0)
(123.655 0 0)
(124.437 0 0)
(125.221 0 0)
(126.005 0 0)
(126.789 0 0)
(127.574 0 0)
(128.359 0 0)
(129.143 0 0)
(129.928 0 0)
(130.712 0 0)
(131.495 0 0)
(132.278 0 0)
(133.059 0 0)
(133.84 0 0)
(134.62 0 0)
(135.398 0 0)
(136.175 0 0)
(136.951 0 0)
(137.725 0 0)
(138.497 0 0)
(139.268 0 0)
(140.037 0 0)
(140.804 0 0)
(141.569 0 0)
(142.332 0 0)
(143.094 0 0)
(143.853 0 0)
(144.609 0 0)
(145.364 0 0)
(146.116 0 0)
(146.866 0 0)
(147.614 0 0)
(148.359 0 0)
(149.102 0 0)
(149.842 0 0)
(150.579 0 0)
(151.317 0 0)
(152.042 0 0)
(152.794 0 0)
(153.453 0 0)
(154.392 0 0)
(101.498 0 0)
(101.576 0 0)
(101.716 0 0)
(101.914 0 0)
(102.165 0 0)
(102.464 0 0)
(102.806 0 0)
(103.189 0 0)
(103.608 0 0)
(104.06 0 0)
(104.542 0 0)
(105.051 0 0)
(105.585 0 0)
(106.142 0 0)
(106.72 0 0)
(107.316 0 0)
(107.929 0 0)
(108.558 0 0)
(109.201 0 0)
(109.857 0 0)
(110.525 0 0)
(111.203 0 0)
(111.891 0 0)
(112.587 0 0)
(113.292 0 0)
(114.003 0 0)
(114.721 0 0)
(115.445 0 0)
(116.175 0 0)
(116.909 0 0)
(117.647 0 0)
(118.389 0 0)
(119.135 0 0)
(119.883 0 0)
(120.634 0 0)
(121.387 0 0)
(122.142 0 0)
(122.899 0 0)
(123.658 0 0)
(124.417 0 0)
(125.177 0 0)
(125.938 0 0)
(126.7 0 0)
(127.461 0 0)
(128.223 0 0)
(128.985 0 0)
(129.746 0 0)
(130.507 0 0)
(131.267 0 0)
(132.027 0 0)
(132.786 0 0)
(133.544 0 0)
(134.301 0 0)
(135.056 0 0)
(135.811 0 0)
(136.564 0 0)
(137.315 0 0)
(138.065 0 0)
(138.814 0 0)
(139.56 0 0)
(140.305 0 0)
(141.048 0 0)
(141.789 0 0)
(142.528 0 0)
(143.265 0 0)
(144 0 0)
(144.733 0 0)
(145.464 0 0)
(146.192 0 0)
(146.918 0 0)
(147.642 0 0)
(148.364 0 0)
(149.083 0 0)
(149.799 0 0)
(150.515 0 0)
(151.22 0 0)
(151.949 0 0)
(152.59 0 0)
(153.5 0 0)
(101.597 0 0)
(101.741 0 0)
(101.938 0 0)
(102.185 0 0)
(102.476 0 0)
(102.808 0 0)
(103.177 0 0)
(103.581 0 0)
(104.016 0 0)
(104.48 0 0)
(104.97 0 0)
(105.483 0 0)
(106.018 0 0)
(106.574 0 0)
(107.147 0 0)
(107.736 0 0)
(108.341 0 0)
(108.96 0 0)
(109.591 0 0)
(110.234 0 0)
(110.887 0 0)
(111.55 0 0)
(112.221 0 0)
(112.9 0 0)
(113.587 0 0)
(114.28 0 0)
(114.979 0 0)
(115.683 0 0)
(116.393 0 0)
(117.106 0 0)
(117.824 0 0)
(118.545 0 0)
(119.269 0 0)
(119.996 0 0)
(120.725 0 0)
(121.456 0 0)
(122.19 0 0)
(122.924 0 0)
(123.66 0 0)
(124.397 0 0)
(125.135 0 0)
(125.874 0 0)
(126.613 0 0)
(127.352 0 0)
(128.092 0 0)
(128.831 0 0)
(129.57 0 0)
(130.308 0 0)
(131.046 0 0)
(131.784 0 0)
(132.52 0 0)
(133.256 0 0)
(133.991 0 0)
(134.724 0 0)
(135.457 0 0)
(136.188 0 0)
(136.918 0 0)
(137.646 0 0)
(138.372 0 0)
(139.097 0 0)
(139.821 0 0)
(140.542 0 0)
(141.262 0 0)
(141.98 0 0)
(142.695 0 0)
(143.409 0 0)
(144.121 0 0)
(144.83 0 0)
(145.538 0 0)
(146.243 0 0)
(146.946 0 0)
(147.646 0 0)
(148.345 0 0)
(149.04 0 0)
(149.735 0 0)
(150.42 0 0)
(151.128 0 0)
(151.751 0 0)
(152.634 0 0)
(101.772 0 0)
(101.97 0 0)
(102.213 0 0)
(102.498 0 0)
(102.821 0 0)
(103.179 0 0)
(103.569 0 0)
(103.989 0 0)
(104.436 0 0)
(104.907 0 0)
(105.402 0 0)
(105.917 0 0)
(106.451 0 0)
(107.002 0 0)
(107.569 0 0)
(108.151 0 0)
(108.747 0 0)
(109.354 0 0)
(109.973 0 0)
(110.603 0 0)
(111.241 0 0)
(111.889 0 0)
(112.544 0 0)
(113.206 0 0)
(113.875 0 0)
(114.55 0 0)
(115.23 0 0)
(115.915 0 0)
(116.605 0 0)
(117.298 0 0)
(117.995 0 0)
(118.696 0 0)
(119.399 0 0)
(120.105 0 0)
(120.813 0 0)
(121.523 0 0)
(122.235 0 0)
(122.949 0 0)
(123.663 0 0)
(124.379 0 0)
(125.095 0 0)
(125.812 0 0)
(126.529 0 0)
(127.247 0 0)
(127.964 0 0)
(128.682 0 0)
(129.399 0 0)
(130.116 0 0)
(130.832 0 0)
(131.548 0 0)
(132.263 0 0)
(132.977 0 0)
(133.691 0 0)
(134.403 0 0)
(135.114 0 0)
(135.823 0 0)
(136.532 0 0)
(137.239 0 0)
(137.944 0 0)
(138.648 0 0)
(139.35 0 0)
(140.051 0 0)
(140.75 0 0)
(141.447 0 0)
(142.142 0 0)
(142.835 0 0)
(143.526 0 0)
(144.215 0 0)
(144.902 0 0)
(145.586 0 0)
(146.269 0 0)
(146.949 0 0)
(147.627 0 0)
(148.302 0 0)
(148.978 0 0)
(149.642 0 0)
(150.33 0 0)
(150.935 0 0)
(151.791 0 0)
(102.01 0 0)
(102.251 0 0)
(102.53 0 0)
(102.846 0 0)
(103.193 0 0)
(103.571 0 0)
(103.977 0 0)
(104.408 0 0)
(104.863 0 0)
(105.339 0 0)
(105.835 0 0)
(106.349 0 0)
(106.88 0 0)
(107.426 0 0)
(107.987 0 0)
(108.56 0 0)
(109.145 0 0)
(109.742 0 0)
(110.348 0 0)
(110.963 0 0)
(111.587 0 0)
(112.219 0 0)
(112.858 0 0)
(113.504 0 0)
(114.155 0 0)
(114.812 0 0)
(115.474 0 0)
(116.14 0 0)
(116.811 0 0)
(117.485 0 0)
(118.162 0 0)
(118.843 0 0)
(119.526 0 0)
(120.211 0 0)
(120.899 0 0)
(121.589 0 0)
(122.28 0 0)
(122.972 0 0)
(123.666 0 0)
(124.36 0 0)
(125.056 0 0)
(125.752 0 0)