/*--------------------------------*- C++ -*----------------------------------*\
| =========                 |                                                 |
| \\      /  F ield         | OpenFOAM: The Open Source CFD Toolbox           |
|  \\    /   O peration     | Version:  2312                                  |
|   \\  /    A nd           | Website:  www.openfoam.com                      |
|    \\/     M anipulation  |                                                 |
\*---------------------------------------------------------------------------*/
FoamFile
{
    version     2.0;
    format      ascii;
    arch        "LSB;label=32;scalar=64";
    class       surfaceScalarField;
    location    "0.32";
    object      phi;
}
// * * * * * * * * * * * * * * * * * * * * * * * * * * * * * * * * * * * * * //

dimensions      [0 3 -1 0 0 0 0];

oriented        oriented;

internalField   nonuniform List<scalar> 
62015
(
82.9032
0.161744
-82.6637
83.1313
0.159159
83.3481
0.156457
83.5543
0.15364
83.7503
0.150711
83.9365
0.147672
84.1133
0.144527
84.2811
0.141277
84.4402
0.137926
84.5909
0.134475
84.7337
0.130929
84.8687
0.12729
84.9962
0.12356
85.1165
0.119742
85.2299
0.11584
85.3365
0.111856
85.4366
0.107794
85.5303
0.103656
85.6178
0.0994447
85.6993
0.0951641
85.7749
0.0908174
85.8447
0.0864069
85.9089
0.0819364
85.9675
0.0774092
86.0207
0.0728281
86.0685
0.0681968
86.1109
0.0635182
86.148
0.0587963
86.1798
0.0540341
86.2063
0.049235
86.2274
0.0444023
86.2433
0.03954
86.2538
0.0346517
86.2588
0.0297401
86.2583
0.02481
86.2522
0.0198638
86.2403
0.0149062
86.2225
0.00994071
86.1986
0.00497037
86.1685
0
86.1319
-0.00496702
86.0886
-0.00992726
86.0383
-0.0148758
85.9808
-0.0198094
85.9156
-0.0247241
85.8425
-0.0296149
85.761
-0.034479
85.6706
-0.0393108
85.5709
-0.0441071
85.4613
-0.0488634
85.3412
-0.0535746
85.21
-0.0582365
85.0668
-0.0628444
84.9109
-0.067394
84.7414
-0.0718795
84.5572
-0.0762966
84.3571
-0.0806392
84.1399
-0.0849024
83.9041
-0.0890803
83.648
-0.0931661
83.3699
-0.0971541
83.0674
-0.101037
82.7374
-0.104807
82.3761
-0.108456
81.9832
-0.111973
81.5619
-0.115351
81.0938
-0.11859
80.514
-0.121659
79.8218
-0.124459
79.3493
-0.126971
79.4985
-0.129675
78.8724
-0.133223
73.0242
-0.135522
60.0105
-0.129322
45.9129
-0.110337
37.2759
-0.086996
33.9061
-0.0713862
33.0263
-0.065365
-0.0645356
32.9513
80.8088
0.320222
-80.6025
81.0053
0.315005
81.1921
0.309564
81.3696
0.303903
81.5383
0.298028
81.6985
0.291943
81.8505
0.285654
81.9947
0.279166
82.1313
0.272483
82.2607
0.26561
82.3831
0.258554
82.4988
0.251319
82.608
0.243911
82.711
0.236335
82.8079
0.228596
82.8989
0.220701
82.9843
0.212654
83.0641
0.204462
83.1386
0.196131
83.2079
0.187666
83.272
0.179073
83.3312
0.170359
83.3855
0.161529
83.435
0.152589
83.4798
0.143547
83.5199
0.134408
83.5554
0.125178
83.5862
0.115865
83.6125
0.106474
83.6343
0.0970125
83.6514
0.0874865
83.664
0.0779033
83.6719
0.0682692
83.6751
0.058592
83.6735
0.0488774
83.667
0.0391332
83.6556
0.029366
83.6391
0.0195832
83.6173
0.0097922
83.5901
0
83.5573
-0.009786
83.5187
-0.0195584
83.4741
-0.0293099
83.4231
-0.0390326
83.3656
-0.0487188
83.3011
-0.058361
83.2293
-0.0679506
83.1499
-0.0774809
83.0624
-0.0869427
82.9663
-0.0963284
82.8612
-0.105629
82.7464
-0.114836
82.6213
-0.123942
82.4852
-0.132936
82.3373
-0.14181
82.1768
-0.150554
82.0028
-0.159159
81.814
-0.167614
81.6095
-0.175909
81.3876
-0.184033
81.147
-0.191974
80.8859
-0.199718
80.6023
-0.207255
80.2935
-0.214569
79.9555
-0.221642
79.5878
-0.228456
79.194
-0.234998
78.7614
-0.241266
78.2313
-0.247214
77.5791
-0.252659
77.0738
-0.257497
77.1763
-0.262522
76.9603
-0.269241
72.3958
-0.27483
60.6144
-0.265837
46.5032
-0.23077
37.1076
-0.182863
33.2174
-0.14765
-0.132482
32.3292
78.7577
0.475429
-78.5816
78.9254
0.467544
79.0847
0.459337
79.236
0.450816
79.3796
0.441987
79.5159
0.432858
79.6451
0.423434
79.7675
0.413724
79.8835
0.403735
79.9932
0.393473
80.0968
0.382947
80.1946
0.372163
80.2869
0.36113
80.3737
0.349855
80.4553
0.338346
80.5319
0.326612
80.6036
0.31466
80.6705
0.302499
80.7328
0.290137
80.7907
0.277581
80.8441
0.264842
80.8933
0.251928
80.9383
0.238847
80.9791
0.225608
81.0159
0.212221
81.0487
0.198694
81.0775
0.185037
81.1024
0.171259
81.1234
0.157369
81.1405
0.143377
81.1536
0.129293
81.1628
0.115126
81.168
0.100885
81.1692
0.0865819
81.1663
0.072225
81.1592
0.0578254
81.1478
0.0433929
81.132
0.0289372
81.1117
0.0144695
81.0868
0
81.0571
-0.0144608
81.0223
-0.0289023
80.9823
-0.0433141
80.9369
-0.0576844
80.8857
-0.0720027
80.8286
-0.0862584
80.7652
-0.100439
80.6952
-0.114535
80.6181
-0.128533
80.5337
-0.142422
80.4414
-0.15619
80.3408
-0.169826
80.2312
-0.183316
80.1122
-0.196648
79.9831
-0.209809
79.843
-0.222786
79.6913
-0.235566
79.5271
-0.248134
79.3492
-0.260477
79.1567
-0.272577
78.9481
-0.284421
78.7222
-0.29599
78.4773
-0.307267
78.2117
-0.318235
77.9227
-0.328871
77.6069
-0.339154
77.263
-0.349054
76.8945
-0.358549
76.4942
-0.367642
76.0114
-0.376284
75.4035
-0.384231
74.873
-0.391244
74.8978
-0.398242
74.9632
-0.407599
71.5681
-0.416977
61.1536
-0.408461
47.238
-0.361432
37.0313
-0.289433
-0.227187
33.5797
76.74
0.62731
-76.591
76.8818
0.616736
77.0164
0.605751
77.144
0.594364
77.2651
0.582585
77.3799
0.570421
77.4885
0.557881
77.5914
0.544975
77.6886
0.531711
77.7804
0.518098
77.867
0.504148
77.9487
0.489867
78.0256
0.475267
78.0978
0.460358
78.1655
0.445148
78.2289
0.42965
78.2881
0.413873
78.3433
0.397827
78.3945
0.381523
78.4419
0.364973
78.4856
0.348187
78.5256
0.331175
78.562
0.31395
78.5949
0.296523
78.6244
0.278906
78.6505
0.261109
78.6732
0.243145
78.6925
0.225026
78.7086
0.206764
78.7213
0.188371
78.7307
0.169859
78.7367
0.151241
78.7393
0.132529
78.7386
0.113736
78.7343
0.0948746
78.7264
0.0759581
78.715
0.0569989
78.6997
0.038011
78.6807
0.0190068
78.6576
0
78.6304
-0.0189959
78.5989
-0.0379673
78.563
-0.0569005
78.5223
-0.075781
78.4768
-0.0945964
78.4261
-0.113331
78.37
-0.131971
78.3082
-0.150502
78.2404
-0.168909
78.1661
-0.187178
78.0851
-0.205294
77.9969
-0.223241
77.9011
-0.241003
77.797
-0.258566
77.6843
-0.275912
77.5621
-0.293026
77.43
-0.309891
77.287
-0.326488
77.1324
-0.342801
76.9653
-0.358811
76.7846
-0.374498
76.5891
-0.389843
76.3775
-0.404824
76.1483
-0.419419
75.9
-0.433604
75.6303
-0.447354
75.3358
-0.460639
75.0148
-0.473424
74.6705
-0.485678
74.2999
-0.497402
73.8618
-0.508558
73.3018
-0.518873
72.7575
-0.527958
72.6889
-0.536649
72.9312
-0.54802
70.604
-0.561263
61.7545
-0.555923
47.8572
-0.505406
-0.394557
40.2376
74.753
0.775813
-74.628
74.8717
0.762541
74.9842
0.748778
75.0908
0.734532
75.1917
0.719815
75.2871
0.704636
75.3774
0.689007
75.4626
0.672936
75.5431
0.656437
75.6189
0.639519
75.6903
0.622194
75.7574
0.604473
75.8204
0.586368
75.8795
0.567891
75.9347
0.549053
75.9863
0.529868
76.0343
0.510346
76.0788
0.490503
76.1201
0.470348
76.158
0.449897
76.1928
0.429162
76.2246
0.408157
76.2533
0.386894
76.2791
0.365389
76.3019
0.343653
76.3219
0.321703
76.3391
0.299551
76.3535
0.277212
76.365
0.254701
76.3738
0.232032
76.3798
0.209221
76.3829
0.186281
76.3832
0.163229
76.3807
0.140079
76.3751
0.116847
76.3666
0.0935476
76.355
0.070198
76.3403
0.0468127
76.3222
0.0234079
76.3008
0
76.2759
-0.023395
76.2474
-0.0467611
76.215
-0.0700816
76.1786
-0.0933394
76.1381
-0.116519
76.0932
-0.139602
76.0436
-0.162573
75.9891
-0.185413
75.9295
-0.208105
75.8644
-0.230633
75.7934
-0.252978
75.7163
-0.275121
75.6326
-0.297046
75.5419
-0.318732
75.4436
-0.340161
75.3373
-0.361315
75.2225
-0.382172
75.0983
-0.402714
74.9643
-0.422918
74.8195
-0.442765
74.6631
-0.462231
74.4941
-0.481295
74.3116
-0.499932
74.1141
-0.518117
73.9005
-0.535823
73.6692
-0.553023
73.4183
-0.569686
73.1447
-0.585781
72.8463
-0.601262
72.5254
-0.616092
72.1827
-0.630267
71.7872
-0.643768
71.2791
-0.656327
70.7323
-0.66743
70.5631
-0.67755
70.8415
-0.690627
69.7341
-0.705273
61.3635
-0.715694
-0.627119
53.9592
72.7969
0.920903
-72.6934
72.8951
0.904937
72.988
0.888403
73.0758
0.871314
73.1587
0.853681
73.237
0.835515
73.3108
0.816829
73.3803
0.797635
73.4457
0.777944
73.5073
0.75777
73.565
0.737126
73.6191
0.716025
73.6697
0.69448
73.717
0.672504
73.7611
0.650113
73.802
0.627319
73.84
0.604137
73.8751
0.580582
73.9073
0.556668
73.9368
0.532412
73.9637
0.507826
73.9881
0.482928
74.0099
0.457733
74.0292
0.432256
74.0462
0.406514
74.0607
0.380523
74.0729
0.3543
74.0828
0.32786
74.0904
0.301221
74.0956
0.274399
74.0985
0.247413
74.0991
0.220278
74.0974
0.193013
74.0932
0.165635
74.0866
0.138161
74.0775
0.110611
74.0658
0.083001
74.0515
0.0553506
74.0344
0.0276773
74.0145
0
73.9917
-0.0276627
73.9658
-0.0552923
73.9367
-0.0828692
73.9042
-0.110375
73.8682
-0.13779
73.8284
-0.165095
73.7847
-0.192271
73.7368
-0.219297
73.6846
-0.246154
73.6276
-0.272821
73.5657
-0.29928
73.4985
-0.325507
73.4257
-0.351483
73.3468
-0.377188
73.2615
-0.402598
73.1694
-0.427694
73.0699
-0.452452
72.9624
-0.476849
72.8465
-0.500864
72.7215
-0.524472
72.5865
-0.547649
72.4409
-0.570369
72.2838
-0.592607
72.1141
-0.614335
71.9307
-0.635526
71.7324
-0.656148
71.5179
-0.67617
71.2855
-0.695559
71.0325
-0.714278
70.7563
-0.73228
70.4583
-0.749518
70.1414
-0.765977
69.7863
-0.781651
69.3288
-0.796379
68.8202
-0.809234
68.4283
-0.821785
69.1564
-0.831411
67.2663
-0.863204
-0.837987
64.6039
70.8733
1.06256
-70.7888
70.9532
1.04391
71.0286
1.02463
71.0996
1.00472
71.1665
0.9842
71.2295
0.963081
71.2887
0.941377
71.3442
0.919103
71.3963
0.896271
71.445
0.872895
71.4906
0.84899
71.5331
0.824572
71.5726
0.799654
71.6094
0.774252
71.6435
0.748383
71.6749
0.72206
71.7039
0.695301
71.7305
0.668123
71.7547
0.64054
71.7767
0.612572
71.7965
0.584234
71.8142
0.555544
71.8299
0.52652
71.8435
0.497179
71.8551
0.467539
71.8648
0.437619
71.8726
0.407437
71.8785
0.377012
71.8825
0.346363
71.8846
0.315509
71.8849
0.284468
71.8832
0.253261
71.8796
0.221907
71.874
0.190426
71.8664
0.158838
71.8568
0.127163
71.8451
0.0954209
71.8312
0.0636326
71.8151
0.0318189
71.7966
0
71.7757
-0.0318029
71.7522
-0.0635683
71.726
-0.0952757
71.6971
-0.126903
71.6651
-0.15843
71.63
-0.189833
71.5916
-0.221091
71.5497
-0.252184
71.5041
-0.283086
71.4545
-0.313778
71.4007
-0.344236
71.3424
-0.374436
71.2793
-0.404357
71.2111
-0.433975
71.1374
-0.463266
71.0578
-0.492206
70.972
-0.520772
70.8794
-0.548938
70.7796
-0.576679
70.6721
-0.603969
70.5561
-0.630783
70.4311
-0.657093
70.2962
-0.682872
70.1508
-0.70809
69.9939
-0.732718
69.8244
-0.756724
69.6413
-0.780075
69.4432
-0.802737
69.2289
-0.824674
68.9959
-0.845844
68.7418
-0.8662
68.4659
-0.885691
68.1754
-0.904255
67.8453
-0.922065
67.486
-0.93834
66.8667
-0.954716
66.7775
-0.963924
66.5902
-0.986194
-0.993547
66.2356
68.9834
1.20079
-68.9159
69.0471
1.17948
69.107
1.15747
69.1632
1.13477
69.2158
1.1114
69.2651
1.08736
69.3113
1.06269
69.3543
1.03738
69.3945
1.01146
69.4318
0.98494
69.4665
0.957836
69.4986
0.930166
69.5284
0.901945
69.5557
0.873191
69.5809
0.843919
69.6039
0.814149
69.6249
0.783898
69.6439
0.753183
69.661
0.722022
69.6762
0.690436
69.6897
0.658442
69.7015
0.626059
69.7117
0.593308
69.7202
0.560207
69.7271
0.526777
69.7325
0.493037
69.7364
0.459009
69.7387
0.424712
69.7396
0.390167
69.7389
0.355397
69.7367
0.320421
69.7331
0.285261
69.7278
0.249939
69.7211
0.214476
69.7127
0.178896
69.7027
0.143219
69.691
0.107468
69.6775
0.0716663
69.6622
0.035836
69.645
0
69.6259
-0.0358187
69.6046
-0.0715969
69.5811
-0.107312
69.5553
-0.142939
69.5271
-0.178455
69.4962
-0.213837
69.4626
-0.24906
69.4261
-0.2841
69.3864
-0.318934
69.3435
-0.353536
69.2969
-0.387882
69.2466
-0.421947
69.1923
-0.455706
69.1336
-0.489134
69.0702
-0.522205
69.0019
-0.554894
68.9283
-0.587174
68.849
-0.619019
68.7635
-0.650402
68.6714
-0.681294
68.5722
-0.71167
68.4653
-0.741499
68.3502
-0.770753
68.2261
-0.799402
68.0923
-0.827414
67.9479
-0.854757
67.7921
-0.881398
67.6238
-0.9073
67.4419
-0.932428
67.2451
-0.956742
67.0319
-0.980197
66.7982
-1.00276
66.5486
-1.02431
66.2676
-1.04502
66.0062
-1.0642
65.6118
-1.0837
65.197
-1.09881
64.8577
-1.11562
-1.12854
64.7137
67.1287
1.3356
-67.0761
67.178
1.31165
67.224
1.28694
67.267
1.26149
67.307
1.2353
67.3441
1.2084
67.3787
1.1808
67.4106
1.15252
67.4402
1.12356
67.4674
1.09396
67.4924
1.06372
67.5153
1.03286
67.5362
1.00141
67.5553
0.969377
67.5725
0.936782
67.588
0.903645
67.6018
0.869984
67.614
0.83582
67.6248
0.801172
67.6341
0.76606
67.642
0.730506
67.6485
0.694529
67.6537
0.658151
67.6577
0.621393
67.6605
0.584277
67.662
0.546824
67.6624
0.509058
67.6616
0.471
67.6596
0.432672
67.6565
0.394098
67.6523
0.355302
67.6468
0.316306
67.6402
0.277132
67.6324
0.237807
67.6233
0.198353
67.613
0.158794
67.6013
0.119154
67.5883
0.0794596
67.5738
0.039733
67.5578
0
67.5402
-0.0397146
67.521
-0.0793858
67.5
-0.118988
67.4771
-0.158496
67.4522
-0.197885
67.4252
-0.237128
67.3959
-0.2762
67.3642
-0.315075
67.33
-0.353726
67.2929
-0.392128
67.2529
-0.430254
67.2098
-0.468077
67.1633
-0.50557
67.1131
-0.542706
67.059
-0.579459
67.0008
-0.6158
66.938
-0.651702
66.8705
-0.687136
66.7977
-0.722074
66.7194
-0.756488
66.635
-0.790347
66.5442
-0.823623
66.4464
-0.856283
66.341
-0.888299
66.2274
-0.919636
66.1051
-0.950262
65.9731
-0.980144
65.8307
-1.00925
65.6769
-1.03753
65.5106
-1.06496
65.3312
-1.09148
65.1356
-1.11709
64.9263
-1.14164
64.6899
-1.16529
64.4486
-1.18751
64.185
-1.20918
63.8734
-1.22902
63.4633
-1.24822
-1.26228
63.2659
65.31
1.46701
-65.2707
65.3465
1.44046
65.3803
1.41309
65.4115
1.38492
65.4403
1.35596
65.4667
1.32624
65.4909
1.29576
65.513
1.26455
65.5331
1.23263
65.5513
1.2
65.5677
1.16669
65.5824
1.13272
65.5955
1.09811
65.6071
1.06287
65.6173
1.02703
65.6261
0.990606
65.6336
0.95362
65.6398
0.916093
65.6449
0.878046
65.6489
0.839502
65.6518
0.800481
65.6536
0.761005
65.6545
0.721099
65.6545
0.680785
65.6535
0.640086
65.6517
0.599025
65.649
0.557627
65.6454
0.515915
65.641
0.473914
65.6357
0.431649
65.6296
0.389143
65.6226
0.346423
65.6148
0.303513
65.6061
0.260439
65.5964
0.217227
65.5858
0.173902
65.5743
0.130491
65.5616
0.0870189
65.5479
0.0435129
65.5331
0
65.517
-0.0434936
65.4996
-0.0869414
65.4808
-0.130316
65.4605
-0.17359
65.4387
-0.216736
65.4151
-0.259727
65.3897
-0.302535
65.3624
-0.345134
65.333
-0.387493
65.3013
-0.429587
65.2672
-0.471386
65.2305
-0.512862
65.191
-0.553986
65.1484
-0.594731
65.1026
-0.635068
65.0534
-0.674966
65.0003
-0.714397
64.9432
-0.753332
64.8818
-0.791739
64.8156
-0.829591
64.7444
-0.866855
64.6678
-0.903501
64.5852
-0.939497
64.4964
-0.974812
64.4006
-1.00941
64.2974
-1.04326
64.1862
-1.07633
64.0663
-1.10858
63.9369
-1.13998
63.7971
-1.17048
63.6464
-1.20004
63.4826
-1.22865
63.3069
-1.25619
63.1143
-1.28274
62.9046
-1.30805
62.6772
-1.33231
62.4532
-1.35502
62.125
-1.37777
-1.39467
61.9575
63.5281
1.59504
-63.5007
63.5533
1.56592
63.5763
1.53594
63.5971
1.50509
63.6159
1.47342
63.6327
1.44092
63.6478
1.40763
63.6611
1.37355
63.6728
1.33871
63.6831
1.30312
63.6918
1.26681
63.6993
1.22979
63.7055
1.19209
63.7105
1.15373
63.7144
1.11472
63.7172
1.07509
63.7191
1.03486
63.72
0.994061
63.7201
0.952703
63.7193
0.910816
63.7178
0.868421
63.7156
0.825543
63.7126
0.782205
63.709
0.738433
63.7048
0.694251
63.6999
0.649685
63.6945
0.604758
63.6885
0.559498
63.6819
0.51393
63.6747
0.468081
63.667
0.421975
63.6587
0.375641
63.6498
0.329105
63.6403
0.282394
63.6302
0.235536
63.6194
0.188558
63.6079
0.141487
63.5957
0.0943518
63.5827
0.04718
63.5689
0
63.5541
-0.0471599
63.5384
-0.0942712
63.5217
-0.141305
63.5038
-0.188233
63.4847
-0.235026
63.4643
-0.281654
63.4424
-0.32809
63.419
-0.374303
63.394
-0.420264
63.3671
-0.465943
63.3383
-0.511311
63.3073
-0.556338
63.2741
-0.600994
63.2383
-0.645249
63.1999
-0.689073
63.1587
-0.732434
63.1143
-0.775303
63.0665
-0.817649
63.0151
-0.859441
62.9598
-0.900647
62.9002
-0.941236
62.8361
-0.981176
62.7671
-1.02043
62.6927
-1.05898
62.6126
-1.09677
62.5263
-1.13379
62.4332
-1.16999
62.3329
-1.20533
62.2247
-1.23979
62.1079
-1.27332
61.9819
-1.30588
61.8455
-1.33744
61.6982
-1.36793
61.5386
-1.39736
61.367
-1.42559
61.1727
-1.45276
60.9851
-1.4782
60.7234
-1.50377
-1.52386
60.5996
61.7837
1.71974
-61.7667
61.7989
1.68809
61.8122
1.65553
61.8238
1.62206
61.8337
1.58772
61.8421
1.5525
61.8491
1.51644
61.8547
1.47956
61.859
1.44186
61.8621
1.40338
61.8641
1.36414
61.8651
1.32414
61.8652
1.28343
61.8644
1.24201
61.8627
1.19991
61.8603
1.15716
61.8572
1.11377
61.8534
1.06978
61.849
1.0252
61.8441
0.980057
61.8387
0.93438
61.8328
0.888192
61.8264
0.841518
61.8197
0.794385
61.8126
0.746819
61.8051
0.698846
61.7973
0.650493
61.7891
0.601787
61.7806
0.552756
61.7718
0.503426
61.7627
0.453827
61.7532
0.403986
61.7434
0.353932
61.7333
0.303692
61.7228
0.253296
61.7118
0.202774
61.7005
0.152153
61.6887
0.101465
61.6764
0.0507368
61.6635
0
61.65
-0.0507161
61.6358
-0.101381
61.6209
-0.151966
61.6052
-0.202439
61.5886
-0.25277
61.571
-0.302929
61.5523
-0.352885
61.5325
-0.402608
61.5113
-0.452066
61.4888
-0.501228
61.4647
-0.550064
61.4389
-0.598542
61.4112
-0.646631
61.3816
-0.694298
61.3498
-0.741515
61.3157
-0.788247
61.279
-0.834464
61.2395
-0.880133
61.197
-0.925223
61.1513
-0.969701
61.1021
-1.01353
61.0491
-1.05669
60.9919
-1.09914
60.9304
-1.14084
60.864
-1.18176
60.7925
-1.22187
60.7153
-1.26114
60.6321
-1.29952
60.5424
-1.33698
60.4455
-1.37348
60.3408
-1.40899
60.2278
-1.44347
60.1057
-1.47686
59.973
-1.50915
59.8318
-1.54022
59.6722
-1.57024
59.5159
-1.59852
59.2974
-1.6268
-1.64984
59.2021
60.077
1.84114
-60.0692
60.0833
1.80701
60.0882
1.77192
60.0916
1.73588
60.0937
1.69891
60.0947
1.66104
60.0944
1.62227
60.0932
1.58264
60.091
1.54215
60.0878
1.50084
60.0839
1.45873
60.0792
1.41583
60.0738
1.37217
60.0678
1.32778
60.0613
1.28267
60.0542
1.23687
60.0467
1.19041
60.0388
1.14331
60.0305
1.09559
60.0219
1.04728
60.013
0.998411
60.0039
0.949004
59.9946
0.899087
59.9851
0.848688
59.9754
0.797833
59.9656
0.746551
59.9557
0.69487
59.9457
0.642819
59.9355
0.590425
59.9253
0.537718
59.9149
0.484728
59.9045
0.431484
59.8939
0.378015
59.8832
0.324352
59.8724
0.270525
59.8614
0.216564
59.8502
0.1625
59.8388
0.108364
59.8271
0.0541871
59.8151
0
59.8028
-0.0541658
59.79
-0.108279
59.7768
-0.162308
59.763
-0.216221
59.7487
-0.269986
59.7336
-0.323571
59.7178
-0.376944
59.7011
-0.430074
59.6835
-0.482927
59.6648
-0.535472
59.6449
-0.587676
59.6238
-0.639507
59.6012
-0.690932
59.577
-0.741919
59.5511
-0.792435
59.5233
-0.842447
59.4934
-0.891922
59.4613
-0.940827
59.4268
-0.98913
59.3896
-1.0368
59.3495
-1.08379
59.3063
-1.13009
59.2597
-1.17564
59.2094
-1.22043
59.1552
-1.26441
59.0966
-1.30755
59.0334
-1.34982
58.9652
-1.39117
58.8915
-1.43158
58.8119
-1.471
58.7259
-1.5094
58.6329
-1.54674
58.5326
-1.58298
58.4234
-1.61809
58.307
-1.65196
58.1761
-1.68475
58.0488
-1.71584
57.8675
-1.74684
-1.77276
57.7947
58.4083
1.95929
-58.4086
58.4068
1.92273
58.4042
1.88515
58.4004
1.84659
58.3957
1.80706
58.39
1.76658
58.3835
1.72516
58.3762
1.68284
58.3682
1.63963
58.3595
1.59556
58.3503
1.55065
58.3406
1.50492
58.3305
1.45839
58.3199
1.41109
58.309
1.36305
58.2979
1.31429
58.2865
1.26483
58.2749
1.2147
58.2632
1.16393
58.2514
1.11254
58.2395
1.06057
58.2276
1.00803
58.2157
0.954961
58.2037
0.901387
58.1918
0.847338
58.18
0.792842
58.1683
0.73793
58.1566
0.682629
58.145
0.626971
58.1335
0.570987
58.1221
0.514705
58.1109
0.458159
58.0996
0.401377
58.0885
0.344393
58.0774
0.287237
58.0664
0.229941
58.0554
0.172536
58.0443
0.115057
58.0332
0.057534
58.0221
0
58.0108
-0.0575123
57.9993
-0.11497
57.9876
-0.172341
57.9756
-0.229591
57.9633
-0.286687
57.9506
-0.343597
57.9373
-0.400287
57.9235
-0.456724
57.909
-0.512874
57.8938
-0.568704
57.8777
-0.62418
57.8607
-0.679268
57.8426
-0.733935
57.8233
-0.788148
57.8026
-0.841872
57.7805
-0.895074
57.7567
-0.947719
57.7312
-0.999775
57.7037
-1.05121
57.674
-1.10198
57.642
-1.15206
57.6075
-1.20141
57.5702
-1.25001
57.5299
-1.2978
57.4863
-1.34477
57.4391
-1.39087
57.3882
-1.43607
57.333
-1.48033
57.2734
-1.52363
57.2088
-1.56591
57.139
-1.60714
57.0634
-1.64729
56.9817
-1.68632
56.8928
-1.72419
56.7981
-1.76082
56.691
-1.79633
56.5879
-1.83015
56.4386
-1.86382
-1.89257
56.3851
56.7776
2.07425
-56.7851
56.7693
2.03529
56.7601
1.99529
56.75
1.95426
56.7392
1.91221
56.7277
1.86918
56.7156
1.82518
56.703
1.78024
56.6899
1.73437
56.6764
1.6876
56.6626
1.63996
56.6485
1.59146
56.6342
1.54214
56.6196
1.49201
56.605
1.44111
56.5902
1.38946
56.5755
1.33708
56.5607
1.28401
56.546
1.23027
56.5313
1.17589
56.5168
1.12089
56.5024
1.06532
56.4882
1.00918
56.4742
0.952528
56.4604
0.895376
56.4468
0.837759
56.4334
0.779708
56.4203
0.721254
56.4075
0.662428
56.395
0.603262
56.3827
0.543787
56.3707
0.484036
56.3589
0.42404
56.3474
0.363833
56.3362
0.303447
56.3251
0.242916
56.3143
0.182272
56.3036
0.121549
56.2931
0.0607805
56.2827
0
56.2724
-0.0607585
56.2621
-0.121461
56.2518
-0.182073
56.2414
-0.242561
56.2309
-0.302891
56.2202
-0.363027
56.2093
-0.422936
56.1981
-0.482583
56.1864
-0.541933
56.1743
-0.600953
56.1616
-0.659605
56.1483
-0.717859
56.1342
-0.775676
56.1192
-0.833023
56.1032
-0.889867
56.0861
-0.94617
56.0678
-1.0019
56.048
-1.05702
56.0268
-1.1115
56.0038
-1.16529
55.979
-1.21838
55.9521
-1.27071
55.923
-1.32227
55.8915
-1.373
55.8573
-1.42288
55.8202
-1.47187
55.7799
-1.51994
55.7362
-1.56705
55.6888
-1.61316
55.6374
-1.65823
55.5817
-1.70224
55.5212
-1.74515
55.4557
-1.7869
55.3842
-1.82749
55.308
-1.86681
55.2216
-1.90499
55.139
-1.94149
55.0165
-1.97777
-2.00929
54.9791
55.185
2.18606
-55.1987
55.1706
2.14477
55.1556
2.10238
55.14
2.05893
55.1239
2.01444
55.1073
1.96891
55.0904
1.92239
55.0731
1.87488
55.0556
1.82642
55.0378
1.77702
55.02
1.72671
55.002
1.67552
54.984
1.62347
54.966
1.57059
54.948
1.51691
54.9301
1.46245
54.9124
1.40723
54.8949
1.3513
54.8775
1.29467
54.8604
1.23738
54.8436
1.17945
54.827
1.12092
54.8108
1.06181
54.795
1.00215
54.7795
0.941989
54.7644
0.881341
54.7497
0.820244
54.7354
0.758728
54.7215
0.696827
54.7081
0.634573
54.695
0.571999
54.6824
0.509138
54.6702
0.446025
54.6585
0.382691
54.6471
0.319173
54.6361
0.255503
54.6254
0.191716
54.6151
0.127846
54.6051
0.0639297
54.5954
0
54.586
-0.0639074
54.5768
-0.127757
54.5677
-0.191515
54.5588
-0.255144
54.55
-0.31861
54.5412
-0.381878
54.5323
-0.44491
54.5234
-0.507673
54.5143
-0.57013
54.5049
-0.632246
54.4953
-0.693985
54.4852
-0.755311
54.4747
-0.816188
54.4635
-0.876582
54.4517
-0.936456
54.4391
-0.995775
54.4255
-1.0545
54.411
-1.11261
54.3953
-1.17004
54.3782
-1.22679
54.3597
-1.2828
54.3396
-1.33804
54.3178
-1.39247
54.294
-1.44607
54.268
-1.49879
54.2397
-1.5506
54.2089
-1.60147
54.1752
-1.65135
54.1386
-1.70021
54.0987
-1.74802
54.0552
-1.79474
54.0078
-1.84034
53.9563
-1.88476
53.8999
-1.928
53.8397
-1.96996
53.7709
-2.01076
53.7059
-2.04988
53.6064
-2.08871
-2.12293
53.5823
53.6302
2.29478
-53.6494
53.6106
2.2512
53.5905
2.20649
53.57
2.16068
53.5493
2.11379
53.5283
2.06583
53.5071
2.01684
53.4858
1.96683
53.4644
1.91584
53.4429
1.86388
53.4215
1.81098
53.4002
1.75716
53.379
1.70246
53.3579
1.6469
53.3371
1.59051
53.3165
1.53331
53.2962
1.47533
53.2762
1.41662
53.2566
1.35718
53.2374
1.29706
53.2185
1.23628
53.2002
1.17487
53.1823
1.11287
53.1648
1.05031
53.1479
0.987217
53.1315
0.923627
53.1156
0.859572
53.1003
0.795084
53.0855
0.730199
53.0713
0.664948
53.0576
0.599367
53.0445
0.53349
53.032
0.46735
53.02
0.400984
53.0085
0.334426
52.9976
0.267712
52.9871
0.200876
52.9772
0.133955
52.9677
0.0669845
52.9587
0
52.9501
-0.0669621
52.9418
-0.133865
52.9339
-0.200674
52.9263
-0.267351
52.919
-0.33386
52.9118
-0.400165
52.9048
-0.46623
52.898
-0.532016
52.8911
-0.597489
52.8843
-0.662611
52.8773
-0.727346
52.8702
-0.791657
52.8628
-0.855507
52.8551
-0.91886
52.847
-0.98168
52.8383
-1.04393
52.8291
-1.10557
52.8191
-1.16657
52.8082
-1.2269
52.7964
-1.2865
52.7835
-1.34536
52.7694
-1.40343
52.7539
-1.46067
52.7369
-1.51706
52.7182
-1.57255
52.6977
-1.62711
52.6751
-1.6807
52.6503
-1.73329
52.623
-1.78484
52.5931
-1.83532
52.5603
-1.88469
52.5243
-1.93291
52.485
-1.97995
52.4416
-2.02577
52.3952
-2.07031
52.3416
-2.11366
52.2917
-2.15534
52.2118
-2.19667
-2.23352
52.1991
52.113
2.40047
-52.137
52.0888
2.35466
52.0643
2.30768
52.0397
2.25956
52.0149
2.21033
51.99
2.16
51.9651
2.10861
51.9403
2.05616
51.9155
2.0027
51.8908
1.94824
51.8664
1.89281
51.8421
1.83644
51.8181
1.77916
51.7945
1.72098
51.7711
1.66196
51.7482
1.6021
51.7257
1.54144
51.7036
1.48001
51.682
1.41785
51.661
1.35497
51.6404
1.29142
51.6205
1.22723
51.6011
1.16242
51.5823
1.09703
51.5642
1.0311
51.5467
0.964653
51.5298
0.897727
51.5136
0.830355
51.4981
0.762573
51.4832
0.694415
51.469
0.625916
51.4555
0.557111
51.4427
0.488037
51.4305
0.418729
51.419
0.349222
51.4082
0.279555
51.398
0.209762
51.3884
0.13988
51.3794
0.0699476
51.3709
0
51.3631
-0.0699251
51.3557
-0.13979
51.3488
-0.209559
51.3424
-0.279193
51.3364
-0.348655
51.3308
-0.417907
51.3255
-0.486914
51.3205
-0.555635
51.3156
-0.624035
51.311
-0.692075
51.3064
-0.759719
51.3019
-0.826928
51.2974
-0.893665
51.2927
-0.959893
51.2878
-1.02557
51.2827
-1.09067
51.2772
-1.15515
51.2713
-1.21897
51.2648
-1.28209
51.2576
-1.34449
51.2496
-1.40611
51.2408
-1.46693
51.2309
-1.52691
51.2199
-1.58601
51.2076
-1.6442
51.1939
-1.70144
51.1785
-1.75769
51.1614
-1.81292
51.1423
-1.8671
51.1211
-1.92018
51.0976
-1.97213
51.0716
-2.02291
51.0428
-2.07249
51.0108
-2.12085
50.9763
-2.1679
50.9358
-2.21374
50.8989
-2.25792
50.8358
-2.30168
-2.3411
50.8328
50.6331
2.5032
-50.6612
50.605
2.4552
50.5767
2.40601
50.5484
2.35564
50.5201
2.30413
50.4919
2.25148
50.4638
2.19774
50.4359
2.14292
50.4082
2.08705
50.3808
2.03016
50.3537
1.97227
50.3269
1.91342
50.3005
1.85362
50.2746
1.79291
50.2491
1.73132
50.2242
1.66887
50.1998
1.60561
50.1759
1.54155
50.1526
1.47673
50.13
1.41118
50.108
1.34494
50.0867
1.27804
50.0661
1.2105
50.0462
1.14237
50.027
1.07368
50.0085
1.00446
49.9908
0.934744
49.9739
0.864573
49.9578
0.79398
49.9424
0.723001
49.9278
0.65167
49.914
0.580026
49.9009
0.508104
49.8887
0.435941
49.8772
0.363575
49.8664
0.291042
49.8564
0.218381
49.8472
0.145628
49.8386
0.0728217
49.8308
0
49.8236
-0.0727992
49.817
-0.145538
49.8111
-0.218178
49.8058
-0.29068
49.801
-0.363007
49.7967
-0.43512
49.7929
-0.506981
49.7895
-0.57855
49.7865
-0.649791
49.7838
-0.720664
49.7814
-0.791132
49.7792
-0.861154
49.7771
-0.930695
49.7752
-0.999715
49.7732
-1.06818
49.7712
-1.13604
49.769
-1.20327
49.7667
-1.26983
49.764
-1.33568
49.7609
-1.40078
49.7573
-1.4651
49.7531
-1.5286
49.7481
-1.59124
49.7424
-1.65299
49.7357
-1.7138
49.7279
-1.77365
49.7189
-1.83249
49.7085
-1.89029
49.6966
-1.94702
49.683
-2.00263
49.6677
-2.0571
49.6502
-2.11039
49.6307
-2.16245
49.6084
-2.21327
49.5843
-2.26277
49.5551
-2.31105
49.5294
-2.35766
49.4808
-2.40379
-2.44572
49.4859
49.1902
2.60302
-49.2219
49.1586
2.55289
49.127
2.50154
49.0956
2.44898
49.0643
2.39524
49.0332
2.34034
49.0024
2.28431
48.9718
2.22718
48.9417
2.16897
48.9119
2.10971
48.8825
2.04943
48.8536
1.98815
48.8252
1.92591
48.7973
1.86273
48.77
1.79864
48.7433
1.73368
48.7173
1.66788
48.6919
1.60127
48.6672
1.53387
48.6433
1.46573
48.6201
1.39687
48.5976
1.32733
48.5759
1.25715
48.5551
1.18636
48.535
1.11499
48.5158
1.04307
48.4974
0.970656
48.4799
0.897769
48.4632
0.824448
48.4474
0.75073
48.4325
0.676653
48.4184
0.602254
48.4053
0.527569
48.3929
0.452638
48.3815
0.377497
48.3709
0.302186
48.3611
0.226741
48.3522
0.151203
48.344
0.0756099
48.3367
0
48.3302
-0.0755874
48.3243
-0.151113
48.3193
-0.226539
48.3149
-0.301824
48.3112
-0.37693
48.3081
-0.451818
48.3056
-0.526449
48.3037
-0.600783
48.3023
-0.674781
48.3014
-0.748403
48.3009
-0.821611
48.3007
-0.894366
48.3009
-0.966629
48.3013
-1.03836
48.3019
-1.10952
48.3026
-1.18008
48.3034
-1.24998
48.3042
-1.3192
48.3049
-1.3877
48.3053
-1.45544
48.3056
-1.52238
48.3054
-1.58848
48.3048
-1.65371
48.3037
-1.71802
48.3019
-1.78139
48.2993
-1.84378
48.2959
-1.90514
48.2914
-1.96545
48.2858
-2.02466
48.2789
-2.08275
48.2705
-2.13967
48.2606
-2.19539
48.249
-2.24987
48.2353
-2.3031
48.2202
-2.35498
48.2007
-2.40563
48.1847
-2.45461
48.1486
-2.50305
-2.54741
48.1605
47.7838
2.7
-47.8185
47.7492
2.6478
47.7148
2.59433
47.6807
2.53963
47.6468
2.48373
47.6133
2.42663
47.5801
2.36838
47.5474
2.309
47.515
2.24851
47.4832
2.18694
47.4519
2.12433
47.4212
2.0607
47.3911
1.99608
47.3616
1.9305
47.3327
1.86399
47.3046
1.79659
47.2772
1.72832
47.2505
1.65922
47.2247
1.58932
47.1996
1.51866
47.1753
1.44726
47.1519
1.37517
47.1294
1.30241
47.1077
1.22903
47.087
1.15506
47.0671
1.08054
47.0482
1.0055
47.0302
0.929972
47.0131
0.854004
46.997
0.77763
46.9818
0.700888
46.9676
0.623815
46.9543
0.546451
46.942
0.468833
46.9306
0.391002
46.9201
0.312994
46.9106
0.234851
46.902
0.156611
46.8942
0.0783144
46.8874
0
46.8814
-0.078292
46.8763
-0.156522
46.872
-0.234649
46.8685
-0.312634
46.8658
-0.390437
46.8638
-0.468018
46.8625
-0.545336
46.8619
-0.622352
46.8619
-0.699025
46.8625
-0.775317
46.8637
-0.851186
46.8653
-0.926592
46.8675
-1.0015
46.87
-1.07586
46.8728
-1.14965
46.876
-1.22281
46.8794
-1.29532
46.8829
-1.36712
46.8865
-1.4382
46.8902
-1.50849
46.8937
-1.57798
46.8972
-1.64661
46.9004
-1.71435
46.9033
-1.78117
46.9058
-1.84703
46.9078
-1.91188
46.9091
-1.9757
46.9098
-2.03844
46.9097
-2.10008
46.9085
-2.16057
46.9064
-2.21988
46.903
-2.27797
46.8983
-2.33481
46.892
-2.39037
46.8846
-2.44459
46.8736
-2.49753
46.8659
-2.54882
46.8405
-2.59951
-2.64624
46.8583
46.4133
2.7942
-46.4507
46.3763
2.73998
46.3395
2.68446
46.3031
2.62768
46.2671
2.56966
46.2314
2.51043
46.1963
2.45001
46.1616
2.38843
46.1275
2.32573
46.094
2.26192
46.0611
2.19704
46.0288
2.13112
45.9972
2.06419
45.9664
1.99628
45.9363
1.92741
45.9069
1.85763
45.8784
1.78697
45.8507
1.71546
45.8238
1.64313
45.7978
1.57001
45.7727
1.49615
45.7485
1.42158
45.7253
1.34633
45.703
1.27044
45.6817
1.19394
45.6613
1.11688
45.6419
1.03929
45.6235
0.961211
45.6062
0.882676
45.5898
0.803724
45.5744
0.724396
45.5601
0.644731
45.5468
0.564767
45.5345
0.484544
45.5232
0.404101
45.5129
0.323479
45.5036
0.242718
45.4952
0.161857
45.4879
0.0809378
45.4815
0
45.4761
-0.0809155
45.4716
-0.161768
45.468
-0.242517
45.4653
-0.323121
45.4634
-0.40354
45.4624
-0.483733
45.4621
-0.563659
45.4627
-0.643278
45.464
-0.722548
45.466
-0.801429