/*--------------------------------*- C++ -*----------------------------------*\
| =========                 |                                                 |
| \\      /  F ield         | OpenFOAM: The Open Source CFD Toolbox           |
|  \\    /   O peration     | Version:  2206                                  |
|   \\  /    A nd           | Website:  www.openfoam.com                      |
|    \\/     M anipulation  |                                                 |
\*---------------------------------------------------------------------------*/
FoamFile
{
    version     2.0;
    format      ascii;
    arch        "LSB;label=32;scalar=64";
    class       volScalarField;
    location    "1.7";
    object      wave;
}
// * * * * * * * * * * * * * * * * * * * * * * * * * * * * * * * * * * * * * //

dimensions      [0 0 0 0 0 0 0];

internalField   nonuniform List<scalar> 
100
(
0.978335
0.933335
0.864888
0.774713
0.665075
0.538729
0.398849
0.24895
0.0927955
-0.0656898
-0.222525
-0.373769
-0.515624
-0.644525
-0.757235
-0.85092
-0.923229
-0.972344
-0.997032
-0.996672
-0.971274
-0.921475
-0.848526
-0.754261
-0.641047
-0.511728
-0.369554
-0.218095
-0.0611578
0.0973161
0.253345
0.40301
0.54255
0.668459
0.777576
0.867158
0.934956
0.979265
0.998973
0.993584
0.963235
0.908686
0.83131
0.733049
0.616373
0.484211
0.339886
0.187021
0.0294585
-0.128844
-0.28391
-0.431844
-0.568929
-0.69172
-0.797135
-0.882523
-0.945741
-0.985199
-0.999908
-0.989496
-0.954226
-0.894983
-0.813257
-0.7111
-0.591078
-0.456207
-0.309876
-0.155759
0.00227045
0.160243
0.31419
0.460243
0.594735
0.714285
0.815891
0.897
0.955574
0.990142
0.999836
0.984411
0.944256
0.880379
0.794385
0.688434
0.565188
0.427744
0.279553
0.12434
-0.0339971
-0.19148
-0.344153
-0.488179
-0.619942
-0.73613
-0.833825
-0.910573
-0.964445
-0.994088
-0.998757
-0.978335
)
;

boundaryField
{
    movingWall
    {
        type            calculated;
        value           uniform 0;
    }
    fixedWalls
    {
        type            calculated;
        value           uniform 0;
    }
    frontAndBack
    {
        type            empty;
    }
}


// ************************************************************************* //
