/*--------------------------------*- C++ -*----------------------------------*\
| =========                 |                                                 |
| \\      /  F ield         | OpenFOAM: The Open Source CFD Toolbox           |
|  \\    /   O peration     | Version:  2312                                  |
|   \\  /    A nd           | Website:  www.openfoam.com                      |
|    \\/     M anipulation  |                                                 |
\*---------------------------------------------------------------------------*/
FoamFile
{
    version     2.0;
    format      ascii;
    arch        "LSB;label=32;scalar=64";
    class       surfaceScalarField;
    location    "0.943";
    object      phi;
}
// * * * * * * * * * * * * * * * * * * * * * * * * * * * * * * * * * * * * * //

dimensions      [0 3 -1 0 0 0 0];

oriented        oriented;

internalField   nonuniform List<scalar> 
62015
(
46.5107
0.24483
-47.6014
45.4073
0.235411
44.2903
0.225949
43.158
0.216451
42.009
0.206925
40.8415
0.197382
39.6542
0.187832
38.4457
0.178288
37.2155
0.168765
35.9641
0.159285
34.6942
0.149878
33.4123
0.140584
32.1301
0.131463
30.8671
0.122597
29.6502
0.114088
28.5112
0.106048
27.4819
0.098577
26.5874
0.0917393
25.8417
0.0855501
25.2469
0.0799751
24.7947
0.0749421
24.4707
0.0703594
24.2574
0.0661306
24.1373
0.0621657
24.0946
0.0583865
24.1153
0.0547276
24.1879
0.0511367
24.3032
0.0475722
24.4536
0.0440017
24.6331
0.0404
24.837
0.0367475
25.0614
0.0330291
25.3033
0.0292339
25.5603
0.0253525
25.8306
0.0213789
26.1125
0.017308
26.4048
0.0131367
26.7065
0.00886221
27.0168
0.00448355
27.3351
0
27.6609
-0.00458863
27.9937
-0.00928141
28.3332
-0.0140781
28.6792
-0.0189768
29.0315
-0.0239762
29.3899
-0.0290742
29.7544
-0.034269
30.1247
-0.0395577
30.501
-0.0449384
30.8831
-0.0504077
31.2711
-0.0559632
31.6649
-0.0616016
32.0646
-0.0673201
32.4702
-0.0731152
32.8817
-0.0789836
33.2992
-0.0849216
33.7228
-0.0909261
34.1524
-0.0969932
34.5881
-0.103119
35.03
-0.1093
35.4781
-0.115533
35.9325
-0.121813
36.3933
-0.128136
36.8604
-0.134499
37.334
-0.140897
37.814
-0.147327
38.3006
-0.153783
38.7937
-0.160263
39.2934
-0.166761
39.7998
-0.173274
40.3128
-0.179797
40.8326
-0.186326
41.3589
-0.192857
41.8926
-0.199383
42.4312
-0.20591
42.9819
-0.2124
43.5229
-0.218954
44.1216
-0.22524
-0.232274
44.571
44.3654
0.474093
-45.4194
43.2984
0.455697
42.218
0.437218
41.1228
0.418673
40.0112
0.400078
38.882
0.381453
37.7338
0.362822
36.5661
0.344213
35.3788
0.325664
34.1736
0.307224
32.9549
0.288962
31.7313
0.270978
30.5172
0.253407
29.3343
0.236428
28.21
0.220246
27.1738
0.205066
26.2525
0.191045
25.4644
0.178262
24.8172
0.1667
24.3082
0.156257
23.927
0.146778
23.6589
0.138084
23.4876
0.129998
23.3976
0.122357
23.375
0.115024
23.4078
0.107884
23.4862
0.100847
23.6023
0.0938388
23.7495
0.0868039
23.9227
0.0796978
24.1179
0.0724859
24.3316
0.0651419
24.5614
0.0576452
24.8051
0.0499807
25.0609
0.0421366
25.3276
0.0341042
25.604
0.0258776
25.8893
0.0174527
26.1828
0.00882722
26.4838
0
26.792
-0.00902881
27.1068
-0.018258
27.4282
-0.027686
27.7558
-0.0373101
28.0894
-0.0471267
28.4289
-0.0571328
28.7743
-0.0673238
29.1254
-0.0776949
29.4822
-0.0882418
29.8447
-0.0989586
30.2128
-0.10984
30.5867
-0.12088
30.9662
-0.132073
31.3514
-0.143412
31.7424
-0.154891
32.1391
-0.166503
32.5417
-0.178242
32.9501
-0.190099
33.3645
-0.202069
33.7848
-0.214143
34.2112
-0.226315
34.6436
-0.238576
35.0821
-0.250919
35.5268
-0.263337
35.9776
-0.275821
36.4347
-0.288363
36.8981
-0.300956
37.3679
-0.313591
37.8439
-0.326261
38.3264
-0.338956
38.8153
-0.351669
39.3106
-0.36439
39.8122
-0.377114
40.3209
-0.389826
40.8344
-0.402537
41.3593
-0.415176
41.8755
-0.427931
42.4452
-0.44018
-0.453832
42.8781
42.2685
0.687926
-43.2879
41.2364
0.660982
40.1912
0.63392
39.1315
0.606764
38.0561
0.579544
36.9639
0.55229
35.854
0.525043
34.7264
0.497851
33.5822
0.470781
32.4243
0.443921
31.2591
0.417397
30.0978
0.391382
28.9572
0.366105
27.8604
0.341847
26.8339
0.318901
25.9036
0.297526
25.0902
0.277888
24.4055
0.260026
23.8515
0.243854
23.4221
0.229187
23.1057
0.215786
22.8879
0.203398
22.7542
0.191779
22.6908
0.180716
22.6857
0.170028
22.729
0.159567
22.8121
0.149213
22.9283
0.138873
23.0721
0.128472
23.2391
0.117953
23.4258
0.107269
23.6294
0.0963865
23.8476
0.085278
24.0785
0.0739231
24.3207
0.0623062
24.573
0.050416
24.8344
0.0382446
25.1042
0.0257863
25.3816
0.0130387
25.6663
0
25.9577
-0.0133291
26.2557
-0.0269467
26.5598
-0.0408502
26.8699
-0.0550356
27.1859
-0.0694985
27.5075
-0.0842328
27.8348
-0.0992332
28.1677
-0.114492
28.506
-0.130003
28.8499
-0.145759
29.1993
-0.16175
29.5541
-0.177968
29.9145
-0.194406
30.2804
-0.211053
30.6519
-0.227899
31.0289
-0.244937
31.4116
-0.262154
31.8
-0.279542
32.1941
-0.297089
32.594
-0.314785
32.9996
-0.332619
33.4111
-0.350581
33.8286
-0.368658
34.2519
-0.386841
34.6813
-0.405116
35.1166
-0.423474
35.558
-0.441901
36.0055
-0.460386
36.4591
-0.478918
36.9189
-0.497484
37.3848
-0.516073
37.8569
-0.534671
38.3351
-0.553269
38.82
-0.571847
39.3097
-0.590419
39.8101
-0.608885
40.3026
-0.627511
40.8451
-0.645415
-0.665303
41.2607
40.2404
0.886806
-41.2265
39.2416
0.851722
38.2301
0.816492
37.2045
0.78115
36.164
0.745735
35.1077
0.710296
34.0354
0.674893
32.9478
0.639603
31.847
0.604531
30.738
0.56982
29.6291
0.535668
28.5339
0.502341
27.4715
0.470169
26.4647
0.43952
25.5381
0.410746
24.7126
0.384109
24.0028
0.359731
23.4147
0.337575
22.9458
0.317462
22.5879
0.299122
22.3288
0.282242
22.1552
0.266509
22.0541
0.251633
22.0136
0.237365
22.0237
0.223495
22.0756
0.209852
22.1623
0.1963
22.2781
0.182728
22.4184
0.169053
22.5794
0.155206
22.758
0.141135
22.952
0.126798
23.1592
0.112164
23.3781
0.0972079
23.6075
0.0819125
23.8462
0.0662642
24.0935
0.0502536
24.3486
0.0338745
24.611
0.0171237
24.8803
0
25.156
-0.0174958
25.4379
-0.035361
25.7258
-0.053592
26.0194
-0.0721834
26.3187
-0.0911292
26.6235
-0.110422
26.9337
-0.130055
27.2493
-0.150018
27.5702
-0.170302
27.8965
-0.190897
28.228
-0.211794
28.5649
-0.23298
28.9072
-0.254444
29.2548
-0.276175
29.6078
-0.298161
29.9662
-0.320388
30.33
-0.342844
30.6994
-0.365515
31.0742
-0.388389
31.4547
-0.41145
31.8407
-0.434687
32.2324
-0.458083
32.6298
-0.481625
33.033
-0.505298
33.4418
-0.529087
33.8565
-0.552977
34.277
-0.576954
34.7034
-0.601001
35.1357
-0.625104
35.5739
-0.649247
36.0179
-0.673415
36.468
-0.697591
36.9239
-0.721762
37.3863
-0.745902
37.8532
-0.77003
38.3304
-0.794019
38.8003
-0.818204
39.317
-0.841468
-0.867239
39.7155
38.2891
1.07131
-39.2433
37.3225
1.02849
36.3435
0.985491
35.3511
0.942374
34.3446
0.89919
33.3237
0.856007
32.2889
0.812914
31.2417
0.770025
30.1858
0.727498
29.128
0.685546
28.0789
0.644459
27.0542
0.604601
26.0736
0.566396
25.1591
0.530273
24.3315
0.496591
23.6067
0.465566
22.9934
0.437235
22.4928
0.411459
22.0994
0.387965
21.8038
0.366403
21.5941
0.346404
21.4582
0.32761
21.3847
0.309702
21.3635
0.292408
21.3859
0.275502
21.4447
0.258799
21.5339
0.242152
21.6487
0.225443
21.7852
0.208579
21.9402
0.191487
22.111
0.174108
22.2957
0.156398
22.4925
0.138322
22.7001
0.119853
22.9173
0.100972
23.1433
0.0816625
23.3772
0.0619158
23.6186
0.041725
23.8668
0.0210866
24.1215
0
24.3825
-0.0215335
24.6493
-0.0435108
24.9218
-0.0659265
25.1999
-0.0887746
25.4834
-0.112047
25.7722
-0.135736
26.0663
-0.159831
26.3656
-0.184321
26.6701
-0.209196
26.9797
-0.234443
27.2944
-0.26005
27.6143
-0.286002
27.9394
-0.312287
28.2696
-0.338889
28.6051
-0.365795
28.9458
-0.392988
29.2918
-0.420454
29.6431
-0.448175
29.9997
-0.476136
30.3617
-0.50432
30.7292
-0.53271
31.102
-0.561288
31.4804
-0.590038
31.8643
-0.618941
32.2537
-0.64798
32.6488
-0.677136
33.0494
-0.706391
33.4557
-0.735727
33.8677
-0.765125
34.2853
-0.794565
34.7087
-0.82403
35.1378
-0.8535
35.5724
-0.882958
36.0133
-0.912373
36.4586
-0.941768
36.9136
-0.970991
37.362
-1.00044
37.8544
-1.02878
-1.06011
38.2359
36.4167
1.24203
-37.3401
35.4813
1.19185
34.534
1.14148
33.5741
1.091
32.6013
1.04047
31.6157
0.989996
30.6188
0.939693
29.6133
0.889732
28.6044
0.840339
27.6009
0.791813
26.6154
0.744545
25.6649
0.698994
24.7688
0.655653
23.9467
0.614963
23.215
0.577241
22.5844
0.542613
22.0589
0.511005
21.636
0.482168
21.3084
0.455745
21.0662
0.431324
20.8984
0.40849
20.7941
0.386863
20.7436
0.366106
20.7381
0.345935
20.7704
0.326116
20.8344
0.30646
20.925
0.286812
21.0381
0.26705
21.1705
0.247078
21.3194
0.226818
21.4827
0.20621
21.6585
0.185207
21.8454
0.163771
22.0423
0.141875
22.248
0.119497
22.4619
0.0966226
22.6833
0.0732405
22.9116
0.0493444
23.1465
0.024931
23.3875
0
23.6345
-0.0254465
23.887
-0.0514043
24.1451
-0.0778673
24.4085
-0.104828
24.6771
-0.132277
24.9509
-0.160205
25.2297
-0.1886
25.5136
-0.217449
25.8025
-0.24674
26.0963
-0.276457
26.3951
-0.306587
26.6989
-0.337114
27.0077
-0.368021
27.3216
-0.399292
27.6404
-0.430909
27.9644
-0.462855
28.2934
-0.495111
28.6275
-0.52766
28.9669
-0.560481
29.3114
-0.593555
29.6611
-0.626862
30.0161
-0.660383
30.3764
-0.694097
30.742
-0.727983
31.113
-0.762021
31.4894
-0.796189
31.8711
-0.830465
32.2583
-0.864829
32.6509
-0.899258
33.0491
-0.933731
33.4526
-0.968226
33.8618
-1.00272
34.2762
-1.03719
34.6966
-1.07161
35.1213
-1.106
35.5553
-1.14018
35.9831
-1.17461
36.4524
-1.20777
-1.24433
36.8176
34.6224
1.39953
-35.5158
33.7174
1.34237
32.8012
1.28503
31.8734
1.22759
30.9341
1.17015
29.9843
1.11284
29.0263
1.05584
28.0643
0.999376
27.1052
0.94376
26.1595
0.88939
25.2414
0.836755
24.368
0.786389
23.5574
0.738808
22.8256
0.694417
22.1848
0.653441
21.6408
0.615888
21.1937
0.581562
20.8387
0.550118
20.5676
0.521124
20.3707
0.494126
20.238
0.468685
20.1601
0.444406
20.1284
0.420947
20.1356
0.398023
20.1756
0.375398
20.2432
0.35288
20.3342
0.330315
20.4451
0.307579
20.5732
0.284574
20.7161
0.261222
20.872
0.23746
21.0393
0.213241
21.2167
0.188527
21.4033
0.163287
21.5982
0.137502
21.8006
0.111155
22.0101
0.0842365
22.2262
0.0567389
22.4485
0.0286601
22.6766
0
22.9103
-0.0292384
23.1495
-0.0590496
23.3939
-0.089427
23.6434
-0.120362
23.898
-0.151843
24.1575
-0.183859
24.422
-0.216397
24.6912
-0.249443
24.9653
-0.282981
25.2443
-0.316996
25.528
-0.351471
25.8166
-0.386388
26.11
-0.421728
26.4082
-0.457474
26.7113
-0.493604
27.0194
-0.530099
27.3323
-0.566939
27.6502
-0.604102
27.9731
-0.641566
28.301
-0.67931
28.634
-0.71731
28.972
-0.755545
29.3151
-0.793991
29.6634
-0.832625
30.0168
-0.871422
30.3754
-0.91036
30.7392
-0.949414
31.1082
-0.988558
31.4825
-1.02777
31.862
-1.06702
32.2468
-1.10629
32.6369
-1.14556
33.0322
-1.18479
33.4331
-1.22395
33.8382
-1.26307
34.2521
-1.30195
34.6603
-1.34109
35.1076
-1.37882
-1.42032
35.4571
32.9039
1.54435
-33.768
32.0287
1.48059
31.1432
1.41667
30.2474
1.35269
29.3421
1.28879
28.429
1.22515
27.5115
1.16199
26.5953
1.09965
25.6891
1.03852
24.8048
0.979094
23.9572
0.921952
23.1626
0.867658
22.4366
0.8167
21.7914
0.769398
21.2349
0.725852
20.7689
0.685937
20.391
0.649345
20.0947
0.615648
19.8717
0.584363
19.7131
0.555009
19.6097
0.527137
19.5534
0.50035
19.537
0.474312
19.5543
0.448738
19.6001
0.423398
19.6701
0.398101
19.7607
0.372696
19.8689
0.347059
19.9925
0.321094
20.1295
0.294722
20.2781
0.26788
20.4372
0.240521
20.6056
0.212606
20.7825
0.184106
20.967
0.155
21.1587
0.125273
21.357
0.0949127
21.5614
0.0639151
21.7718
0.0322771
21.9877
0
22.209
-0.0329127
22.4355
-0.0664548
22.667
-0.100618
22.9034
-0.135392
23.1447
-0.170766
23.3908
-0.206725
23.6416
-0.243257
23.8971
-0.280343
24.1572
-0.317969
24.422
-0.356116
24.6915
-0.394765
24.9656
-0.433896
25.2444
-0.47349
25.5279
-0.513524
25.8161
-0.553978
26.1091
-0.594829
26.4068
-0.636053
26.7092
-0.677628
27.0165
-0.719529
27.3287
-0.761732
27.6457
-0.804212
27.9676
-0.846943
28.2944
-0.889901
28.6261
-0.933058
28.9629
-0.97639
29.3046
-1.01987
29.6513
-1.06347
30.0031
-1.10716
30.3599
-1.15091
30.7217
-1.19471
31.0886
-1.23852
31.4607
-1.2823
31.8376
-1.32605
32.22
-1.36971
32.6064
-1.41331
33.0012
-1.45664
33.3908
-1.50025
33.8172
-1.5423
-1.58846
34.1517
31.2588
1.67702
-32.0942
30.4131
1.60705
29.5583
1.53695
28.6947
1.46687
27.824
1.39698
26.9488
1.32753
26.074
1.25883
25.2065
1.19129
24.3566
1.12541
23.5368
1.06178
22.7618
1.00101
22.046
0.94365
21.4019
0.890112
20.8381
0.840591
20.3584
0.795044
19.9619
0.753221
19.6441
0.714714
19.3982
0.679036
19.216
0.645673
19.0893
0.614133
19.0102
0.583969
18.9717
0.554792
18.9677
0.526273
18.9929
0.498138
19.0429
0.470162
19.1142
0.442161
19.2037
0.413987
19.3089
0.385519
19.4279
0.356662
19.5589
0.327339
19.7006
0.297489
19.8518
0.267064
20.0116
0.236026
20.1792
0.204346
20.354
0.172004
20.5354
0.138985
20.723
0.105278
20.9166
0.070879
21.1156
0.0357857
21.32
0
21.5296
-0.0364734
21.7441
-0.0736273
21.9634
-0.111453
22.1875
-0.149938
22.4162
-0.189069
22.6496
-0.228833
22.8875
-0.269213
23.1299
-0.310192
23.3769
-0.351751
23.6283
-0.393871
23.8843
-0.43653
24.1447
-0.479708
24.4097
-0.523382
24.6792
-0.567529
24.9533
-0.612125
25.2319
-0.657146
25.5151
-0.702566
25.803
-0.748361
26.0955
-0.794502
26.3927
-0.840964
26.6945
-0.88772
27.0011
-0.934742
27.3124
-0.982001
27.6285
-1.02947
27.9494
-1.07712
28.2751
-1.12492
28.6056
-1.17284
28.9409
-1.22086
29.2811
-1.26894
29.6261
-1.31704
29.976
-1.36516
30.3309
-1.41324
30.6904
-1.46127
31.0552
-1.50919
31.4238
-1.55704
31.8005
-1.60459
32.1723
-1.65243
32.5788
-1.69857
-1.74912
32.899
29.6848
1.79808
-30.4919
28.8685
1.72228
28.0444
1.64643
27.2137
1.5707
26.3788
1.49534
25.5434
1.42067
24.7137
1.34709
23.8979
1.2751
23.1072
1.2053
22.3544
1.13833
21.6526
1.07479
21.0141
1.01517
20.4479
0.959754
19.959
0.908592
19.5483
0.8615
19.2128
0.818117
18.9469
0.777961
18.7438
0.740507
18.5959
0.705226
18.4959
0.67163
18.4368
0.639283
18.4128
0.607809
18.4187
0.576894
18.4499
0.546274
18.503
0.515733
18.5747
0.485095
18.6626
0.454218
18.7645
0.422984
18.8788
0.391302
19.004
0.359096
19.1389
0.326307
19.2825
0.292888
19.4341
0.258803
19.5929
0.224023
19.7584
0.188528
19.9302
0.152304
20.1078
0.115342
20.291
0.0776371
20.4794
0.0391889
20.6729
0
20.8714
-0.039924
21.0745
-0.0805751
21.2824
-0.121942
21.4948
-0.164014
21.7116
-0.206775
21.933
-0.250209
22.1587
-0.2943
22.3888
-0.339027
22.6232
-0.384372
22.862
-0.430312
23.1052
-0.476826
23.3527
-0.52389
23.6046
-0.57148
23.8608
-0.619571
24.1215
-0.668137
24.3866
-0.717152
24.6561
-0.766588
24.9301
-0.816418
25.2085
-0.866613
25.4915
-0.917144
25.779
-0.967983
26.071
-1.0191
26.3676
-1.07046
26.6688
-1.12204
26.9746
-1.1738
27.2851
-1.22572
27.6001
-1.27775
27.9199
-1.32988
28.2442
-1.38207
28.5733
-1.43428
28.907
-1.48648
29.2455
-1.53864
29.5885
-1.59073
29.9365
-1.64269
30.2882
-1.69457
30.6475
-1.74611
31.0025
-1.79795
31.3901
-1.84798
-1.90266
31.6966
28.1798
1.90805
-28.9587
27.393
1.82683
26.6002
1.74567
25.8033
1.6648
25.0057
1.58455
24.2124
1.5053
23.4305
1.42757
22.6694
1.35194
21.9404
1.27908
21.2556
1.20962
20.6264
1.14412
20.062
1.08295
19.5683
1.02625
19.1473
0.973905
18.7977
0.925617
18.5151
0.880932
18.2938
0.839322
18.1269
0.800238
18.0078
0.763159
17.9298
0.727605
17.8873
0.693161
17.875
0.659468
17.8886
0.626227
17.9245
0.593189
17.9795
0.560147
18.051
0.526936
18.1368
0.493417
18.2353
0.459481
18.3448
0.425037
18.4643
0.390014
18.5927
0.354355
18.729
0.318013
18.8728
0.280953
19.0232
0.24315
19.18
0.204584
19.3426
0.16524
19.5107
0.125112
19.6841
0.0841953
19.8625
0.0424899
20.0457
0
20.2337
-0.0432681
20.4262
-0.0873052
20.6231
-0.1321
20.8245
-0.177637
21.0301
-0.223903
21.2401
-0.270879
21.4543
-0.318547
21.6727
-0.366886
21.8953
-0.415875
22.1221
-0.465491
22.3532
-0.51571
22.5884
-0.566506
22.8279
-0.617855
23.0716
-0.669728
23.3195
-0.7221
23.5718
-0.77494
23.8283
-0.828221
24.0891
-0.881911
24.3542
-0.935982
24.6237
-0.990402
24.8975
-1.04514
25.1758
-1.10016
25.4584
-1.15544
25.7455
-1.21093
26.0369
-1.26661
26.3329
-1.32245
26.6333
-1.3784
26.9382
-1.43444
27.2475
-1.49053
27.5614
-1.54664
27.8797
-1.60272
28.2026
-1.65875
28.5299
-1.71469
28.8619
-1.77049
29.1976
-1.82619
29.5404
-1.88152
29.8792
-1.93714
30.2488
-1.99085
-2.04942
30.5423
26.7421
2.00749
-27.4928
25.9851
1.92129
25.2244
1.83531
24.4628
1.74986
23.7045
1.66533
22.9556
1.58222
22.2243
1.50112
21.5203
1.4227
20.8545
1.34763
20.2376
1.2765
19.6787
1.20977
19.184
1.14765
18.7566
1.09012
18.3963
1.03695
18.1001
0.987717
17.8632
0.941913
17.6796
0.898982
17.5433
0.858376
17.4481
0.819583
17.3885
0.782148
17.3594
0.745674
17.3566
0.709826
17.3763
0.67432
17.4155
0.638922
17.4716
0.603439
17.5423
0.567712
17.6258
0.531612
17.7206
0.495033
17.8255
0.45789
17.9394
0.420114
18.0615
0.38165
18.1909
0.342454
18.3272
0.302494
18.4697
0.261744
18.6181
0.220185
18.772
0.177805
18.9312
0.134598
19.0953
0.0905595
19.2642
0.0456921
19.4378
0
19.6158
-0.0465092
19.7982
-0.093825
19.9849
-0.141935
20.1758
-0.190824
20.3709
-0.240474
20.5701
-0.290869
20.7734
-0.341987
20.9807
-0.393806
21.1922
-0.446304
21.4077
-0.499455
21.6272
-0.553236
21.8509
-0.607618
22.0786
-0.662575
22.3104
-0.718078
22.5463
-0.774097
22.7863
-0.830603
23.0304
-0.887565
23.2788
-0.94495
23.5312
-1.00273
23.7879
-1.06086
24.0488
-1.11932
24.3139
-1.17807
24.5833
-1.23708
24.8569
-1.29631
25.1348
-1.35573
25.417
-1.4153
25.7034
-1.47498
25.9942
-1.53474
26.2893
-1.59454
26.5887
-1.65435
26.8924
-1.71412
27.2004
-1.77382
27.5127
-1.83342
27.8296
-1.89286
28.1499
-1.95217
28.4771
-2.01109
28.8006
-2.07029
29.1531
-2.12748
-2.18972
29.4341
25.3701
2.09699
-26.0923
24.6437
2.00628
23.9164
1.91601
23.1917
1.82659
22.4749
1.73848
21.7731
1.65228
21.0947
1.56866
20.4495
1.48829
19.8473
1.41183
19.2967
1.33976
18.8043
1.2724
18.3739
1.20981
18.0063
1.15182
17.6994
1.09806
17.4496
1.04806
17.2517
1.00125
17.1002
0.957092
16.9894
0.915033
16.9142
0.87459
16.8696
0.835329
16.8515
0.796881
16.8562
0.75893
16.8807
0.721212
16.9222
0.683509
16.9786
0.645638
17.0481
0.607452
17.129
0.568827
17.2201
0.529664
17.3204
0.489881
17.4289
0.449415
17.5449
0.408211
17.6677
0.36623
17.7968
0.32344
17.9319
0.279817
18.0724
0.235343
18.2181
0.190008
18.3688
0.143806
18.5242
0.0967355
18.6841
0.0487981
18.8485
0
19.0172
-0.0496502
19.19
-0.100141
19.367
-0.151459
19.548
-0.203587
19.7331
-0.256508
19.9221
-0.310202
20.1151
-0.364647
20.312
-0.41982
20.5129
-0.475697
20.7177
-0.532251
20.9263
-0.589456
21.139
-0.647285
21.3555
-0.705706
21.576
-0.764692
21.8005
-0.82421
22.029
-0.884228
22.2614
-0.944714
22.4979
-1.00564
22.7384
-1.06696
22.9829
-1.12864
23.2315
-1.19066
23.4841
-1.25297
23.7409
-1.31554
24.0017
-1.37834
24.2667
-1.44131
24.5358
-1.50444
24.809
-1.56767
25.0863
-1.63097
25.3678
-1.6943
25.6535
-1.75762
25.9433
-1.8209
26.2372
-1.88409
26.5352
-1.94716
26.8376
-2.01005
27.1434
-2.07278
27.4557
-2.1351
27.7646
-2.19768
28.1008
-2.25819
-2.32387
28.3699
24.0628
2.17716
-24.7557
23.3681
2.08247
22.6756
1.98852
21.9899
1.8958
21.317
1.80487
20.6644
1.71641
20.0408
1.63109
19.455
1.5496
18.9152
1.47248
18.4281
1.4001
17.9978
1.3326
17.6257
1.2699
17.3111
1.21168
17.0509
1.1575
16.8409
1.10683
16.6761
1.0591
16.5516
1.01377
16.4622
0.970303
16.4035
0.928252
16.3713
0.88721
16.362
0.846831
16.3727
0.806824
16.4007
0.766942
16.4437
0.726982
16.4999
0.686775
16.5678
0.646181
16.646
0.605086
16.7334
0.563395
16.8291
0.521032
16.9324
0.477936
17.0426
0.434057
17.1591
0.389358
17.2814
0.343807
17.4093
0.297383
17.5423
0.250071
17.6803
0.20186
17.823
0.152746
17.9701
0.102729
18.1216
0.0518111
18.2773
0
18.4371
-0.0526947
18.601
-0.106261
18.7688
-0.160682
18.9405
-0.215943
19.1161
-0.272023
19.2955
-0.328902
19.4787
-0.386556
19.6658
-0.444962
19.8566
-0.504093
20.0512
-0.563923
20.2496
-0.624422
20.4518
-0.685562
20.6578
-0.747311
20.8676
-0.809639
21.0812
-0.872512
21.2987
-0.935897
21.5201
-0.99976
21.7453
-1.06407
21.9744
-1.12878
22.2074
-1.19386
22.4443
-1.25928
22.6851
-1.32499
22.9298
-1.39096
23.1786
-1.45715
23.4312
-1.52352
23.6879
-1.59003
23.9485
-1.65664
24.2131
-1.72331
24.4817
-1.79
24.7542
-1.85666
25.0308
-1.92327
25.3113
-1.98977
25.5958
-2.05613
25.8844
-2.12229
26.1763
-2.18827
26.4744
-2.25381
26.7694
-2.3196
27.0901
-2.38323
-2.45217
27.3479
22.8193
2.24868
-23.4821
22.1576
2.1506
21.5018
2.05363
20.8572
1.95836
20.2304
1.86542
19.6289
1.77552
19.0608
1.68933
18.5338
1.60745
18.0543
1.53031
17.6267
1.45812
17.2531
1.39085
16.9333
1.32827
16.6651
1.26998
16.4452
1.21548
16.2692
1.1642
16.1325
1.11558
16.0306
1.0691
15.959
1.02426
15.9139
0.98063
15.8918
0.937839
15.8897
0.895567
15.905
0.853543
15.9355
0.811541
15.9794
0.769371
16.035
0.726875
16.101
0.683924
16.1763
0.640411
16.26
0.596247
16.3513
0.551362
16.4495
0.505697
16.5541
0.459206
16.6646
0.411852
16.7805
0.363609
16.9016
0.314456
17.0276
0.264379
17.1582
0.21337
17.2933
0.161425
17.4326
0.108545
17.5761
0.0547337
17.7236
0
17.8751
-0.0556455
18.0304
-0.112189
18.1895
-0.169615
18.3525
-0.227904
18.5191
-0.287037
18.6894
-0.346991
18.8634
-0.407741
19.0411
-0.469264
19.2224
-0.53153
19.4074
-0.594512
19.596
-0.65818
19.7884
-0.722503
19.9844
-0.787449
20.184
-0.852985
20.3874
-0.919077
20.5945
-0.98569
20.8053
-1.05279
21.0198
-1.12033
21.2381
-1.18829
21.4601
-1.25662
21.6859
-1.32529
21.9155
-1.39425
22.1489
-1.46346
22.3861
-1.53289
22.6271
-1.60249
22.8719
-1.67223
23.1205
-1.74206
23.373
-1.81193
23.6293
-1.88182
23.8894
-1.95166
24.1533
-2.02143
24.4211
-2.09107
24.6927
-2.16056
24.9682
-2.22982
25.2469
-2.29888
25.5315
-2.36746
25.8132
-2.43629
26.1192
-2.50289
-2.57488
26.3662
21.6391
2.3123
-22.2705
21.0121
2.21148
20.395
2.11223
19.7935
2.01519
19.2144
1.92106
18.665
1.83053
18.1523
1.74422
17.6824
1.66261
17.2598
1.58596
16.887
1.51432
16.5644
1.44752
16.2906
1.38522
16.0629
1.32694
15.8776
1.27215
15.7304
1.22028
15.6174
1.17078
15.5343
1.12316
15.4775
1.07696
15.4436
1.03177
15.4298
0.987261
15.4333
0.943127
15.4522
0.899123
15.4845
0.85504
15.5286
0.810702
15.5832
0.765964
15.6472
0.720705
15.7196
0.674825
15.7996
0.628243
15.8866
0.580891
15.9799
0.532715
16.0791
0.483673
16.1838
0.43373
16.2937
0.382862
16.4084
0.33105
16.5276
0.278281
16.6513
0.224548
16.7792
0.16985
16.9112
0.114189
17.0471
0.0575688
17.1869
-1.16595e-07
17.3305
-0.0585056
17.4777
-0.117934
17.6287
-0.178267
17.7833
-0.239485
17.9414
-0.301567
18.1031
-0.36449
18.2684
-0.428228
18.4372
-0.492755
18.6096
-0.558042
18.7854
-0.624059
18.9649
-0.690776
19.1478
-0.75816
19.3343
-0.826177
19.5244
-0.894794
19.718
-0.963974
19.9152
-1.03368
20.116
-1.10388
20.3204
-1.17453
20.5284
-1.24559
20.74
-1.31703
20.9553
-1.3888
21.1742
-1.46086
21.3968
-1.53317
21.623
-1.60569
21.8529
-1.67838
22.0865
-1.75119
22.3237
-1.82408
22.5646
-1.89701
22.8093
-1.96993
23.0575
-2.0428
23.3095
-2.11557
23.5651
-2.1882
23.8244
-2.26065
24.0875
-2.33285
24.3536
-2.40483
24.6253
-2.4763
24.8945
-2.548
25.1864
-2.61741
-2.69228
25.423
20.522
2.36883
-21.1204
19.9314
2.26598
19.3548
2.16523
18.7982
2.06725
18.2679
1.97274
17.7706
1.88233
17.3118
1.79655
16.8962
1.71571
16.5264
1.63992
16.2032
1.56909
15.926
1.50291
15.6924
1.44095
15.4996
1.38271
15.3437
1.32762
15.221
1.27515
15.1277
1.22477
15.0604
1.17601
15.0158
1.12845
14.9911
1.08172
14.9839
1.03551
14.992
0.989544
15.0134
0.943593
15.0468
0.897466
15.0907
0.851001
15.1441
0.804066
15.2059
0.756546
15.2753
0.70835
15.3517
0.659401
15.4345
0.609638
15.5232
0.55901
15.6173
0.507476
15.7165
0.455007
15.8206
0.401579
15.9292
0.347176
16.0421
0.291785
16.1592
0.235404
16.2803
0.178029
16.4053
0.119665
16.5341
0.0603188
16.6666
0
16.8027
-0.0612782
16.9424
-0.1235
17.0856
-0.186646
17.2323
-0.250697
17.3824
-0.31563
17.536
-0.381421
17.693
-0.448042
17.8534
-0.515466
18.0173
-0.583664
18.1845
-0.652604
18.3552
-0.722254
18.5293
-0.792581
18.7068
-0.86355
18.8877
-0.935125
19.0721
-1.00727
19.2599
-1.07995
19.4512
-1.15311
19.646
-1.22674
19.8443
-1.30077
20.046
-1.37518
20.2513
-1.44992
20.46
-1.52494
20.6723
-1.60021
20.8882
-1.67569
21.1075
-1.75132
21.3304
-1.82706
21.5568
-1.90287
21.7867
-1.9787
22.0202
-2.05451
22.2573
-2.13025
22.4978
-2.20588
22.7419
-2.28134
22.9895
-2.3566
23.2407
-2.43159
23.4949
-2.50634
23.7543
-2.58055
24.0115
-2.65496
24.2901
-2.72704
-2.80461
24.5168
19.4676
2.41915
-20.0315
18.9153
2.31505
18.3809
2.21359
17.8701
2.11547
17.3889
2.02133
16.9426
1.9317
16.5355
1.84697
16.1704
1.76729
15.8487
1.69262
15.5699
1.62273
15.3324
1.55722
15.1337
1.49562
14.9707
1.43739
14.8398
1.38199
14.7376
1.32889
14.661
1.2776
14.6067
1.22769
14.5722
1.17878
14.5551
1.13052
14.5531
1.08262
14.5647
1.03485
14.5881
0.98698
14.622
0.938844
14.6654
0.890294
14.7173
0.841203
14.7768
0.791469
14.8433
0.741005
14.9161
0.689742
14.9948
0.637621
15.079
0.584597
15.1683
0.530632
15.2623
0.475699
15.3608
0.419775
15.4636
0.362847
15.5706
0.304905
15.6815
0.245945
15.7962
0.185969
15.9146
0.12498
16.0366
0.0629865
16.1622
0
16.2913
-0.0639654
16.4238
-0.128893
16.5596
-0.194763
16.6989
-0.261554
16.8414
-0.329242
16.9873
-0.397802
17.1365
-0.467206
17.289
-0.537424
17.4448
-0.608427
17.6039
-0.680183
17.7662
-0.752656
17.9319
-0.825814
18.1009
-0.89962
18.2732
-0.974037
18.4488
-1.04903
18.6277
-1.12455
18.81
-1.20057
18.9957
-1.27704
19.1847
-1.35392
19.377
-1.43117
19.5728
-1.50875
19.7719
-1.5866
19.9744
-1.6647
20.1804
-1.74299
20.3897
-1.82142
20.6024
-1.89996
20.8185
-1.97855
21.038
-2.05715
21.2609
-2.13571
21.4873
-2.21418
21.717
-2.29252
21.9501
-2.37068
22.1865
-2.44861
22.4265
-2.52624
22.6692
-2.60361
22.917
-2.68042
23.1628
-2.75739
23.4287
-2.832
-2.91212
23.646
18.4758
2.46422
-19.0036
17.9633
2.35965
17.4721
2.25829
17.0076
2.16076
16.5746
2.06764
16.1773
1.97933
15.8186
1.89604
15.4999
1.81778
15.2214
1.74436
14.9817
1.67546
14.7788
1.61062
14.6101
1.54933
14.4724
1.49107
14.3626
1.4353
14.2777
1.38153
14.2149
1.32931
14.1715
1.27825
14.1453
1.22797
14.1342
1.17819
14.1365
1.12863
14.1507
1.07906
14.1754
1.02931
14.2095
0.9792
14.2521
0.928601
14.3023
0.877397
14.3595
0.825494
14.423
0.772811
14.4924
0.719284
14.5672
0.66486
14.6471
0.609495
14.7317
0.553157
14.8207
0.495819
14.9141
0.437462
15.0114
0.378075
15.1127
0.317649
15.2177
0.256182
15.3264
0.193676
15.4386
0.130137
15.5542
0.0655743
15.6733
0
15.7957
-0.0665705
15.9213
-0.134119
16.0503
-0.202625
16.1825
-0.272067
16.3179
-0.342418
16.4565
-0.413653
16.5983
-0.485743
16.7432
-0.558657
16.8914
-0.632364
17.0427
-0.706831
17.1972
-0.782023
17.3549
-0.857904
17.5158
-0.934438
17.6799
-1.01158
17.8472
-1.08931
18.0177
-1.16756
18.1915
-1.24631
18.3684
-1.32551
18.5486
-1.40512
18.7321
-1.48509
18.9188
-1.56538
19.1088
-1.64594
19.302
-1.72674
19.4985
-1.80771
19.6983
-1.88883
19.9014
-1.97003
20.1077
-2.05127
20.3173
-2.1325
20.5301
-2.21368
20.7463
-2.29475
20.9656
-2.37567
21.1883
-2.45638
21.4141
-2.53685
21.6433
-2.61699
21.8753
-2.69684
22.112
-2.7761
22.3468
-2.85551
22.6006
-2.93251
-3.01502
22.809
17.5462
2.50499
-18.0364
17.0745
2.40075
16.6269
2.30022
16.208
2.20395
15.8216
2.11239
15.4705
2.02578
15.1564
1.94419
14.8795
1.86747
14.6392
1.79536
14.4337
1.72743
14.2607
1.6632
14.1175
1.60216
14.0013
1.54379
13.9094
1.4876
13.8389
1.43312
13.7876
1.37994
13.7532
1.3277
13.7338
1.27606
13.7276
1.22476
13.7333
1.17354
13.7494
1.12222
13.7748
1.07061
13.8088
1.01856
13.8503
0.965946
13.8988
0.912671
13.9536
0.858642
14.0142
0.803788
14.0803
0.748046
14.1513
0.691371
14.227
0.63372
14.3072
0.575066
14.3916
0.515383
14.4799
0.454655
14.5721
0.392872
14.668
0.330028
14.7675
0.266122
14.8704
0.201158
14.9767
0.135142
15.0864
0.0680847
15.1992
0
15.3153
-0.0690957
15.4346
-0.139184
15.557
-0.210242
15.6825
-0.282247
15.8111
-0.355173
15.9428
-0.428992
16.0776
-0.503674
16.2155
-0.579189
16.3564
-0.655504
16.5004
-0.732583
16.6474
-0.810393
16.7976
-0.888894
16.9508
-0.96805
17.1071
-1.04782
17.2665
-1.12816
17.429
-1.20904
17.5947
-1.29041
17.7634
-1.37223
17.9353
-1.45444
18.1103
-1.53702
18.2884
-1.61991
18.4697
-1.70306
18.6541
-1.78643
18.8416
-1.86998
19.0323
-1.95364
19.2262
-2.03738
19.4232
-2.12115
19.6234
-2.20489
19.8266
-2.28856
20.0331
-2.3721
20.2426
-2.45547
20.4553
-2.53861
20.6711
-2.62148
20.8901
-2.70401
21.1116
-2.78622
21.3378
-2.86781
21.5623
-2.94951
21.8046
-3.02879
-3.11354
22.0044
16.6779
2.54246
-17.1295
16.2474
2.43928
15.843
2.34023
15.4682
2.24575
15.1258
2.15614
14.8175
2.0715
14.5438
1.99173
14.3042
1.91661
14.0974
1.84576
13.9215
1.77873
13.7741
1.71503
13.6526
1.65415
13.5546
1.5956
13.4776
1.53892
13.4193
1.48368
13.3775
1.42951
13.3505
1.37607
13.3366
1.32307
13.3344
1.27025
13.3426
1.2174
13.3601
1.16433
13.3859
1.11089
13.4194
1.05693
13.4597
1.00235
13.5064
0.947044
13.5588
0.890934
13.6166
0.833953
13.6794
0.776047
13.7468
0.717171
13.8186
0.657289
13.8946
0.596374
13.9745
0.534404
14.0581
0.471366
14.1454
0.40725
14.2362
0.342053
14.3304
0.275775
14.428
0.20842
14.5287
0.139998
14.6326
0.0705199
14.7397
-1.16495e-07
14.8498
-0.0715438
14.963
-0.144091
15.0792
-0.21762
15.1984
-0.292106
15.3206
-0.367521
15.4458
-0.443837
15.5739
-0.521023
15.705
-0.599047
15.8391
-0.677875
15.9762
-0.757472
16.1162
-0.837802
16.2591
-0.918825
16.4051
-1.0005
16.554
-1.08279
16.7059
-1.16566
16.8609
-1.24905
17.0188
-1.33293
17.1797
-1.41726
17.3436
-1.50198
17.5106
-1.58704
17.6805
-1.67242
17.8535
-1.75805
18.0296
-1.84388
18.2086
-1.92988
18.3907
-2.01598
18.5758
-2.10214
18.764
-2.18832
18.9551
-2.27445
19.1493
-2.36049
19.3465
-2.44638
19.5467
-2.53208
19.7499
-2.61753
19.9561
-2.70269
20.1653
-2.78747
20.3771
-2.87191
20.5932
-2.95571
20.8078
-3.03959
21.0392
-3.12101
-3.20789
21.2307
15.8694
2.57756
-16.2821
15.4798
2.47608
15.1173
2.37904
14.7844
2.28676
14.483
2.19936
14.2135
2.11681
13.9759
2.0389
13.7691
1.96533
13.5915
1.89566
13.441
1.82943
13.3154
1.76614
13.2124
1.70533
13.1297
1.64651
13.0652
1.58928
13.017
1.53323
12.9832
1.47804
12.9623
1.42338
12.9528
1.36901
12.9537
1.31469
12.9638
1.26022
12.9822
1.20543
13.0082
1.15019
13.041
1.09435
13.08
1.03783
13.1248
0.980536
13.1748
0.922387
13.2299
0.863327
13.2895
0.803304
13.3534
0.742279
13.4215
0.680218
13.4934
0.617097
13.5691
0.552897
13.6483
0.487607
13.731
0.42122
13.8169
0.353732
13.9062
0.285147
13.9986
0.21547
14.0941
0.144711
14.1926
0.0728821
14.2941
0
14.3987
-0.073917
14.5061
-0.148848
14.6164
-0.224768
14.7297
-0.301654
14.8458
-0.379475
14.9648
-0.458204
15.0867
-0.537808