/*--------------------------------*- C++ -*----------------------------------*\
| =========                 |                                                 |
| \\      /  F ield         | OpenFOAM: The Open Source CFD Toolbox           |
|  \\    /   O peration     | Version:  2312                                  |
|   \\  /    A nd           | Website:  www.openfoam.com                      |
|    \\/     M anipulation  |                                                 |
\*---------------------------------------------------------------------------*/
FoamFile
{
    version     2.0;
    format      ascii;
    arch        "LSB;label=32;scalar=64";
    class       surfaceScalarField;
    location    "0.396";
    object      phi;
}
// * * * * * * * * * * * * * * * * * * * * * * * * * * * * * * * * * * * * * //

dimensions      [0 3 -1 0 0 0 0];

oriented        oriented;

internalField   nonuniform List<scalar> 
62015
(
44.8988
0.0874953
-46.0296
43.7484
0.0836955
42.5799
0.0799041
41.3953
0.0761297
40.1978
0.0723844
38.9933
0.0686823
37.7904
0.0650428
36.6022
0.0614894
35.4464
0.0580518
34.3453
0.0547627
33.3236
0.0516561
32.4057
0.0487607
31.6113
0.0460953
30.953
0.043665
30.4345
0.0414602
30.0517
0.0394595
29.7947
0.0376341
29.6499
0.0359515
29.6025
0.0343794
29.6381
0.0328883
29.7433
0.0314522
29.9064
0.0300488
30.1176
0.0286602
30.3684
0.0272715
30.652
0.0258706
30.9626
0.0244483
31.2957
0.0229968
31.6475
0.0215103
32.0149
0.0199843
32.3953
0.0184149
32.7866
0.0167995
33.1872
0.0151362
33.5956
0.0134234
34.0107
0.0116598
34.4314
0.00984523
34.8571
0.00797884
35.2871
0.00606095
35.7207
0.00409168
36.1576
0.00207105
36.5974
0
37.0397
-0.00212099
37.4843
-0.00429135
37.931
-0.00650972
38.3795
-0.00877545
38.8299
-0.0110875
39.2819
-0.0134443
39.7354
-0.0158452
40.1904
-0.0182883
40.6469
-0.0207727
41.1048
-0.0232969
41.564
-0.0258593
42.0245
-0.0284584
42.4864
-0.0310927
42.9496
-0.0337608
43.4141
-0.0364607
43.88
-0.0391912
44.3472
-0.0419501
44.8158
-0.0447361
45.2858
-0.0475474
45.7571
-0.050382
46.2299
-0.0532383
46.7041
-0.0561145
47.1798
-0.0590085
47.657
-0.0619187
48.1357
-0.0648433
48.6159
-0.0677802
49.0976
-0.0707275
49.5809
-0.0736834
50.0658
-0.076646
50.5523
-0.0796132
51.0404
-0.0825832
51.5302
-0.0855536
52.0214
-0.0885236
52.515
-0.091489
53.0081
-0.0944531
53.5093
-0.0973988
53.9927
-0.10037
54.5376
-0.103222
-0.106399
54.901
42.4691
0.167969
-43.5573
41.3632
0.160604
40.2427
0.153267
39.1106
0.145979
37.9716
0.138768
36.8336
0.131668
35.7074
0.124724
34.6082
0.117989
33.5553
0.111522
32.5704
0.105388
31.6758
0.099642
30.8905
0.0943243
30.2277
0.0894514
29.6932
0.0850129
29.2854
0.0809757
28.9971
0.0772902
28.817
0.0738977
28.7323
0.070738
28.7295
0.067754
28.7963
0.0648945
28.9215
0.0621152
29.0954
0.0593791
29.3097
0.0566557
29.5576
0.05392
29.8335
0.0511521
30.1326
0.0483362
30.4511
0.0454591
30.7858
0.0425112
31.1341
0.0394842
31.494
0.0363725
31.8635
0.0331709
32.2414
0.0298761
32.6263
0.0264856
33.0173
0.0229978
33.4135
0.0194113
33.8143
0.015726
34.219
0.0119415
34.6272
0.00805846
35.0385
0.00407764
35.4525
0
35.869
-0.00417313
36.2877
-0.0084402
36.7085
-0.0127996
37.1312
-0.0172492
37.5556
-0.0217869
37.9817
-0.0264106
38.4094
-0.0311175
38.8386
-0.0359059
39.2693
-0.0407724
39.7014
-0.0457148
40.1348
-0.0507298
40.5697
-0.055815
41.0059
-0.0609671
41.4435
-0.0661832
41.8825
-0.07146
42.3229
-0.0767945
42.7646
-0.0821834
43.2077
-0.0876232
43.6523
-0.0931107
44.0982
-0.0986426
44.5456
-0.104215
44.9945
-0.109825
45.4449
-0.115469
45.8967
-0.121143
46.3501
-0.126843
46.805
-0.132566
47.2615
-0.138309
47.7195
-0.144067
48.1792
-0.149837
48.6404
-0.155615
49.1033
-0.161397
49.5678
-0.16718
50.0338
-0.17296
50.502
-0.178731
50.97
-0.184497
51.4456
-0.190229
51.9047
-0.196006
52.4211
-0.201558
-0.20772
52.77
40.1006
0.241526
-41.1466
39.0402
0.230839
37.9696
0.220218
36.8932
0.209699
35.8177
0.199334
34.7528
0.189181
33.7118
0.179314
32.7112
0.169818
31.7705
0.16078
30.9092
0.15228
30.1452
0.144378
29.4913
0.137104
28.9542
0.130453
28.5344
0.124385
28.2264
0.118836
28.0212
0.11373
27.9076
0.108982
27.8738
0.104512
27.9083
0.100244
28.0006
0.0961143
28.1415
0.0920665
28.3231
0.0880544
28.5386
0.0840401
28.7824
0.0799922
29.05
0.0758861
29.3374
0.0717011
29.6415
0.0674216
29.9597
0.0630346
30.2899
0.0585303
30.6301
0.0539008
30.979
0.0491402
31.3353
0.0442441
31.698
0.0392092
32.0662
0.0340336
32.4392
0.0287157
32.8163
0.0232555
33.1972
0.0176529
33.5814
0.0119085
33.9684
0.00602367
34.3582
0
34.7503
-0.0061606
35.1445
-0.0124558
35.5408
-0.0188833
35.939
-0.0254398
36.339
-0.0321225
36.7406
-0.0389283
37.1438
-0.0458533
37.5485
-0.0528943
37.9547
-0.0600473
38.3624
-0.0673084
38.7715
-0.0746736
39.1821
-0.0821386
39.594
-0.089699
40.0073
-0.0973505
40.422
-0.105089
40.8382
-0.112909
41.2557
-0.120806
41.6747
-0.128775
42.0951
-0.136813
42.517
-0.144912
42.9403
-0.15307
43.3651
-0.16128
43.7914
-0.169537
44.2192
-0.177837
44.6486
-0.186173
45.0795
-0.194542
45.5119
-0.202936
45.946
-0.211352
46.3816
-0.219783
46.8188
-0.228224
47.2577
-0.236671
47.6982
-0.245116
48.1401
-0.253555
48.5843
-0.261981
49.0283
-0.270398
49.4795
-0.278763
49.9155
-0.287192
50.4049
-0.295299
-0.304269
50.7386
37.8258
0.308471
-38.8285
36.8128
0.294723
35.7952
0.281101
34.779
0.267665
33.7728
0.254492
32.7885
0.241672
31.8405
0.229309
30.9459
0.217511
30.1223
0.206379
29.3857
0.195991
28.7483
0.186389
28.2173
0.177575
27.794
0.16951
27.4747
0.162121
27.2522
0.155316
27.1169
0.148993
27.0582
0.143051
27.0658
0.137395
27.1299
0.13194
27.242
0.126615
27.3943
0.121356
27.5806
0.116112
27.7953
0.110842
28.0339
0.105511
28.2927
0.100091
28.5685
0.09456
28.8586
0.0888994
29.161
0.0830952
29.4737
0.0771362
29.7954
0.0710135
30.1248
0.0647205
30.4608
0.0582525
30.8025
0.0516057
31.1492
0.0447782
31.5003
0.0377682
31.8553
0.030576
32.2138
0.0232016
32.5753
0.0156464
32.9396
0.00791175
33.3065
0
33.6756
-0.00808629
34.0469
-0.0163441
34.4201
-0.0247701
34.7952
-0.0333604
35.172
-0.0421116
35.5505
-0.0510188
35.9306
-0.060078
36.3123
-0.0692843
36.6954
-0.0786328
37.0801
-0.0881186
37.4661
-0.0977364
37.8537
-0.10748
38.2426
-0.117346
38.633
-0.127326
39.0248
-0.137416
39.418
-0.14761
39.8126
-0.1579
40.2087
-0.168283
40.6063
-0.17875
41.0053
-0.189295
41.4058
-0.199913
41.8078
-0.210597
42.2113
-0.221339
42.6163
-0.232134
43.0228
-0.242974
43.4309
-0.253854
43.8406
-0.264765
44.2518
-0.275701
44.6647
-0.286655
45.0791
-0.297621
45.4951
-0.30859
45.9128
-0.319557
46.3319
-0.330514
46.7532
-0.341451
47.1744
-0.352375
47.6025
-0.36323
48.0163
-0.374164
48.4803
-0.384686
-0.396302
48.7985
35.6589
0.369187
-36.616
34.6966
0.352664
33.7364
0.336357
32.7862
0.320356
31.8563
0.304767
30.9597
0.28971
30.1114
0.275309
29.3271
0.261683
28.6211
0.248926
28.0049
0.237091
27.4853
0.226189
27.0646
0.216181
26.7402
0.206992
26.5062
0.198518
26.3545
0.190645
26.2759
0.183254
26.2611
0.176234
26.3011
0.169483
26.3878
0.162912
26.5142
0.156445
26.6741
0.150017
26.8624
0.143577
27.0745
0.13708
27.3068
0.13049
27.5563
0.123778
27.8203
0.116921
28.0967
0.109899
28.3838
0.102699
28.6799
0.095308
28.984
0.0877167
29.2948
0.0799183
29.6116
0.0719079
29.9335
0.0636816
30.2601
0.0552376
30.5906
0.0465745
30.9248
0.0376924
31.2621
0.0285922
31.6024
0.0192751
31.9453
0.00974342
32.2906
0
32.6381
-0.00995201
32.9877
-0.020109
33.3392
-0.0304668
33.6925
-0.0410206
34.0476
-0.0517662
34.4043
-0.062698
34.7627
-0.0738108
35.1226
-0.0850986
35.4839
-0.0965558
35.8468
-0.108176
36.2112
-0.119954
36.577
-0.131881
36.9442
-0.143952
37.3129
-0.15616
37.683
-0.168498
38.0545
-0.180958
38.4275
-0.193533
38.802
-0.206216
39.1779
-0.218999
39.5553
-0.231874
39.9342
-0.244834
40.3145
-0.257871
40.6964
-0.270977
41.0798
-0.284143
41.4647
-0.297362
41.8512
-0.310625
42.2392
-0.323924
42.6288
-0.337252
43.02
-0.350598
43.4128
-0.363955
43.8071
-0.377315
44.2031
-0.390668
44.6005
-0.404008
45.0001
-0.41732
45.3997
-0.430614
45.8057
-0.443824
46.1985
-0.457124
46.6385
-0.469929
-0.484038
46.9415
33.6061
0.424104
-34.5145
32.699
0.405127
31.8019
0.386494
30.9241
0.368325
30.0773
0.350753
29.2748
0.333918
28.5302
0.31795
27.8567
0.302956
27.2644
0.289002
26.7602
0.276104
26.3465
0.264227
26.0216
0.253294
25.7809
0.243197
25.6174
0.23381
25.5232
0.225002
25.4897
0.216648
25.5091
0.208631
25.5737
0.200848
25.6771
0.193211
25.8133
0.185642
25.9775
0.178079
26.1654
0.170468
26.3734
0.162766
26.5985
0.154937
26.8382
0.146953
27.0905
0.138789
27.3535
0.130428
27.6257
0.121852
27.906
0.113051
28.1932
0.104016
28.4865
0.0947393
28.7851
0.0852159
29.0884
0.0754427
29.3959
0.0654177
29.7071
0.0551399
30.0216
0.0446096
30.3391
0.0338282
30.6593
0.0227976
30.9821
0.0115204
31.3071
0
31.6343
-0.0117597
31.9635
-0.0237545
32.2946
-0.0359793
32.6274
-0.0484291
32.962
-0.0610978
33.2982
-0.0739801
33.636
-0.0870691
33.9754
-0.100358
34.3162
-0.113841
34.6586
-0.12751
35.0024
-0.141358
35.3477
-0.155378
35.6944
-0.169561
36.0426
-0.183899
36.3922
-0.198385
36.7433
-0.21301
37.0958
-0.227765
37.4498
-0.242643
37.8052
-0.257633
38.1622
-0.272728
38.5206
-0.287918
38.8805
-0.303194
39.2419
-0.318546
39.6048
-0.333966
39.9692
-0.349444
40.3352
-0.364971
40.7027
-0.380536
41.0718
-0.39613
41.4424
-0.411744
41.8147
-0.427367
42.1884
-0.44299
42.5638
-0.458603
42.9407
-0.474197
43.3196
-0.489756
43.6986
-0.505291
44.0837
-0.520726
44.4565
-0.53626
44.8738
-0.551224
-0.567678
45.1619
31.6711
0.473701
-32.5263
30.8246
0.452636
29.9968
0.432081
29.198
0.412181
28.4401
0.393087
27.7354
0.374942
27.0952
0.357859
26.529
0.341914
26.0429
0.32713
25.6396
0.313475
25.3181
0.300872
25.0746
0.289211
24.9032
0.278358
24.797
0.268175
24.7485
0.258524
24.7504
0.249277
24.7959
0.240318
24.8789
0.231548
24.994
0.222878
25.1364
0.214236
25.3021
0.205561
25.4878
0.1968
25.6904
0.187913
25.9077
0.178864
26.1374
0.169625
26.378
0.160174
26.6278
0.15049
26.8858
0.14056
27.1508
0.130373
27.422
0.119918
27.6987
0.10919
27.9801
0.0981834
28.2658
0.0868953
28.5553
0.0753241
28.8482
0.0634698
29.1442
0.0513323
29.4431
0.0389139
29.7445
0.0262167
30.0483
0.0132442
30.3542
0
30.6623
-0.0135112
30.9723
-0.0272843
31.2841
-0.0413139
31.5977
-0.0555938
31.9129
-0.070118
32.2298
-0.0848791
32.5483
-0.0998703
32.8683
-0.115084
33.1898
-0.130513
33.5128
-0.146148
33.8372
-0.161982
34.1632
-0.178006
34.4905
-0.194211
34.8193
-0.210587
35.1496
-0.227127
35.4813
-0.24382
35.8145
-0.260657
36.1491
-0.277627
36.4852
-0.294722
36.8227
-0.311931
37.1618
-0.329244
37.5023
-0.34665
37.8443
-0.364139
38.1878
-0.381701
38.5329
-0.399325
38.8794
-0.417
39.2275
-0.434715
39.5771
-0.45246
39.9283
-0.470223
40.281
-0.487992
40.6353
-0.505759
40.9911
-0.52351
41.3484
-0.541237
41.7077
-0.558921
42.0672
-0.576574
42.4325
-0.594111
42.7862
-0.611754
43.1819
-0.628757
-0.647419
43.456
29.8571
0.518523
-30.6539
29.0771
0.49578
28.3247
0.473745
27.6103
0.452578
26.9449
0.432427
26.3386
0.413415
25.7997
0.395621
25.3339
0.379075
24.9437
0.363747
24.6287
0.349564
24.3857
0.336412
24.2098
0.324156
24.0949
0.312649
24.0345
0.301746
24.022
0.29131
24.0511
0.281215
24.1163
0.271351
24.2126
0.261621
24.3354
0.251944
24.481
0.24225
24.6462
0.232481
24.8282
0.222588
25.0247
0.212532
25.2336
0.202279
25.4532
0.191802
25.6822
0.18108
25.9193
0.170094
26.1635
0.158831
26.414
0.147279
26.67
0.135429
26.9308
0.123277
27.196
0.110817
27.4651
0.0980459
27.7376
0.0849636
28.0133
0.0715699
28.2919
0.0578657
28.5732
0.0438532
28.8568
0.0295354
29.1428
0.0149162
29.4308
0
29.7208
-0.015208
30.0128
-0.0307022
30.3064
-0.0464764
30.6019
-0.0625238
30.8989
-0.0788373
31.1976
-0.0954091
31.4978
-0.112232
31.7996
-0.129296
32.1028
-0.146595
32.4075
-0.164118
32.7137
-0.181856
33.0214
-0.199801
33.3305
-0.217942
33.641
-0.236268
33.953
-0.254772
34.2664
-0.27344
34.5813
-0.292264
34.8976
-0.311232
35.2154
-0.330333
35.5346
-0.349556
35.8553
-0.36889
36.1775
-0.388324
36.5011
-0.407845
36.8263
-0.427443
37.1529
-0.447105
37.4811
-0.466819
37.8108
-0.486574
38.1419
-0.506358
38.4746
-0.526158
38.8089
-0.545962
39.1446
-0.565758
39.482
-0.585533
39.8207
-0.605277
40.1614
-0.624969
40.5023
-0.644624
40.8487
-0.664146
41.1844
-0.68378
41.5596
-0.70271
-0.723448
41.8203
28.1674
0.559184
-28.9001
27.4596
0.535211
26.7875
0.51216
26.1608
0.490185
25.5884
0.469411
25.0776
0.449923
24.6336
0.431751
24.2587
0.414871
23.9527
0.399209
23.7131
0.384653
23.5356
0.371066
23.415
0.358297
23.3455
0.346196
23.3212
0.334619
23.3366
0.323432
23.3864
0.312517
23.466
0.301769
23.5713
0.2911
23.6988
0.280432
23.8454
0.269701
24.0085
0.258853
24.1857
0.247842
24.3753
0.236631
24.5755
0.225189
24.7851
0.213491
25.0027
0.201516
25.2275
0.189247
25.4585
0.17667
25.6951
0.163777
25.9366
0.150558
26.1825
0.137008
26.4323
0.123123
26.6856
0.108901
26.9422
0.0943423
27.2017
0.079446
27.4639
0.0642144
27.7286
0.04865
27.9956
0.0327566
28.2647
0.0165382
28.5359
0
28.8089
-0.0168522
29.0838
-0.0340122
29.3604
-0.0514728
29.6387
-0.069227
29.9187
-0.0872667
30.2002
-0.105584
30.4832
-0.124169
30.7678
-0.143014
31.0538
-0.16211
31.3413
-0.181445
31.6302
-0.201011
31.9206
-0.220797
32.2125
-0.240792
32.5057
-0.260985
32.8005
-0.281365
33.0966
-0.301922
33.3942
-0.322643
33.6932
-0.343516
33.9936
-0.364531
34.2955
-0.385673
34.5989
-0.406932
34.9037
-0.428295
35.21
-0.449749
35.5178
-0.471282
35.827
-0.49288
36.1377
-0.514531
36.4499
-0.536221
36.7636
-0.557939
37.0788
-0.579669
37.3955
-0.6014
37.7137
-0.623117
38.0335
-0.644807
38.3546
-0.666459
38.6776
-0.688051
39.0009
-0.709596
39.3295
-0.730995
39.6479
-0.752506
40.0037
-0.773256
-0.795944
40.2517
26.6047
0.59636
-27.2681
25.9736
0.57162
25.3848
0.548008
24.846
0.525648
24.3638
0.504627
23.9426
0.484976
23.5846
0.466673
23.2897
0.449647
23.0557
0.433785
22.8792
0.418951
22.7554
0.404993
22.6794
0.391756
22.6458
0.379092
22.6497
0.366863
22.6863
0.354943
22.7514
0.343222
22.8412
0.331604
22.9524
0.320007
23.0822
0.308359
23.2279
0.296603
23.3876
0.284688
23.5594
0.272571
23.7416
0.260219
23.9331
0.247603
24.1326
0.234699
24.3392
0.221488
24.5521
0.207955
24.7705
0.194086
24.9938
0.179874
25.2215
0.16531
25.4533
0.150389
25.6885
0.135109
25.9271
0.119469
26.1686
0.103466
26.4128
0.087104
26.6596
0.0703837
26.9087
0.0533086
27.1599
0.035883
27.4132
0.0181114
27.6685
0
27.9256
-0.0184452
28.1845
-0.0372174
28.445
-0.0563089
28.7072
-0.0757114
28.971
-0.0954169
29.2363
-0.115416
29.5031
-0.135699
29.7715
-0.156257
30.0413
-0.177079
30.3125
-0.198156
30.5852
-0.219475
30.8593
-0.241025
31.1349
-0.262797
31.4118
-0.284776
31.6902
-0.306953
31.97
-0.329313
32.2513
-0.351846
32.5339
-0.374539
32.818
-0.397377
33.1035
-0.420349
33.3905
-0.443441
33.6789
-0.46664
33.9687
-0.489932
34.26
-0.513304
34.5527
-0.536742
34.847
-0.560231
35.1426
-0.583758
35.4398
-0.607309
35.7384
-0.63087
36.0385
-0.654425
36.34
-0.677962
36.6431
-0.701464
36.9475
-0.72492
37.2538
-0.748307
37.5604
-0.771638
37.8719
-0.794808
38.1741
-0.818091
38.5114
-0.840561
-0.86508
38.7472
25.1704
0.630763
-25.7605
24.6185
0.605703
24.1129
0.581939
23.6593
0.559553
23.2615
0.538578
22.9216
0.518991
22.6393
0.500723
22.413
0.483663
22.2395
0.467675
22.1148
0.452608
22.0344
0.438306
21.9937
0.424617
21.9882
0.4114
22.0137
0.398526
22.0663
0.385879
22.1424
0.373358
22.2391
0.360876
22.3537
0.348358
22.4837
0.335739
22.6273
0.322967
22.7827
0.309994
22.9484
0.296784
23.1231
0.283304
23.3058
0.269528
23.4954
0.255434
23.6913
0.241004
23.8927
0.226225
24.099
0.211086
24.3098
0.195577
24.5245
0.179693
24.7428
0.163429
24.9644
0.146783
25.1889
0.129754
25.4162
0.112342
25.6461
0.0945492
25.8783
0.0763781
26.1127
0.0578326
26.3491
0.0389175
26.5876
0.0196378
26.8279
0
27.0699
-0.019989
27.3137
-0.0403216
27.5591
-0.0609896
27.8061
-0.0819847
28.0547
-0.103297
28.3048
-0.124918
28.5564
-0.146837
28.8094
-0.169043
29.0639
-0.191526
29.3198
-0.214273
29.5772
-0.237275
29.8359
-0.260519
30.0961
-0.283991
30.3577
-0.307681
30.6206
-0.331576
30.885
-0.355661
31.1508
-0.379925
31.418
-0.404353
31.6866
-0.428931
31.9566
-0.453647
32.228
-0.478485
32.5009
-0.503432
32.7752
-0.528473
33.0509
-0.553593
33.328
-0.578778
33.6066
-0.604013
33.8866
-0.629283
34.168
-0.654573
34.4509
-0.679868
34.7353
-0.705152
35.021
-0.730411
35.3083
-0.755627
35.5969
-0.780789
35.8872
-0.805873
36.178
-0.830891
36.4734
-0.855734
36.7601
-0.880687
37.0799
-0.90478
-0.93102
37.3042
23.8636
0.663096
-24.3784
23.3905
0.638111
22.9653
0.614535
22.5913
0.592395
22.2701
0.57167
22.0017
0.552289
21.7844
0.534146
21.6156
0.517105
21.4918
0.501017
21.4091
0.485727
21.3633
0.471081
21.3504
0.456938
21.3666
0.443164
21.4084
0.429641
21.4726
0.416265
21.5564
0.402945
21.6573
0.389601
21.7732
0.376166
21.9021
0.362583
22.0425
0.348801
22.1929
0.334781
22.3522
0.320488
22.5192
0.305892
22.6932
0.290969
22.8732
0.275701
23.0587
0.26007
23.2491
0.244065
23.4439
0.227675
23.6427
0.210893
23.845
0.193714
24.0507
0.176133
24.2593
0.15815
24.4706
0.139764
24.6846
0.120975
24.9008
0.101787
25.1193
0.0822026
25.3399
0.0622259
25.5625
0.0418625
25.7869
0.0211183
26.0131
0
26.241
-0.0214848
26.4706
-0.043328
26.7018
-0.0655209
26.9345
-0.0880543
27.1687
-0.110918
27.4045
-0.134102
27.6416
-0.157596
27.8803
-0.181389
28.1203
-0.205468
28.3618
-0.229822
28.6046
-0.254439
28.8489
-0.279305
29.0946
-0.304409
29.3416
-0.329737
29.59
-0.355275
29.8398
-0.381009
30.091
-0.406926
30.3436
-0.433011
30.5975
-0.45925
30.8529
-0.485628
31.1097
-0.51213
31.3678
-0.53874
31.6274
-0.565445
31.8883
-0.592227
32.1507
-0.619073
32.4144
-0.645965
32.6796
-0.672889
32.9462
-0.699828
33.2142
-0.726766
33.4836
-0.753687
33.7544
-0.780576
34.0267
-0.807415
34.3002
-0.83419
34.5755
-0.860876
34.8512
-0.887488
35.1314
-0.913909
35.4033
-0.940439
35.7065
-0.966064
-0.993918
35.9198
22.6801
0.694012
-23.1203
22.2828
0.669418
21.9326
0.646277
21.6306
0.624562
21.3768
0.604205
21.1698
0.585099
21.0071
0.567113
20.8858
0.550099
20.8024
0.533903
20.7531
0.518374
20.7345
0.503369
20.7431
0.488754
20.7758
0.47441
20.8296
0.46023
20.9021
0.446119
20.9908
0.431996
21.0939
0.41779
21.2095
0.403441
21.3362
0.388897
21.4726
0.374114
21.6176
0.359054
21.7702
0.343688
21.9295
0.327988
22.0949
0.311934
22.2656
0.295507
22.4411
0.278693
22.621
0.261481
22.8048
0.243863
22.9922
0.22583
23.1829
0.20738
23.3765
0.18851
23.5729
0.169218
23.7718
0.149505
23.9731
0.129372
24.1766
0.108823
24.3822
0.0878614
24.5898
0.0664922
24.7992
0.044721
25.0105
0.0225544
25.2234
0
25.438
-0.0229343
25.6542
-0.04624
25.872
-0.0699075
26.0912
-0.093927
26.312
-0.118288
26.5342
-0.14298
26.7578
-0.167992
26.9828
-0.193311
27.2093
-0.218926
27.4371
-0.244823
27.6663
-0.270991
27.8969
-0.297415
28.1288
-0.324082
28.3621
-0.350978
28.5968
-0.378089
28.8329
-0.4054
29.0703
-0.432897
29.309
-0.460564
29.5492
-0.488387
29.7906
-0.516349
30.0335
-0.544436
30.2778
-0.57263
30.5234
-0.600918
30.7704
-0.629281
31.0187
-0.657704
31.2685
-0.68617
31.5196
-0.714663
31.7721
-0.743166
32.026
-0.771662
32.2812
-0.800134
32.5379
-0.828566
32.7959
-0.856939
33.0552
-0.88524
33.3162
-0.91344
33.5776
-0.941556
33.8433
-0.969468
34.1013
-0.997483
34.3887
-1.02455
-1.05392
34.5916
21.6131
0.724067
-21.9819
21.2863
0.700088
21.0037
0.677535
20.765
0.656339
20.569
0.636396
20.4136
0.617576
20.296
0.599734
20.2132
0.582721
20.162
0.566387
20.1392
0.550591
20.1417
0.535198
20.1667
0.52009
20.2116
0.505158
20.2741
0.490306
20.352
0.475451
20.4436
0.46052
20.5472
0.445451
20.6614
0.430189
20.7849
0.414688
20.9168
0.39891
21.0561
0.38282
21.2019
0.366392
21.3536
0.349601
21.5105
0.332429
21.6722
0.314859
21.8382
0.29688
22.008
0.278481
22.1814
0.259654
22.358
0.240395
22.5376
0.220699
22.7199
0.200565
22.9047
0.179993
23.0919
0.158983
23.2813
0.137538
23.4728
0.115662
23.6663
0.0933593
23.8616
0.0706347
24.0587
0.0474952
24.2575
0.0239476
24.458
0
24.6601
-0.0243391
24.8637
-0.0490605
25.0688
-0.0741543
25.2754
-0.0996099
25.4834
-0.125417
25.6928
-0.151563
25.9037
-0.178037
26.1159
-0.204826
26.3295
-0.231917
26.5445
-0.259298
26.7608
-0.286955
26.9785
-0.314873
27.1975
-0.343038
27.4179
-0.371437
27.6396
-0.400054
27.8626
-0.428873
28.087
-0.457879
28.3127
-0.487058
28.5397
-0.516392
28.7681
-0.545866
28.9979
-0.575462
29.2289
-0.605166
29.4614
-0.634959
29.6951
-0.664825
29.9303
-0.694748
30.1667
-0.724709
30.4046
-0.754691
30.6437
-0.784677
30.8842
-0.814649
31.1261
-0.84459
31.3693
-0.874482
31.6139
-0.904307
31.8597
-0.934049
32.1071
-0.963681
32.355
-0.993217
32.6069
-1.02254
32.8516
-1.05195
33.124
-1.08039
-1.11117
33.3171
20.6532
0.753706
-20.956
20.3899
0.730466
20.1666
0.708572
19.9822
0.687917
19.8348
0.668377
19.7219
0.649811
19.6409
0.632073
19.5889
0.615016
19.5631
0.598501
19.5609
0.582397
19.5796
0.566585
19.6168
0.550957
19.6706
0.535416
19.739
0.519877
19.8203
0.504269
19.9131
0.488524
20.0159
0.472589
20.1278
0.456416
20.2476
0.439963
20.3746
0.423195
20.5079
0.406084
20.6469
0.388604
20.7911
0.370735
20.9399
0.35246
21.0929
0.333764
21.2497
0.314637
21.4099
0.29507
21.5734
0.275057
21.7398
0.254594
21.9089
0.233677
22.0805
0.212306
22.2544
0.190481
22.4305
0.168205
22.6087
0.14548
22.7889
0.12231
22.9709
0.0987004
23.1547
0.0746575
23.3402
0.0501876
23.5274
0.0252991
23.7161
0
23.9064
-0.0257005
24.0981
-0.0517926
24.2913
-0.0782659
24.486
-0.105109
24.682
-0.132312
24.8795
-0.159861
25.0783
-0.187744
25.2784
-0.215948
25.4799
-0.244461
25.6828
-0.273268
25.8869
-0.302354
26.0924
-0.331706
26.2992
-0.361309
26.5074
-0.391147
26.7168
-0.421205
26.9276
-0.451467
27.1396
-0.481917
27.353
-0.512538
27.5677
-0.543315
27.7837
-0.57423
28.001
-0.605266
28.2196
-0.636406
28.4396
-0.667633
28.6609
-0.698928
28.8835
-0.730275
29.1074
-0.761656
29.3326
-0.793051
29.5591
-0.824444
29.787
-0.855816
30.0161
-0.887148
30.2466
-0.918423
30.4784
-0.94962
30.7114
-0.980725
30.9459
-1.01171
31.181
-1.04259
31.4198
-1.07323
31.652
-1.10396
31.9102
-1.13369
-1.16581
32.0939
19.7898
0.783249
-20.0334
19.5819
0.760793
19.4094
0.739554
19.2705
0.71941
19.163
0.700225
19.0847
0.681855
19.033
0.664159
19.0054
0.647003
18.9995
0.630257
19.013
0.613803
19.0439
0.597536
19.0901
0.581359
19.1501
0.565188
19.2222
0.548949
19.3052
0.532576
19.3978
0.516012
19.499
0.49921
19.6078
0.482126
19.7235
0.464725
19.8453
0.446975
19.9727
0.428852
20.105
0.410332
20.2418
0.391397
20.3827
0.372033
20.5273
0.352228
20.6753
0.331972
20.8264
0.311257
20.9804
0.290079
21.1371
0.268434
21.2963
0.246321
21.4578
0.223739
21.6215
0.20069
21.7872
0.177177
21.9549
0.153202
22.1244
0.128771
22.2956
0.103889
22.4686
0.0785632
22.6432
0.0528008
22.8193
0.0266101
22.997
0
23.1761
-0.0270199
23.3567
-0.0544391
23.5387
-0.0822469
23.7221
-0.110432
23.9069
-0.138982
24.093
-0.167884
24.2805
-0.197126
24.4693
-0.226693
24.6593
-0.256573
24.8508
-0.28675
25.0435
-0.317211
25.2375
-0.347939
25.4327
-0.37892
25.6293
-0.410137
25.8272
-0.441576
26.0263
-0.473218
26.2268
-0.505048
26.4285
-0.537048
26.6315
-0.569202
26.8358
-0.601491
27.0414
-0.6339
27.2482
-0.666408
27.4564
-0.698999
27.6658
-0.731654
27.8766
-0.764356
28.0886
-0.797084
28.3019
-0.829821
28.5164
-0.862548
28.7323
-0.895246
28.9494
-0.927896
29.1678
-0.960479
29.3875
-0.992975
29.6084
-1.02537
29.8307
-1.05763
30.0536
-1.08977
30.2801
-1.12167
30.5004
-1.15364
30.7451
-1.18458
-1.21795
30.9198
19.0112
0.812905
-19.2032
18.8506
0.791208
18.7206
0.770575
18.6192
0.750875
18.5443
0.731969
18.4937
0.713722
18.4652
0.696001
18.4566
0.678684
18.4659
0.661654
18.4914
0.644807
18.5311
0.62805
18.5837
0.611298
18.6478
0.594477
18.722
0.577521
18.8053
0.560375
18.8968
0.542988
18.9956
0.525316
19.1009
0.507324
19.2121
0.488979
19.3286
0.470255
19.4499
0.451128
19.5756
0.431579
19.7052
0.411593
19.8385
0.391156
19.9751
0.370257
20.1147
0.34889
20.2572
0.327048
20.4023
0.304726
20.5498
0.281923
20.6996
0.258638
20.8516
0.234872
21.0056
0.210626
21.1615
0.185904
21.3192
0.16071
21.4787
0.13505
21.6398
0.108929
21.8025
0.0823556
21.9668
0.055337
22.1326
0.0278819
22.2999
0
22.4686
-0.0282986
22.6387
-0.057003
22.8101
-0.0861017
22.9829
-0.115583
23.1571
-0.145434
23.3325
-0.175642
23.5093
-0.206194
23.6874
-0.237074
23.8667
-0.26827
24.0473
-0.299766
24.2292
-0.331546
24.4124
-0.363596
24.5968
-0.395898
24.7825
-0.428438
24.9694
-0.461198
25.1576
-0.494161
25.347
-0.52731
25.5378
-0.560628
25.7297
-0.594097
25.9229
-0.627698
26.1174
-0.661415
26.3132
-0.695227
26.5101
-0.729117
26.7084
-0.763065
26.9079
-0.797053
27.1086
-0.831062
27.3106
-0.865073
27.5139
-0.899065
27.7184
-0.93302
27.9241
-0.966918
28.1311
-1.00074
28.3393
-1.03446
28.5486
-1.06807
28.7595
-1.10154
28.9708
-1.13488
29.1855
-1.16795
29.3945
-1.2011
29.6265
-1.23319
-1.26772
29.7927
18.3061
0.842789
-18.4543
18.1852
0.821781
18.0901
0.80167
18.0192
0.782324
17.9703
0.763611
17.9416
0.745407
17.9312
0.72759
17.9373
0.71005
17.9582
0.692686
17.9924
0.675404
18.0385
0.658124
18.0954
0.640771
18.1618
0.62328
18.2368
0.605596
18.3194
0.587667
18.409
0.569452
18.5048
0.550911
18.6063
0.532013
18.7128
0.512731
18.824
0.493039
18.9394
0.472919
19.0585
0.452353
19.1813
0.431328
19.3072
0.409833
19.4361
0.387859
19.5678
0.365399
19.702
0.342449
19.8386
0.319006
19.9775
0.295068
20.1185
0.270635
20.2614
0.24571
20.4063
0.220295
20.5529
0.194393
20.7013
0.16801
20.8513
0.141152
21.0029
0.113825
21.156
0.0860379
21.3106
0.0577982
21.4667
0.0291156
21.6242
0
21.783
-0.0295379
21.9432
-0.0594867
22.1047
-0.0898346
22.2676
-0.120569
22.4317
-0.151677
22.5971
-0.183145
22.7638
-0.214959
22.9317
-0.247105
23.1009
-0.279567
23.2714
-0.312331
23.4431
-0.345379
23.616
-0.378698
23.7902
-0.412269
23.9656
-0.446076
24.1422
-0.480102
24.32
-0.51433
24.4991
-0.548741
24.6794
-0.583318
24.8609
-0.618043
25.0437
-0.652896
25.2277
-0.687859
25.4129
-0.722913
25.5993
-0.75804
25.787
-0.793219
25.9759
-0.82843
26.1659
-0.863656
26.3573
-0.898875
26.5498
-0.934068
26.7435
-0.969214
26.9384
-1.00429
27.1346
-1.03929
27.3319
-1.07417
27.5304
-1.10893
27.7303
-1.14354
27.9306
-1.178
28.1343
-1.21219
28.3325
-1.24644
28.5524
-1.27961
-1.31523
28.7106
17.6641
0.872947
-17.7757
17.5757
0.852527
17.509
0.832834
17.4624
0.813744
17.4341
0.795135
17.4226
0.776892
17.4261
0.758909
17.4433
0.741088
17.4728
0.72334
17.5133
0.705585
17.5638
0.68775
17.6232
0.669773
17.6906
0.651596
17.7653
0.63317
17.8466
0.614453
17.9337
0.595406
18.0262
0.575997
18.1236
0.556197
18.2254
0.535982
18.3312
0.515332
18.4407
0.494229
18.5536
0.472659
18.6696
0.45061
18.7885
0.428072
18.9101
0.40504
19.0342
0.381506
19.1606
0.357469
19.2892
0.332925
19.4199
0.307875
19.5525
0.28232
19.687
0.256261
19.8232
0.229703
19.9611
0.20265
20.1007
0.175107
20.2418
0.147082
20.3844
0.118581
20.5285
0.089613
20.674
0.0601869
20.8209
0.0303123
20.9691
0
21.1187
-0.030739
21.2696
-0.0618931
21.4218
-0.0934494
21.5752
-0.125395
21.7299
-0.157718
21.8859
-0.190402
22.0431
-0.223434
22.2015
-0.256798
22.3611
-0.29048
22.522
-0.324463
22.684
-0.358731
22.8473
-0.393268
23.0118
-0.428056
23.1775
-0.463079
23.3443
-0.498318
23.5124
-0.533756
23.6817
-0.569375
23.8522
-0.605155
24.0239
-0.641079
24.1967
-0.677126
24.3708
-0.713279
24.546
-0.749517
24.7225
-0.785821
24.9001
-0.82217
25.0789
-0.858546
25.2589
-0.894927
25.4401
-0.931293
25.6225
-0.967625
25.806
-1.0039
25.9908
-1.0401
26.1766
-1.0762
26.3637
-1.11219
26.5518
-1.14803
26.7413
-1.18372
26.9313
-1.21924
27.1244
-1.25448
27.3125
-1.28977
27.5209
-1.32396
-1.3606
27.6714
17.0756
0.90337
-17.1572
17.0135
0.883424
16.9695
0.86404
16.9421
0.845105
16.93
0.826509
16.9316
0.808151
16.9458
0.789936
16.9712
0.77178
17.0069
0.753603
17.0518
0.735338
17.1049
0.716922
17.1656
0.698299
17.2331
0.679421
17.3068
0.660245
17.386
0.640733
17.4703
0.620854
17.5592
0.600577
17.6523
0.579879
17.7493
0.558739
17.8498
0.537139
17.9536
0.515064
18.0604
0.492502
18.17
0.469443
18.2822
0.44588
18.3968
0.421806
18.5136
0.397218
18.6327
0.372113
18.7537
0.346491
18.8766
0.320352
19.0014
0.293697
19.1278
0.266531
19.256
0.238856
19.3857
0.21068
19.5169
0.182006
19.6497
0.152844
19.7838
0.1232
19.9194
0.093084
20.0563
0.0625049
20.1946
0.0314733
20.3341
0
20.475
-0.0319033
20.6171
-0.0642243
20.7605
-0.0969502
20.9051
-0.130068
21.0509
-0.163563
21.1979
-0.197421
21.3462
-0.231627
21.4956
-0.266166
21.6462
-0.301022
21.798
-0.336178
21.951
-0.371618
22.1052
-0.407325
22.2605
-0.443282
22.4171
-0.479471
22.5748
-0.515873
22.7336
-0.55247
22.8936
-0.589243
23.0548
-0.626175
23.2172
-0.663244
23.3807
-0.700432
23.5454
-0.737719
23.7112
-0.775085
23.8782
-0.81251
24.0464
-0.849974
24.2157
-0.887456
24.3861
-0.924935
24.5578
-0.962391
24.7305
-0.999803
24.9044
-1.03715
25.0794
-1.07441
25.2556
-1.11156
25.4329
-1.14858
25.6113
-1.18546
25.7909
-1.22216
25.9711
-1.25868
26.1542
-1.29491
26.3326
-1.33118
26.5301
-1.36633
-1.40393
26.6733
16.5324
0.93402
-16.5897
16.4912
0.914427
16.4652
0.895243
16.4529
0.876366
16.4532
0.857699
16.4648
0.839153
16.4869
0.820646
16.5183
0.802104
16.5583
0.78346
16.6059
0.764653
16.6605
0.745631
16.7215
0.726344
16.7883
0.706752
16.8602
0.686818
16.937
0.666508
17.0181
0.645795
17.1033
0.624653
17.1921
0.603063
17.2843
0.581005
17.3796
0.558465
17.4778
0.53543
17.5788
0.511889
17.6822
0.487836
17.7879
0.463263
17.8959
0.438166
18.0059
0.412542
18.1179
0.38639
18.2318
0.35971
18.3474
0.332505
18.4647
0.304775
18.5837
0.276526
18.7042
0.247761
18.8261
0.218488
18.9496
0.188713
19.0744
0.158443
19.2006
0.127687
19.3282
0.096454
19.457
0.0647546
19.5872
0.0325995
19.7186
0
19.8512
-0.0330318
19.9851
-0.0664832
20.1201
-0.100341
20.2564
-0.134591
20.3939
-0.169219
20.5325
-0.20421
20.6723
-0.239549
20.8133
-0.27522
20.9554
-0.311207
21.0987
-0.347492
21.2431
-0.38406
21.3887
-0.420891
21.5354
-0.45797
21.6833
-0.495276
21.8323
-0.532793
21.9824
-0.5705
22.1337
-0.608379
22.2861
-0.64641
22.4397
-0.684575
22.5944
-0.722851
22.7502
-0.761221
22.9071
-0.799662
23.0652
-0.838155
23.2244
-0.87668
23.3847
-0.915214
23.5461
-0.953736
23.7087
-0.992227
23.8723
-1.03066
24.0371
-1.06902
24.203
-1.10729
24.3699
-1.14544
24.538
-1.18344
24.7071
-1.22129
24.8774
-1.25894
25.0482
-1.29641
25.2219
-1.33358
25.3912
-1.37076
25.5784
-1.40682
-1.44531
25.7147
16.0273
0.964837
-16.0654
16.0028
0.94548
15.9907
0.926392
15.99
0.907483