/*--------------------------------*- C++ -*----------------------------------*\
| =========                 |                                                 |
| \\      /  F ield         | OpenFOAM: The Open Source CFD Toolbox           |
|  \\    /   O peration     | Version:  2312                                  |
|   \\  /    A nd           | Website:  www.openfoam.com                      |
|    \\/     M anipulation  |                                                 |
\*---------------------------------------------------------------------------*/
FoamFile
{
    version     2.0;
    format      ascii;
    arch        "LSB;label=32;scalar=64";
    class       volVectorField;
    location    "0.629";
    object      U;
}
// * * * * * * * * * * * * * * * * * * * * * * * * * * * * * * * * * * * * * //

dimensions      [0 1 -1 0 0 0 0];

internalField   nonuniform List<vector> 
31205
(
(122.444 0 0)
(125.331 0 0)
(128.219 0 0)
(131.097 0 0)
(133.955 0 0)
(136.789 0 0)
(139.592 0 0)
(142.364 0 0)
(145.1 0 0)
(147.8 0 0)
(150.463 0 0)
(153.089 0 0)
(155.677 0 0)
(158.227 0 0)
(160.74 0 0)
(163.217 0 0)
(165.657 0 0)
(168.062 0 0)
(170.433 0 0)
(172.769 0 0)
(175.071 0 0)
(177.341 0 0)
(179.578 0 0)
(181.785 0 0)
(183.96 0 0)
(186.106 0 0)
(188.222 0 0)
(190.31 0 0)
(192.369 0 0)
(194.401 0 0)
(196.406 0 0)
(198.384 0 0)
(200.336 0 0)
(202.263 0 0)
(204.166 0 0)
(206.043 0 0)
(207.897 0 0)
(209.727 0 0)
(211.534 0 0)
(213.318 0 0)
(215.08 0 0)
(216.82 0 0)
(218.538 0 0)
(220.235 0 0)
(221.911 0 0)
(223.566 0 0)
(225.201 0 0)
(226.815 0 0)
(228.41 0 0)
(229.985 0 0)
(231.541 0 0)
(233.077 0 0)
(234.595 0 0)
(236.094 0 0)
(237.574 0 0)
(239.036 0 0)
(240.48 0 0)
(241.906 0 0)
(243.315 0 0)
(244.705 0 0)
(246.078 0 0)
(247.434 0 0)
(248.773 0 0)
(250.094 0 0)
(251.399 0 0)
(252.687 0 0)
(253.958 0 0)
(255.212 0 0)
(256.45 0 0)
(257.671 0 0)
(258.876 0 0)
(260.064 0 0)
(261.237 0 0)
(262.391 0 0)
(263.535 0 0)
(264.646 0 0)
(265.791 0 0)
(266.767 0 0)
(268.2 0 0)
(125.515 0 0)
(128.315 0 0)
(131.105 0 0)
(133.877 0 0)
(136.627 0 0)
(139.349 0 0)
(142.04 0 0)
(144.699 0 0)
(147.324 0 0)
(149.915 0 0)
(152.47 0 0)
(154.99 0 0)
(157.475 0 0)
(159.924 0 0)
(162.34 0 0)
(164.72 0 0)
(167.068 0 0)
(169.382 0 0)
(171.664 0 0)
(173.914 0 0)
(176.133 0 0)
(178.322 0 0)
(180.48 0 0)
(182.61 0 0)
(184.71 0 0)
(186.783 0 0)
(188.828 0 0)
(190.847 0 0)
(192.839 0 0)
(194.805 0 0)
(196.746 0 0)
(198.662 0 0)
(200.554 0 0)
(202.422 0 0)
(204.266 0 0)
(206.088 0 0)
(207.886 0 0)
(209.663 0 0)
(211.418 0 0)
(213.151 0 0)
(214.864 0 0)
(216.555 0 0)
(218.226 0 0)
(219.877 0 0)
(221.508 0 0)
(223.12 0 0)
(224.712 0 0)
(226.285 0 0)
(227.839 0 0)
(229.374 0 0)
(230.892 0 0)
(232.391 0 0)
(233.872 0 0)
(235.335 0 0)
(236.781 0 0)
(238.21 0 0)
(239.621 0 0)
(241.016 0 0)
(242.393 0 0)
(243.754 0 0)
(245.098 0 0)
(246.426 0 0)
(247.737 0 0)
(249.032 0 0)
(250.311 0 0)
(251.574 0 0)
(252.821 0 0)
(254.053 0 0)
(255.268 0 0)
(256.468 0 0)
(257.653 0 0)
(258.822 0 0)
(259.976 0 0)
(261.113 0 0)
(262.239 0 0)
(263.335 0 0)
(264.464 0 0)
(265.429 0 0)
(266.838 0 0)
(128.636 0 0)
(131.338 0 0)
(134.023 0 0)
(136.687 0 0)
(139.325 0 0)
(141.935 0 0)
(144.514 0 0)
(147.062 0 0)
(149.577 0 0)
(152.06 0 0)
(154.51 0 0)
(156.926 0 0)
(159.31 0 0)
(161.661 0 0)
(163.98 0 0)
(166.267 0 0)
(168.524 0 0)
(170.749 0 0)
(172.945 0 0)
(175.111 0 0)
(177.248 0 0)
(179.357 0 0)
(181.438 0 0)
(183.491 0 0)
(185.518 0 0)
(187.519 0 0)
(189.495 0 0)
(191.445 0 0)
(193.371 0 0)
(195.272 0 0)
(197.15 0 0)
(199.005 0 0)
(200.837 0 0)
(202.646 0 0)
(204.434 0 0)
(206.2 0 0)
(207.944 0 0)
(209.668 0 0)
(211.371 0 0)
(213.054 0 0)
(214.717 0 0)
(216.361 0 0)
(217.985 0 0)
(219.59 0 0)
(221.176 0 0)
(222.744 0 0)
(224.294 0 0)
(225.825 0 0)
(227.339 0 0)
(228.835 0 0)
(230.314 0 0)
(231.776 0 0)
(233.22 0 0)
(234.648 0 0)
(236.059 0 0)
(237.454 0 0)
(238.833 0 0)
(240.195 0 0)
(241.541 0 0)
(242.872 0 0)
(244.186 0 0)
(245.485 0 0)
(246.769 0 0)
(248.037 0 0)
(249.29 0 0)
(250.528 0 0)
(251.751 0 0)
(252.958 0 0)
(254.151 0 0)
(255.329 0 0)
(256.493 0 0)
(257.641 0 0)
(258.776 0 0)
(259.894 0 0)
(261.003 0 0)
(262.082 0 0)
(263.193 0 0)
(264.146 0 0)
(265.529 0 0)
(131.705 0 0)
(134.305 0 0)
(136.884 0 0)
(139.439 0 0)
(141.967 0 0)
(144.468 0 0)
(146.938 0 0)
(149.379 0 0)
(151.789 0 0)
(154.168 0 0)
(156.516 0 0)
(158.834 0 0)
(161.121 0 0)
(163.377 0 0)
(165.604 0 0)
(167.802 0 0)
(169.97 0 0)
(172.11 0 0)
(174.223 0 0)
(176.308 0 0)
(178.366 0 0)
(180.398 0 0)
(182.404 0 0)
(184.384 0 0)
(186.34 0 0)
(188.272 0 0)
(190.18 0 0)
(192.064 0 0)
(193.925 0 0)
(195.764 0 0)
(197.581 0 0)
(199.375 0 0)
(201.149 0 0)
(202.901 0 0)
(204.633 0 0)
(206.345 0 0)
(208.036 0 0)
(209.708 0 0)
(211.361 0 0)
(212.995 0 0)
(214.609 0 0)
(216.206 0 0)
(217.784 0 0)
(219.344 0 0)
(220.887 0 0)
(222.412 0 0)
(223.919 0 0)
(225.41 0 0)
(226.884 0 0)
(228.341 0 0)
(229.782 0 0)
(231.207 0 0)
(232.615 0 0)
(234.007 0 0)
(235.384 0 0)
(236.745 0 0)
(238.091 0 0)
(239.421 0 0)
(240.737 0 0)
(242.037 0 0)
(243.322 0 0)
(244.592 0 0)
(245.848 0 0)
(247.089 0 0)
(248.316 0 0)
(249.528 0 0)
(250.726 0 0)
(251.91 0 0)
(253.08 0 0)
(254.236 0 0)
(255.377 0 0)
(256.505 0 0)
(257.619 0 0)
(258.718 0 0)
(259.808 0 0)
(260.87 0 0)
(261.963 0 0)
(262.902 0 0)
(264.262 0 0)
(134.678 0 0)
(137.174 0 0)
(139.648 0 0)
(142.096 0 0)
(144.519 0 0)
(146.914 0 0)
(149.281 0 0)
(151.619 0 0)
(153.928 0 0)
(156.208 0 0)
(158.46 0 0)
(160.682 0 0)
(162.877 0 0)
(165.043 0 0)
(167.182 0 0)
(169.294 0 0)
(171.378 0 0)
(173.437 0 0)
(175.47 0 0)
(177.477 0 0)
(179.46 0 0)
(181.418 0 0)
(183.352 0 0)
(185.262 0 0)
(187.15 0 0)
(189.014 0 0)
(190.857 0 0)
(192.677 0 0)
(194.476 0 0)
(196.254 0 0)
(198.012 0 0)
(199.749 0 0)
(201.466 0 0)
(203.163 0 0)
(204.841 0 0)
(206.5 0 0)
(208.14 0 0)
(209.762 0 0)
(211.365 0 0)
(212.951 0 0)
(214.518 0 0)
(216.069 0 0)
(217.602 0 0)
(219.119 0 0)
(220.618 0 0)
(222.101 0 0)
(223.568 0 0)
(225.019 0 0)
(226.453 0 0)
(227.872 0 0)
(229.276 0 0)
(230.664 0 0)
(232.037 0 0)
(233.394 0 0)
(234.737 0 0)
(236.065 0 0)
(237.379 0 0)
(238.677 0 0)
(239.962 0 0)
(241.232 0 0)
(242.488 0 0)
(243.73 0 0)
(244.958 0 0)
(246.172 0 0)
(247.373 0 0)
(248.559 0 0)
(249.733 0 0)
(250.892 0 0)
(252.039 0 0)
(253.172 0 0)
(254.292 0 0)
(255.398 0 0)
(256.492 0 0)
(257.571 0 0)
(258.642 0 0)
(259.685 0 0)
(260.761 0 0)
(261.685 0 0)
(263.023 0 0)
(137.539 0 0)
(139.933 0 0)
(142.303 0 0)
(144.649 0 0)
(146.969 0 0)
(149.263 0 0)
(151.53 0 0)
(153.77 0 0)
(155.984 0 0)
(158.17 0 0)
(160.329 0 0)
(162.462 0 0)
(164.568 0 0)
(166.649 0 0)
(168.704 0 0)
(170.733 0 0)
(172.738 0 0)
(174.719 0 0)
(176.675 0 0)
(178.608 0 0)
(180.518 0 0)
(182.406 0 0)
(184.271 0 0)
(186.114 0 0)
(187.935 0 0)
(189.736 0 0)
(191.516 0 0)
(193.275 0 0)
(195.014 0 0)
(196.734 0 0)
(198.434 0 0)
(200.115 0 0)
(201.777 0 0)
(203.421 0 0)
(205.047 0 0)
(206.655 0 0)
(208.245 0 0)
(209.818 0 0)
(211.373 0 0)
(212.912 0 0)
(214.434 0 0)
(215.94 0 0)
(217.43 0 0)
(218.903 0 0)
(220.361 0 0)
(221.803 0 0)
(223.23 0 0)
(224.642 0 0)
(226.038 0 0)
(227.42 0 0)
(228.787 0 0)
(230.139 0 0)
(231.477 0 0)
(232.8 0 0)
(234.11 0 0)
(235.405 0 0)
(236.687 0 0)
(237.954 0 0)
(239.209 0 0)
(240.449 0 0)
(241.676 0 0)
(242.89 0 0)
(244.09 0 0)
(245.278 0 0)
(246.452 0 0)
(247.614 0 0)
(248.762 0 0)
(249.898 0 0)
(251.021 0 0)
(252.131 0 0)
(253.229 0 0)
(254.314 0 0)
(255.388 0 0)
(256.447 0 0)
(257.498 0 0)
(258.523 0 0)
(259.58 0 0)
(260.489 0 0)
(261.804 0 0)
(140.284 0 0)
(142.578 0 0)
(144.849 0 0)
(147.096 0 0)
(149.318 0 0)
(151.515 0 0)
(153.688 0 0)
(155.834 0 0)
(157.956 0 0)
(160.052 0 0)
(162.124 0 0)
(164.171 0 0)
(166.194 0 0)
(168.192 0 0)
(170.167 0 0)
(172.119 0 0)
(174.047 0 0)
(175.953 0 0)
(177.837 0 0)
(179.699 0 0)
(181.54 0 0)
(183.36 0 0)
(185.158 0 0)
(186.937 0 0)
(188.695 0 0)
(190.434 0 0)
(192.153 0 0)
(193.853 0 0)
(195.535 0 0)
(197.198 0 0)
(198.843 0 0)
(200.47 0 0)
(202.08 0 0)
(203.672 0 0)
(205.247 0 0)
(206.806 0 0)
(208.348 0 0)
(209.873 0 0)
(211.383 0 0)
(212.876 0 0)
(214.354 0 0)
(215.816 0 0)
(217.263 0 0)
(218.695 0 0)
(220.112 0 0)
(221.515 0 0)
(222.903 0 0)
(224.276 0 0)
(225.635 0 0)
(226.98 0 0)
(228.311 0 0)
(229.629 0 0)
(230.932 0 0)
(232.222 0 0)
(233.499 0 0)
(234.762 0 0)
(236.013 0 0)
(237.25 0 0)
(238.474 0 0)
(239.685 0 0)
(240.884 0 0)
(242.07 0 0)
(243.243 0 0)
(244.404 0 0)
(245.552 0 0)
(246.689 0 0)
(247.813 0 0)
(248.924 0 0)
(250.024 0 0)
(251.112 0 0)
(252.188 0 0)
(253.252 0 0)
(254.304 0 0)
(255.343 0 0)
(256.375 0 0)
(257.382 0 0)
(258.42 0 0)
(259.313 0 0)
(260.605 0 0)
(142.917 0 0)
(145.114 0 0)
(147.289 0 0)
(149.441 0 0)
(151.569 0 0)
(153.674 0 0)
(155.756 0 0)
(157.813 0 0)
(159.848 0 0)
(161.859 0 0)
(163.847 0 0)
(165.812 0 0)
(167.755 0 0)
(169.676 0 0)
(171.574 0 0)
(173.452 0 0)
(175.307 0 0)
(177.142 0 0)
(178.957 0 0)
(180.751 0 0)
(182.525 0 0)
(184.279 0 0)
(186.015 0 0)
(187.731 0 0)
(189.429 0 0)
(191.108 0 0)
(192.769 0 0)
(194.413 0 0)
(196.039 0 0)
(197.647 0 0)
(199.239 0 0)
(200.814 0 0)
(202.373 0 0)
(203.915 0 0)
(205.442 0 0)
(206.952 0 0)
(208.447 0 0)
(209.927 0 0)
(211.391 0 0)
(212.841 0 0)
(214.276 0 0)
(215.696 0 0)
(217.102 0 0)
(218.493 0 0)
(219.871 0 0)
(221.234 0 0)
(222.584 0 0)
(223.92 0 0)
(225.243 0 0)
(226.552 0 0)
(227.848 0 0)
(229.131 0 0)
(230.402 0 0)
(231.659 0 0)
(232.903 0 0)
(234.135 0 0)
(235.355 0 0)
(236.562 0 0)
(237.757 0 0)
(238.939 0 0)
(240.11 0 0)
(241.268 0 0)
(242.415 0 0)
(243.549 0 0)
(244.672 0 0)
(245.783 0 0)
(246.883 0 0)
(247.971 0 0)
(249.048 0 0)
(250.113 0 0)
(251.167 0 0)
(252.209 0 0)
(253.241 0 0)
(254.26 0 0)
(255.272 0 0)
(256.26 0 0)
(257.279 0 0)
(258.156 0 0)
(259.424 0 0)
(145.44 0 0)
(147.544 0 0)
(149.627 0 0)
(151.688 0 0)
(153.727 0 0)
(155.744 0 0)
(157.739 0 0)
(159.712 0 0)
(161.663 0 0)
(163.593 0 0)
(165.502 0 0)
(167.389 0 0)
(169.256 0 0)
(171.102 0 0)
(172.928 0 0)
(174.734 0 0)
(176.52 0 0)
(178.287 0 0)
(180.035 0 0)
(181.764 0 0)
(183.474 0 0)
(185.166 0 0)
(186.841 0 0)
(188.497 0 0)
(190.137 0 0)
(191.759 0 0)
(193.364 0 0)
(194.953 0 0)
(196.526 0 0)
(198.082 0 0)
(199.622 0 0)
(201.147 0 0)
(202.657 0 0)
(204.151 0 0)
(205.63 0 0)
(207.094 0 0)
(208.544 0 0)
(209.979 0 0)
(211.4 0 0)
(212.807 0 0)
(214.2 0 0)
(215.579 0 0)
(216.945 0 0)
(218.297 0 0)
(219.636 0 0)
(220.961 0 0)
(222.274 0 0)
(223.574 0 0)
(224.861 0 0)
(226.136 0 0)
(227.398 0 0)
(228.647 0 0)
(229.884 0 0)
(231.11 0 0)
(232.323 0 0)
(233.524 0 0)
(234.713 0 0)
(235.891 0 0)
(237.056 0 0)
(238.211 0 0)
(239.353 0 0)
(240.485 0 0)
(241.605 0 0)
(242.713 0 0)
(243.811 0 0)
(244.898 0 0)
(245.973 0 0)
(247.037 0 0)
(248.091 0 0)
(249.134 0 0)
(250.166 0 0)
(251.187 0 0)
(252.198 0 0)
(253.196 0 0)
(254.189 0 0)
(255.158 0 0)
(256.157 0 0)
(257.019 0 0)
(258.263 0 0)
(147.857 0 0)
(149.872 0 0)
(151.867 0 0)
(153.841 0 0)
(155.795 0 0)
(157.728 0 0)
(159.641 0 0)
(161.534 0 0)
(163.406 0 0)
(165.259 0 0)
(167.091 0 0)
(168.905 0 0)
(170.699 0 0)
(172.474 0 0)
(174.23 0 0)
(175.968 0 0)
(177.688 0 0)
(179.389 0 0)
(181.073 0 0)
(182.74 0 0)
(184.389 0 0)
(186.022 0 0)
(187.638 0 0)
(189.237 0 0)
(190.82 0 0)
(192.388 0 0)
(193.939 0 0)
(195.476 0 0)
(196.996 0 0)
(198.502 0 0)
(199.993 0 0)
(201.469 0 0)
(202.931 0 0)
(204.379 0 0)
(205.812 0 0)
(207.232 0 0)
(208.637 0 0)
(210.029 0 0)
(211.408 0 0)
(212.774 0 0)
(214.126 0 0)
(215.465 0 0)
(216.792 0 0)
(218.106 0 0)
(219.407 0 0)
(220.696 0 0)
(221.973 0 0)
(223.237 0 0)
(224.49 0 0)
(225.73 0 0)
(226.959 0 0)
(228.175 0 0)
(229.381 0 0)
(230.574 0 0)
(231.757 0 0)
(232.927 0 0)
(234.087 0 0)
(235.236 0 0)
(236.373 0 0)
(237.499 0 0)
(238.615 0 0)
(239.72 0 0)
(240.813 0 0)
(241.897 0 0)
(242.969 0 0)
(244.031 0 0)
(245.083 0 0)
(246.124 0 0)
(247.154 0 0)
(248.175 0 0)
(249.185 0 0)
(250.185 0 0)
(251.175 0 0)
(252.153 0 0)
(253.126 0 0)
(254.076 0 0)
(255.056 0 0)
(255.902 0 0)
(257.122 0 0)
(150.174 0 0)
(152.104 0 0)
(154.015 0 0)
(155.906 0 0)
(157.778 0 0)
(159.632 0 0)
(161.466 0 0)
(163.282 0 0)
(165.079 0 0)
(166.858 0 0)
(168.619 0 0)
(170.361 0 0)
(172.086 0 0)
(173.794 0 0)
(175.483 0 0)
(177.156 0 0)
(178.812 0 0)
(180.452 0 0)
(182.075 0 0)
(183.681 0 0)
(185.272 0 0)
(186.848 0 0)
(188.407 0 0)
(189.952 0 0)
(191.481 0 0)
(192.995 0 0)
(194.495 0 0)
(195.981 0 0)
(197.452 0 0)
(198.909 0 0)
(200.352 0 0)
(201.781 0 0)
(203.197 0 0)
(204.599 0 0)
(205.989 0 0)
(207.365 0 0)
(208.728 0 0)
(210.078 0 0)
(211.416 0 0)
(212.742 0 0)
(214.055 0 0)
(215.355 0 0)
(216.644 0 0)
(217.921 0 0)
(219.185 0 0)
(220.438 0 0)
(221.68 0 0)
(222.91 0 0)
(224.128 0 0)
(225.335 0 0)
(226.531 0 0)
(227.716 0 0)
(228.89 0 0)
(230.053 0 0)
(231.205 0 0)
(232.346 0 0)
(233.477 0 0)
(234.597 0 0)
(235.706 0 0)
(236.805 0 0)
(237.894 0 0)
(238.972 0 0)
(240.04 0 0)
(241.098 0 0)
(242.146 0 0)
(243.184 0 0)
(244.212 0 0)
(245.23 0 0)
(246.238 0 0)
(247.236 0 0)
(248.224 0 0)
(249.203 0 0)
(250.172 0 0)
(251.131 0 0)
(252.084 0 0)
(253.015 0 0)
(253.975 0 0)
(254.805 0 0)
(256.001 0 0)
(152.395 0 0)
(154.243 0 0)
(156.074 0 0)
(157.886 0 0)
(159.681 0 0)
(161.459 0 0)
(163.219 0 0)
(164.961 0 0)
(166.687 0 0)
(168.396 0 0)
(170.087 0 0)
(171.762 0 0)
(173.421 0 0)
(175.064 0 0)
(176.69 0 0)
(178.301 0 0)
(179.896 0 0)
(181.476 0 0)
(183.04 0 0)
(184.59 0 0)
(186.124 0 0)
(187.644 0 0)
(189.15 0 0)
(190.642 0 0)
(192.119 0 0)
(193.583 0 0)
(195.033 0 0)
(196.469 0 0)
(197.892 0 0)
(199.302 0 0)
(200.699 0 0)
(202.083 0 0)
(203.455 0 0)
(204.814 0 0)
(206.16 0 0)
(207.494 0 0)
(208.816 0 0)
(210.126 0 0)
(211.424 0 0)
(212.71 0 0)
(213.985 0 0)
(215.248 0 0)
(216.5 0 0)
(217.74 0 0)
(218.97 0 0)
(220.188 0 0)
(221.395 0 0)
(222.591 0 0)
(223.777 0 0)
(224.951 0 0)
(226.116 0 0)
(227.269 0 0)
(228.412 0 0)
(229.545 0 0)
(230.668 0 0)
(231.78 0 0)
(232.882 0 0)
(233.974 0 0)
(235.056 0 0)
(236.128 0 0)
(237.19 0 0)
(238.243 0 0)
(239.286 0 0)
(240.319 0 0)
(241.342 0 0)
(242.356 0 0)
(243.36 0 0)
(244.355 0 0)
(245.341 0 0)
(246.317 0 0)
(247.284 0 0)
(248.242 0 0)
(249.19 0 0)
(250.129 0 0)
(251.062 0 0)
(251.974 0 0)
(252.915 0 0)
(253.728 0 0)
(254.9 0 0)
(154.524 0 0)
(156.295 0 0)
(158.048 0 0)
(159.786 0 0)
(161.507 0 0)
(163.212 0 0)
(164.901 0 0)
(166.574 0 0)
(168.232 0 0)
(169.873 0 0)
(171.499 0 0)
(173.11 0 0)
(174.706 0 0)
(176.286 0 0)
(177.852 0 0)
(179.403 0 0)
(180.94 0 0)
(182.463 0 0)
(183.971 0 0)
(185.466 0 0)
(186.946 0 0)
(188.414 0 0)
(189.867 0 0)
(191.308 0 0)
(192.736 0 0)
(194.15 0 0)
(195.552 0 0)
(196.942 0 0)
(198.319 0 0)
(199.683 0 0)
(201.036 0 0)
(202.376 0 0)
(203.704 0 0)
(205.021 0 0)
(206.326 0 0)
(207.619 0 0)
(208.901 0 0)
(210.172 0 0)
(211.432 0 0)
(212.68 0 0)
(213.918 0 0)
(215.145 0 0)
(216.36 0 0)
(217.566 0 0)
(218.76 0 0)
(219.944 0 0)
(221.118 0 0)
(222.282 0 0)
(223.435 0 0)
(224.578 0 0)
(225.711 0 0)
(226.834 0 0)
(227.947 0 0)
(229.05 0 0)
(230.144 0 0)
(231.228 0 0)
(232.302 0 0)
(233.367 0 0)
(234.422 0 0)
(235.467 0 0)
(236.504 0 0)
(237.531 0 0)
(238.549 0 0)
(239.557 0 0)
(240.556 0 0)
(241.547 0 0)
(242.528 0 0)
(243.5 0 0)
(244.464 0 0)
(245.418 0 0)
(246.364 0 0)
(247.3 0 0)
(248.229 0 0)
(249.147 0 0)
(250.061 0 0)
(250.953 0 0)
(251.875 0 0)
(252.672 0 0)
(253.82 0 0)
(156.565 0 0)
(158.262 0 0)
(159.943 0 0)
(161.609 0 0)
(163.26 0 0)
(164.896 0 0)
(166.518 0 0)
(168.124 0 0)
(169.716 0 0)
(171.294 0 0)
(172.857 0 0)
(174.407 0 0)
(175.942 0 0)
(177.463 0 0)
(178.971 0 0)
(180.465 0 0)
(181.946 0 0)
(183.414 0 0)
(184.869 0 0)
(186.311 0 0)
(187.74 0 0)
(189.156 0 0)
(190.56 0 0)
(191.952 0 0)
(193.332 0 0)
(194.699 0 0)
(196.055 0 0)
(197.399 0 0)
(198.731 0 0)
(200.052 0 0)
(201.361 0 0)
(202.659 0 0)
(203.946 0 0)
(205.222 0 0)
(206.487 0 0)
(207.741 0 0)
(208.984 0 0)
(210.217 0 0)
(211.439 0 0)
(212.651 0 0)
(213.853 0 0)
(215.044 0 0)
(216.225 0 0)
(217.396 0 0)
(218.557 0 0)
(219.708 0 0)
(220.849 0 0)
(221.981 0 0)
(223.102 0 0)
(224.215 0 0)
(225.317 0 0)
(226.411 0 0)
(227.494 0 0)
(228.569 0 0)
(229.634 0 0)
(230.69 0 0)
(231.737 0 0)
(232.775 0 0)
(233.803 0 0)
(234.823 0 0)
(235.834 0 0)
(236.836 0 0)
(237.829 0 0)
(238.813 0 0)
(239.789 0 0)
(240.756 0 0)
(241.715 0 0)
(242.664 0 0)
(243.606 0 0)
(244.539 0 0)
(245.463 0 0)
(246.379 0 0)
(247.287 0 0)
(248.185 0 0)
(249.079 0 0)
(249.953 0 0)
(250.856 0 0)
(251.636 0 0)
(252.76 0 0)
(158.523 0 0)
(160.149 0 0)
(161.761 0 0)
(163.359 0 0)
(164.943 0 0)
(166.514 0 0)
(168.071 0 0)
(169.614 0 0)
(171.144 0 0)
(172.661 0 0)
(174.164 0 0)
(175.655 0 0)
(177.132 0 0)
(178.597 0 0)
(180.049 0 0)
(181.489 0 0)
(182.917 0 0)
(184.332 0 0)
(185.735 0 0)
(187.126 0 0)
(188.506 0 0)
(189.873 0 0)
(191.23 0 0)
(192.574 0 0)
(193.908 0 0)
(195.23 0 0)
(196.541 0 0)
(197.841 0 0)
(199.13 0 0)
(200.409 0 0)
(201.676 0 0)
(202.934 0 0)
(204.18 0 0)
(205.417 0 0)
(206.643 0 0)
(207.859 0 0)
(209.065 0 0)
(210.261 0 0)
(211.447 0 0)
(212.623 0 0)
(213.789 0 0)
(214.946 0 0)
(216.093 0 0)
(217.231 0 0)
(218.359 0 0)
(219.478 0 0)
(220.588 0 0)
(221.688 0 0)
(222.779 0 0)
(223.861 0 0)
(224.934 0 0)
(225.998 0 0)
(227.054 0 0)
(228.1 0 0)
(229.137 0 0)
(230.166 0 0)
(231.186 0 0)
(232.198 0 0)
(233.2 0 0)
(234.195 0 0)
(235.181 0 0)
(236.158 0 0)
(237.127 0 0)
(238.088 0 0)
(239.04 0 0)
(239.984 0 0)
(240.92 0 0)
(241.848 0 0)
(242.767 0 0)
(243.679 0 0)
(244.582 0 0)
(245.478 0 0)
(246.365 0 0)
(247.244 0 0)
(248.119 0 0)
(248.974 0 0)
(249.857 0 0)
(250.621 0 0)
(251.72 0 0)
(160.401 0 0)
(161.96 0 0)
(163.506 0 0)
(165.04 0 0)
(166.56 0 0)
(168.068 0 0)
(169.563 0 0)
(171.046 0 0)
(172.517 0 0)
(173.975 0 0)
(175.422 0 0)
(176.856 0 0)
(178.279 0 0)
(179.689 0 0)
(181.089 0 0)
(182.476 0 0)
(183.852 0 0)
(185.217 0 0)
(186.571 0 0)
(187.913 0 0)
(189.245 0 0)
(190.566 0 0)
(191.876 0 0)
(193.175 0 0)
(194.464 0 0)
(195.743 0 0)
(197.011 0 0)
(198.269 0 0)
(199.516 0 0)
(200.754 0 0)
(201.982 0 0)
(203.199 0 0)
(204.407 0 0)
(205.606 0 0)
(206.794 0 0)
(207.973 0 0)
(209.143 0 0)
(210.303 0 0)
(211.454 0 0)
(212.596 0 0)
(213.728 0 0)
(214.851 0 0)
(215.966 0 0)
(217.071 0 0)
(218.167 0 0)
(219.255 0 0)
(220.334 0 0)
(221.404 0 0)
(222.465 0 0)
(223.518 0 0)
(224.562 0 0)
(225.597 0 0)
(226.625 0 0)
(227.643 0 0)
(228.654 0 0)
(229.656 0 0)
(230.65 0 0)
(231.635 0 0)
(232.613 0 0)
(233.582 0 0)
(234.543 0 0)
(235.497 0 0)
(236.442 0 0)
(237.379 0 0)
(238.308 0 0)
(239.23 0 0)
(240.144 0 0)
(241.05 0 0)
(241.948 0 0)
(242.838 0 0)
(243.721 0 0)
(244.596 0 0)
(245.464 0 0)
(246.323 0 0)
(247.178 0 0)
(248.014 0 0)
(248.878 0 0)
(249.627 0 0)
(250.701 0 0)
(162.204 0 0)
(163.699 0 0)
(165.182 0 0)
(166.654 0 0)
(168.114 0 0)
(169.562 0 0)
(170.999 0 0)
(172.424 0 0)
(173.838 0 0)
(175.241 0 0)
(176.633 0 0)
(178.013 0 0)
(179.383 0 0)
(180.742 0 0)
(182.09 0 0)
(183.428 0 0)
(184.755 0 0)
(186.071 0 0)
(187.377 0 0)
(188.673 0 0)
(189.959 0 0)
(191.235 0 0)
(192.501 0 0)
(193.756 0 0)
(195.002 0 0)
(196.239 0 0)
(197.465 0 0)
(198.682 0 0)
(199.89 0 0)
(201.088 0 0)
(202.277 0 0)
(203.457 0 0)
(204.627 0 0)
(205.789 0 0)
(206.941 0 0)
(208.084 0 0)
(209.219 0 0)
(210.344 0 0)
(211.461 0 0)
(212.569 0 0)
(213.669 0 0)
(214.759 0 0)
(215.842 0 0)
(216.916 0 0)
(217.981 0 0)
(219.038 0 0)
(220.087 0 0)
(221.127 0 0)
(222.159 0 0)
(223.183 0 0)
(224.199 0 0)
(225.207 0 0)
(226.207 0 0)
(227.199 0 0)
(228.183 0 0)
(229.159 0 0)
(230.127 0 0)
(231.087 0 0)
(232.04 0 0)
(232.985 0 0)
(233.922 0 0)
(234.851 0 0)
(235.773 0 0)
(236.688 0 0)
(237.594 0 0)
(238.494 0 0)
(239.386 0 0)
(240.27 0 0)
(241.147 0 0)
(242.017 0 0)
(242.879 0 0)
(243.734 0 0)
(244.582 0 0)
(245.421 0 0)
(246.257 0 0)
(247.075 0 0)
(247.92 0 0)
(248.652 0 0)
(249.702 0 0)
(163.934 0 0)
(165.369 0 0)
(166.792 0 0)
(168.205 0 0)
(169.607 0 0)
(170.998 0 0)
(172.379 0 0)
(173.749 0 0)
(175.109 0 0)
(176.459 0 0)
(177.798 0 0)
(179.128 0 0)
(180.447 0 0)
(181.756 0 0)
(183.056 0 0)
(184.345 0 0)
(185.625 0 0)
(186.895 0 0)
(188.156 0 0)
(189.407 0 0)
(190.649 0 0)
(191.881 0 0)
(193.104 0 0)
(194.318 0 0)
(195.523 0 0)
(196.718 0 0)
(197.905 0 0)
(199.083 0 0)
(200.252 0 0)
(201.412 0 0)
(202.563 0 0)
(203.706 0 0)
(204.84 0 0)
(205.966 0 0)
(207.083 0 0)
(208.192 0 0)
(209.292 0 0)
(210.384 0 0)
(211.468 0 0)
(212.544 0 0)
(213.611 0 0)
(214.67 0 0)
(215.722 0 0)
(216.765 0 0)
(217.8 0 0)
(218.827 0 0)
(219.847 0 0)
(220.859 0 0)
(221.862 0 0)
(222.859 0 0)
(223.847 0 0)
(224.828 0 0)
(225.801 0 0)
(226.766 0 0)
(227.724 0 0)
(228.675 0 0)
(229.618 0 0)
(230.554 0 0)
(231.482 0 0)
(232.403 0 0)
(233.316 0 0)
(234.222 0 0)
(235.121 0 0)
(236.013 0 0)
(236.898 0 0)
(237.775 0 0)
(238.645 0 0)
(239.509 0 0)
(240.365 0 0)
(241.214 0 0)
(242.056 0 0)
(242.891 0 0)
(243.719 0 0)
(244.54 0 0)
(245.357 0 0)
(246.156 0 0)
(246.982 0 0)
(247.699 0 0)
(248.724 0 0)
(165.596 0 0)
(166.973 0 0)
(168.339 0 0)
(169.695 0 0)
(171.042 0 0)
(172.379 0 0)
(173.707 0 0)
(175.024 0 0)
(176.333 0 0)
(177.632 0 0)
(178.921 0 0)
(180.201 0 0)
(181.472 0 0)
(182.734 0 0)
(183.987 0 0)
(185.23 0 0)
(186.465 0 0)
(187.691 0 0)
(188.907 0 0)
(190.115 0 0)
(191.315 0 0)
(192.505 0 0)
(193.687 0 0)
(194.861 0 0)
(196.026 0 0)
(197.182 0 0)
(198.331 0 0)
(199.47 0 0)
(200.602 0 0)
(201.725 0 0)
(202.841 0 0)
(203.948 0 0)
(205.047 0 0)
(206.138 0 0)
(207.221 0 0)
(208.296 0 0)
(209.364 0 0)
(210.423 0 0)
(211.475 0 0)
(212.519 0 0)
(213.555 0 0)
(214.584 0 0)
(215.605 0 0)
(216.618 0 0)
(217.624 0 0)
(218.623 0 0)
(219.614 0 0)
(220.597 0 0)
(221.574 0 0)
(222.543 0 0)
(223.504 0 0)
(224.459 0 0)
(225.406 0 0)
(226.345 0 0)
(227.278 0 0)
(228.204 0 0)
(229.122 0 0)
(230.034 0 0)
(230.938 0 0)
(231.835 0 0)
(232.726 0 0)
(233.609 0 0)
(234.486 0 0)
(235.355 0 0)
(236.218 0 0)
(237.074 0 0)
(237.923 0 0)
(238.765 0 0)
(239.601 0 0)
(240.43 0 0)
(241.252 0 0)
(242.067 0 0)
(242.876 0 0)
(243.678 0 0)
(244.476 0 0)
(245.257 0 0)
(246.064 0 0)
(246.765 0 0)
(247.767 0 0)
(167.193 0 0)
(168.514 0 0)
(169.826 0 0)
(171.129 0 0)
(172.423 0 0)
(173.708 0 0)
(174.984 0 0)
(176.252 0 0)
(177.511 0 0)
(178.761 0 0)
(180.003 0 0)
(181.236 0 0)
(182.461 0 0)
(183.677 0 0)
(184.885 0 0)
(186.084 0 0)
(187.275 0 0)
(188.458 0 0)
(189.633 0 0)
(190.8 0 0)
(191.958 0 0)
(193.109 0 0)
(194.251 0 0)
(195.386 0 0)
(196.512 0 0)
(197.631 0 0)
(198.742 0 0)
(199.846 0 0)
(200.941 0 0)
(202.029 0 0)
(203.109 0 0)
(204.182 0 0)
(205.247 0 0)
(206.305 0 0)
(207.355 0 0)
(208.397 0 0)
(209.433 0 0)
(210.461 0 0)
(211.481 0 0)
(212.495 0 0)
(213.501 0 0)
(214.5 0 0)
(215.492 0 0)
(216.476 0 0)
(217.454 0 0)
(218.424 0 0)
(219.387 0 0)
(220.344 0 0)
(221.293 0 0)
(222.235 0 0)
(223.171 0 0)
(224.099 0 0)
(225.021 0 0)
(225.936 0 0)
(226.844 0 0)
(227.745 0 0)
(228.639 0 0)
(229.527 0 0)
(230.408 0 0)
(231.283 0 0)
(232.15 0 0)
(233.011 0 0)
(233.866 0 0)
(234.713 0 0)
(235.555 0 0)
(236.389 0 0)
(237.218 0 0)
(238.039 0 0)
(238.855 0 0)
(239.664 0 0)
(240.466 0 0)
(241.262 0 0)
(242.052 0 0)
(242.835 0 0)
(243.614 0 0)
(244.378 0 0)
(245.166 0 0)
(245.851 0 0)
(246.829 0 0)
(168.726 0 0)
(169.995 0 0)
(171.255 0 0)
(172.507 0 0)
(173.751 0 0)
(174.986 0 0)
(176.214 0 0)
(177.434 0 0)
(178.645 0 0)
(179.849 0 0)
(181.045 0 0)
(182.233 0 0)
(183.414 0 0)
(184.586 0 0)
(185.751 0 0)
(186.908 0 0)
(188.058 0 0)
(189.199 0 0)
(190.334 0 0)
(191.46 0 0)
(192.58 0 0)
(193.692 0 0)
(194.796 0 0)
(195.893 0 0)
(196.983 0 0)
(198.065 0 0)
(199.141 0 0)
(200.208 0 0)
(201.269 0 0)
(202.323 0 0)
(203.369 0 0)
(204.409 0 0)
(205.441 0 0)
(206.466 0 0)
(207.484 0 0)
(208.496 0 0)
(209.5 0 0)
(210.497 0 0)
(211.488 0 0)
(212.472 0 0)
(213.448 0 0)
(214.418 0 0)
(215.382 0 0)
(216.338 0 0)
(217.288 0 0)
(218.231 0 0)
(219.167 0 0)
(220.097 0 0)
(221.02 0 0)
(221.937 0 0)
(222.847 0 0)
(223.75 0 0)
(224.647 0 0)
(225.537 0 0)
(226.421 0 0)
(227.299 0 0)
(228.169 0 0)
(229.034 0 0)
(229.892 0 0)
(230.744 0 0)
(231.589 0 0)
(232.428 0 0)
(233.261 0 0)
(234.088 0 0)
(234.908 0 0)
(235.722 0 0)
(236.53 0 0)
(237.331 0 0)
(238.127 0 0)
(238.916 0 0)
(239.699 0 0)
(240.476 0 0)
(241.247 0 0)
(242.011 0 0)
(242.772 0 0)
(243.518 0 0)
(244.287 0 0)
(244.957 0 0)
(245.912 0 0)
(170.201 0 0)
(171.419 0 0)
(172.63 0 0)
(173.833 0 0)
(175.029 0 0)
(176.217 0 0)
(177.398 0 0)
(178.572 0 0)
(179.738 0 0)
(180.898 0 0)
(182.05 0 0)
(183.195 0 0)
(184.333 0 0)
(185.463 0 0)
(186.587 0 0)
(187.703 0 0)
(188.813 0 0)
(189.915 0 0)
(191.01 0 0)
(192.099 0 0)
(193.18 0 0)
(194.255 0 0)
(195.323 0 0)
(196.384 0 0)
(197.438 0 0)
(198.485 0 0)
(199.526 0 0)
(200.56 0 0)
(201.587 0 0)
(202.607 0 0)
(203.621 0 0)
(204.628 0 0)
(205.629 0 0)
(206.623 0 0)
(207.61 0 0)
(208.591 0 0)
(209.565 0 0)
(210.533 0 0)
(211.494 0 0)
(212.449 0 0)
(213.398 0 0)
(214.34 0 0)
(215.275 0 0)
(216.204 0 0)
(217.127 0 0)
(218.044 0 0)
(218.954 0 0)
(219.858 0 0)
(220.755 0 0)
(221.647 0 0)
(222.532 0 0)
(223.41 0 0)
(224.283 0 0)
(225.15 0 0)
(226.01 0 0)
(226.864 0 0)
(227.712 0 0)
(228.554 0 0)
(229.39 0 0)
(230.219 0 0)
(231.043 0 0)
(231.86 0 0)
(232.672 0 0)
(233.478 0 0)
(234.277 0 0)
(235.071 0 0)
(235.858 0 0)
(236.64 0 0)
(237.416 0 0)
(238.186 0 0)
(238.95 0 0)
(239.708 0 0)
(240.461 0 0)
(241.206 0 0)
(241.949 0 0)
(242.677 0 0)
(243.428 0 0)
(244.083 0 0)
(245.014 0 0)
(171.619 0 0)
(172.789 0 0)
(173.952 0 0)
(175.109 0 0)
(176.259 0 0)
(177.402 0 0)
(178.538 0 0)
(179.668 0 0)
(180.792 0 0)
(181.908 0 0)
(183.018 0 0)
(184.122 0 0)
(185.219 0 0)
(186.309 0 0)
(187.393 0 0)
(188.471 0 0)
(189.542 0 0)
(190.606 0 0)
(191.664 0 0)
(192.716 0 0)
(193.761 0 0)
(194.8 0 0)
(195.832 0 0)
(196.858 0 0)
(197.878 0 0)
(198.892 0 0)
(199.899 0 0)
(200.9 0 0)
(201.895 0 0)
(202.883 0 0)
(203.865 0 0)
(204.841 0 0)
(205.811 0 0)
(206.775 0 0)
(207.732 0 0)
(208.683 0 0)
(209.629 0 0)
(210.568 0 0)
(211.501 0 0)
(212.427 0 0)
(213.348 0 0)
(214.263 0 0)
(215.172 0 0)
(216.074 0 0)
(216.971 0 0)
(217.862 0 0)
(218.746 0 0)
(219.625 0 0)
(220.498 0 0)
(221.364 0 0)
(222.225 0 0)
(223.08 0 0)
(223.929 0 0)
(224.772 0 0)
(225.61 0 0)
(226.441 0 0)
(227.267 0 0)
(228.086 0 0)
(228.9 0 0)
(229.708 0 0)
(230.511 0 0)
(231.307 0 0)
(232.098 0 0)
(232.883 0 0)
(233.662 0 0)
(234.436 0 0)
(235.204 0 0)
(235.966 0 0)
(236.722 0 0)
(237.473 0 0)
(238.219 0 0)
(238.958 0 0)
(239.692 0 0)
(240.42 0 0)
(241.145 0 0)
(241.856 0 0)
(242.589 0 0)
(243.229 0 0)
(244.136 0 0)
(172.982 0 0)
(174.107 0 0)
(175.225 0 0)
(176.337 0 0)
(177.443 0 0)
(178.543 0 0)
(179.637 0 0)
(180.725 0 0)
(181.807 0 0)
(182.882 0 0)
(183.952 0 0)
(185.016 0 0)
(186.074 0 0)
(187.126 0 0)
(188.172 0 0)
(189.212 0 0)
(190.246 0 0)
(191.274 0 0)
(192.296 0 0)
(193.312 0 0)
(194.322 0 0)
(195.326 0 0)
(196.325 0 0)
(197.317 0 0)
(198.304 0 0)
(199.285 0 0)
(200.26 0 0)
(201.229 0 0)
(202.192 0 0)
(203.15 0 0)
(204.102 0 0)
(205.047 0 0)
(205.988 0 0)
(206.922 0 0)
(207.85 0 0)
(208.773 0 0)
(209.69 0 0)
(210.601 0 0)
(211.507 0 0)
(212.406 0 0)
(213.3 0 0)
(214.189 0 0)
(215.071 0 0)
(215.948 0 0)
(216.819 0 0)
(217.685 0 0)
(218.545 0 0)
(219.399 0 0)
(220.247 0 0)
(221.09 0 0)
(221.927 0 0)
(222.759 0 0)
(223.585 0 0)
(224.405 0 0)
(225.22 0 0)
(226.029 0 0)
(226.833 0 0)
(227.631 0 0)
(228.424 0 0)
(229.211 0 0)
(229.992 0 0)
(230.768 0 0)
(231.538 0 0)
(232.303 0 0)
(233.063 0 0)
(233.817 0 0)
(234.565 0 0)
(235.308 0 0)
(236.046 0 0)
(236.778 0 0)
(237.505 0 0)
(238.226 0 0)
(238.942 0 0)
(239.652 0 0)
(240.36 0 0)
(241.053 0 0)
(241.768 0 0)
(242.393 0 0)
(243.278 0 0)
(174.294 0 0)
(175.375 0 0)
(176.45 0 0)
(177.519 0 0)
(178.583 0 0)
(179.642 0 0)
(180.695 0 0)
(181.743 0 0)
(182.785 0 0)
(183.822 0 0)
(184.853 0 0)
(185.879 0 0)
(186.899 0 0)
(187.914 0 0)
(188.923 0 0)
(189.927 0 0)
(190.925 0 0)
(191.918 0 0)
(192.906 0 0)
(193.888 0 0)
(194.864 0 0)
(195.836 0 0)
(196.801 0 0)
(197.761 0 0)
(198.716 0 0)
(199.665 0 0)
(200.609 0 0)
(201.548 0 0)
(202.481 0 0)
(203.408 0 0)
(204.331 0 0)
(205.247 0 0)
(206.159 0 0)
(207.064 0 0)
(207.965 0 0)
(208.86 0 0)
(209.75 0 0)
(210.634 0 0)
(211.513 0 0)
(212.386 0 0)
(213.254 0 0)
(214.117 0 0)
(214.974 0 0)
(215.826 0 0)
(216.672 0 0)
(217.513 0 0)
(218.349 0 0)
(219.179 0 0)
(220.004 0 0)
(220.824 0 0)
(221.638 0 0)
(222.447 0 0)
(223.25 0 0)
(224.049 0 0)
(224.841 0 0)
(225.629 0 0)
(226.411 0 0)
(227.188 0 0)
(227.96 0 0)
(228.726 0 0)
(229.487 0 0)
(230.243 0 0)
(230.993 0 0)
(231.738 0 0)
(232.478 0 0)
(233.213 0 0)
(233.943 0 0)
(234.667 0 0)
(235.386 0 0)
(236.1 0 0)
(236.808 0 0)
(237.512 0 0)
(238.21 0 0)
(238.903 0 0)
(239.593 0 0)
(240.269 0 0)
(240.967 0 0)
(241.577 0 0)
(242.439 0 0)
(175.557 0 0)
(176.595 0 0)
(177.629 0 0)
(178.658 0 0)
(179.682 0 0)
(180.701 0 0)
(181.715 0 0)
(182.724 0 0)
(183.728 0 0)
(184.727 0 0)
(185.722 0 0)
(186.711 0 0)
(187.695 0 0)
(188.674 0 0)
(189.649 0 0)
(190.618 0 0)
(191.582 0 0)
(192.541 0 0)
(193.495 0 0)
(194.445 0 0)
(195.389 0 0)
(196.328 0 0)
(197.262 0 0)
(198.191 0 0)
(199.115 0 0)
(200.034 0 0)
(200.948 0 0)
(201.856 0 0)
(202.76 0 0)
(203.659 0 0)
(204.552 0 0)
(205.441 0 0)
(206.324 0 0)
(207.203 0 0)
(208.076 0 0)
(208.944 0 0)
(209.807 0 0)
(210.665 0 0)
(211.518 0 0)
(212.366 0 0)
(213.209 0 0)
(214.047 0 0)
(214.879 0 0)
(215.707 0 0)
(216.529 0 0)
(217.346 0 0)
(218.159 0 0)
(218.966 0 0)
(219.768 0 0)
(220.565 0 0)
(221.356 0 0)
(222.143 0 0)
(222.925 0 0)
(223.701 0 0)
(224.473 0 0)
(225.239 0 0)
(226.001 0 0)
(226.757 0 0)
(227.508 0 0)
(228.254 0 0)
(228.995 0 0)
(229.731 0 0)
(230.462 0 0)
(231.188 0 0)
(231.909 0 0)
(232.625 0 0)
(233.336 0 0)
(234.041 0 0)
(234.742 0 0)
(235.438 0 0)
(236.129 0 0)
(236.814 0 0)
(237.496 0 0)
(238.171 0 0)
(238.844 0 0)
(239.503 0 0)
(240.184 0 0)
(240.779 0 0)
(241.619 0 0)
(176.772 0 0)
(177.771 0 0)
(178.765 0 0)
(179.755 0 0)
(180.741 0 0)
(181.722 0 0)
(182.698 0 0)
(183.67 0 0)
(184.638 0 0)
(185.601 0 0)
(186.56 0 0)
(187.514 0 0)
(188.464 0 0)
(189.409 0 0)
(190.349 0 0)
(191.285 0 0)
(192.216 0 0)
(193.143 0 0)
(194.065 0 0)
(194.983 0 0)
(195.896 0 0)
(196.804 0 0)
(197.707 0 0)
(198.606 0 0)
(199.501 0 0)
(200.39 0 0)
(201.275 0 0)
(202.155 0 0)
(203.031 0 0)
(203.901 0 0)
(204.767 0 0)
(205.629 0 0)
(206.485 0 0)
(207.337 0 0)
(208.184 0 0)
(209.026 0 0)
(209.864 0 0)
(210.696 0 0)
(211.524 0 0)