/*--------------------------------*- C++ -*----------------------------------*\
| =========                 |                                                 |
| \\      /  F ield         | OpenFOAM: The Open Source CFD Toolbox           |
|  \\    /   O peration     | Version:  2312                                  |
|   \\  /    A nd           | Website:  www.openfoam.com                      |
|    \\/     M anipulation  |                                                 |
\*---------------------------------------------------------------------------*/
FoamFile
{
    version     2.0;
    format      ascii;
    arch        "LSB;label=32;scalar=64";
    class       surfaceScalarField;
    location    "0.459";
    object      phi;
}
// * * * * * * * * * * * * * * * * * * * * * * * * * * * * * * * * * * * * * //

dimensions      [0 3 -1 0 0 0 0];

oriented        oriented;

internalField   nonuniform List<scalar> 
62015
(
68.4492
0.359967
-68.3723
68.5161
0.354742
68.5738
0.349224
68.6231
0.34342
68.6649
0.337336
68.6998
0.330979
68.7286
0.324354
68.7519
0.317468
68.7704
0.310328
68.7847
0.302939
68.7954
0.295308
68.803
0.287442
68.808
0.279347
68.811
0.27103
68.8124
0.262497
68.8126
0.253756
68.8122
0.244812
68.8114
0.235673
68.8107
0.226346
68.8105
0.216838
68.811
0.207155
68.8127
0.197305
68.8157
0.187295
68.8205
0.177133
68.8272
0.166826
68.8361
0.15638
68.8475
0.145805
68.8615
0.135106
68.8783
0.124293
68.8981
0.113372
68.921
0.102351
68.9472
0.0912386
68.9768
0.0800428
69.0099
0.0687704
69.0465
0.0574308
69.0867
0.0460309
69.1305
0.0345801
69.1779
0.0230855
69.229
0.011556
69.2837
0
69.3419
-0.0115744
69.4035
-0.0231577
69.4685
-0.0347431
69.5368
-0.04632
69.6081
-0.0578812
69.6823
-0.0694169
69.7592
-0.0809191
69.8386
-0.0923777
69.9202
-0.103785
70.0036
-0.115131
70.0887
-0.126407
70.1749
-0.137602
70.2619
-0.148709
70.3493
-0.159718
70.4365
-0.170618
70.523
-0.181399
70.6082
-0.192052
70.6915
-0.202567
70.772
-0.212933
70.8491
-0.223138
70.9217
-0.233173
70.989
-0.243025
71.0499
-0.252683
71.1031
-0.262135
71.1472
-0.271367
71.1809
-0.280367
71.2024
-0.289118
71.2096
-0.297607
71.1993
-0.305817
71.1691
-0.313725
71.1215
-0.321311
71.0578
-0.328578
70.9464
-0.33552
70.7167
-0.342006
70.4724
-0.347612
70.5108
-0.353201
71.6633
-0.358324
68.8967
-0.373813
-0.355301
65.5645
66.7623
0.713151
-66.7123
66.8041
0.702551
66.8381
0.691392
66.8652
0.679687
66.8861
0.667446
66.9013
0.654681
66.9115
0.641405
66.9174
0.627628
66.9194
0.613363
66.9181
0.598621
66.9141
0.583415
66.9079
0.567758
66.8999
0.55166
66.8905
0.535136
66.8802
0.518197
66.8695
0.500857
66.8586
0.483127
66.848
0.465022
66.8381
0.446554
66.829
0.427738
66.8213
0.408586
66.8151
0.389112
66.8107
0.369329
66.8085
0.349253
66.8085
0.328897
66.8112
0.308275
66.8166
0.287402
66.825
0.266292
66.8365
0.244961
66.8513
0.223422
66.8695
0.201691
66.8913
0.179783
66.9168
0.157713
66.946
0.135496
66.979
0.113149
67.0158
0.0906863
67.0566
0.0681242
67.1013
0.0454782
67.1498
0.022765
67.2023
0
67.2585
-0.0228003
67.3185
-0.0456192
67.3822
-0.0684409
67.4494
-0.0912486
67.5201
-0.114024
67.594
-0.136753
67.671
-0.159417
67.7509
-0.181998
67.8335
-0.204481
67.9184
-0.226847
68.0054
-0.249078
68.0942
-0.271157
68.1843
-0.293065
68.2755
-0.314786
68.3673
-0.336299
68.4591
-0.357587
68.5505
-0.378631
68.6409
-0.39941
68.7296
-0.419906
68.816
-0.440099
68.8993
-0.459966
68.9787
-0.479489
69.0532
-0.498645
69.1218
-0.517409
69.1834
-0.535762
69.2367
-0.553675
69.2802
-0.571125
69.3126
-0.588084
69.3318
-0.604523
69.3349
-0.620411
69.3193
-0.635705
69.2866
-0.650369
69.2424
-0.664382
69.1483
-0.677854
68.998
-0.690106
68.5987
-0.702249
69.0779
-0.708537
69.0274
-0.730062
-0.731488
68.5351
65.1125
1.05957
-65.0869
65.1313
1.04347
65.1437
1.02657
65.1504
1.00889
65.152
0.990436
65.1491
0.971231
65.1423
0.95129
65.132
0.930629
65.1188
0.909266
65.1032
0.887217
65.0857
0.864499
65.0666
0.84113
65.0465
0.817127
65.0257
0.792508
65.0047
0.767291
64.9837
0.741494
64.9632
0.715136
64.9435
0.688236
64.9248
0.660812
64.9076
0.632884
64.8921
0.604471
64.8786
0.575593
64.8672
0.54627
64.8584
0.516521
64.8522
0.486368
64.8489
0.455831
64.8487
0.42493
64.8517
0.393687
64.8581
0.362123
64.8682
0.330259
64.8819
0.298118
64.8994
0.26572
64.9208
0.233088
64.9462
0.200244
64.9756
0.167211
65.0092
0.134011
65.0468
0.100667
65.0886
0.0672011
65.1345
0.0336382
65.1846
0
65.2387
-0.0336894
65.2968
-0.067406
65.3589
-0.101126
65.4248
-0.134827
65.4944
-0.168483
65.5676
-0.20207
65.6443
-0.235564
65.7241
-0.26894
65.807
-0.302173
65.8927
-0.335238
65.9809
-0.368111
66.0713
-0.400764
66.1637
-0.433173
66.2576
-0.465312
66.3527
-0.497154
66.4486
-0.528673
66.5448
-0.55984
66.6408
-0.590631
66.736
-0.621016
66.8299
-0.650967
66.9218
-0.680455
67.0109
-0.709451
67.0965
-0.737924
67.1777
-0.765843
67.2535
-0.793176
67.3228
-0.819888
67.3845
-0.845946
67.4372
-0.871312
67.4796
-0.895946
67.5098
-0.919811
67.5255
-0.942858
67.5226
-0.965043
67.5076
-0.986245
67.4644
-1.00669
67.4425
-1.02559
67.2002
-1.04519
67.0822
-1.05821
67.1346
-1.07699
-1.09085
67.2382
63.4901
1.39911
-63.4863
63.4883
1.37742
63.4814
1.35471
63.4699
1.331
63.4543
1.3063
63.4352
1.28065
63.413
1.25405
63.3883
1.22653
63.3615
1.19811
63.333
1.16881
63.3033
1.13866
63.2727
1.10767
63.2417
1.07587
63.2106
1.04327
63.1799
1.00991
63.1497
0.975806
63.1204
0.94098
63.0924
0.905458
63.066
0.869262
63.0413
0.83242
63.0187
0.794954
62.9985
0.75689
62.9808
0.718253
62.9659
0.679071
62.9539
0.639367
62.9452
0.59917
62.9398
0.558506
62.9379
0.517401
62.9396
0.475884
62.9452
0.433981
62.9546
0.39172
62.9681
0.34913
62.9857
0.306239
63.0075
0.263075
63.0335
0.219668
63.0638
0.176045
63.0985
0.132238
63.1374
0.0882748
63.1807
0.0441855
63.2284
0
63.2803
-0.0442515
63.3364
-0.0885383
63.3967
-0.13283
63.461
-0.177096
63.5294
-0.221306
63.6016
-0.265427
63.6774
-0.309429
63.7569
-0.353279
63.8396
-0.396947
63.9255
-0.4404
64.0143
-0.483606
64.1058
-0.526532
64.1996
-0.569145
64.2955
-0.611412
64.3931
-0.6533
64.492
-0.694776
64.5919
-0.735804
64.6923
-0.77635
64.7926
-0.81638
64.8924
-0.855858
64.9912
-0.894747
65.0882
-0.933011
65.1828
-0.970612
65.2742
-1.00751
65.3616
-1.04367
65.4442
-1.07904
65.5208
-1.11359
65.5903
-1.14727
65.6516
-1.18004
65.7033
-1.21184
65.7442
-1.24261
65.7702
-1.27234
65.7845
-1.30085
65.7698
-1.32838
65.7716
-1.35403
65.7138
-1.37983
65.5783
-1.40212
65.4337
-1.42378
-1.4413
65.5094
61.8915
1.73162
-61.9069
61.8717
1.70428
61.8477
1.67572
61.82
1.64596
61.7892
1.61502
61.7557
1.58292
61.72
1.5497
61.6825
1.51536
61.6436
1.47995
61.6037
1.44347
61.5632
1.40597
61.5224
1.36746
61.4818
1.32797
61.4416
1.28753
61.4021
1.24617
61.3637
1.20391
61.3267
1.16078
61.2913
1.11681
61.2579
1.07203
61.2266
1.02647
61.1977
0.980159
61.1714
0.933126
61.148
0.885403
61.1277
0.837022
61.1106
0.788012
61.0969
0.738406
61.0868
0.688236
61.0804
0.637536
61.0779
0.586337
61.0793
0.534674
61.0849
0.482578
61.0947
0.430086
61.1087
0.37723
61.1271
0.324045
61.15
0.270567
61.1772
0.216829
61.209
0.162868
61.2453
0.108718
61.286
0.054417
61.3313
0
61.381
-0.0544965
61.4351
-0.109036
61.4935
-0.163582
61.5563
-0.218096
61.6232
-0.272543
61.6942
-0.326883
61.7691
-0.381079
61.8478
-0.435094
61.9302
-0.488889
62.0159
-0.542425
62.1049
-0.595664
62.1969
-0.648566
62.2917
-0.701094
62.3889
-0.753206
62.4883
-0.804863
62.5895
-0.856025
62.6922
-0.906652
62.7959
-0.956702
62.9003
-1.00613
63.0049
-1.0549
63.1092
-1.10297
63.2126
-1.15029
63.3146
-1.19683
63.4144
-1.24252
63.5115
-1.28734
63.6049
-1.33122
63.6938
-1.37413
63.7774
-1.41601
63.8545
-1.45681
63.9239
-1.49648
63.9849
-1.53494
64.0344
-1.57218
64.0747
-1.60802
64.0943
-1.64266
64.1041
-1.67544
64.105
-1.70717
64.0792
-1.73696
63.9435
-1.76591
-1.78764
63.9905
60.3163
2.057
-60.3486
60.2806
2.02399
60.2416
1.98956
60.1998
1.95375
60.1557
1.91657
60.1096
1.87807
60.062
1.83826
60.0132
1.79716
59.9637
1.75482
59.9137
1.71126
59.8637
1.66651
59.814
1.62059
59.7648
1.57354
59.7165
1.52539
59.6695
1.47617
59.6238
1.42591
59.58
1.37465
59.5381
1.32241
59.4984
1.26924
59.4613
1.21516
59.4268
1.16021
59.3952
1.10442
59.3667
1.04784
59.3415
0.990487
59.3198
0.932411
59.3017
0.873644
59.2873
0.814223
59.2769
0.754188
59.2706
0.693575
59.2683
0.632423
59.2704
0.57077
59.2768
0.508657
59.2876
0.446124
59.3029
0.383208
59.3227
0.319953
59.3472
0.256398
59.3763
0.192583
59.41
0.128551
59.4483
0.0643425
59.4913
0
59.5389
-0.0644346
59.591
-0.128919
59.6476
-0.19341
59.7087
-0.257865
59.7741
-0.322241
59.8438
-0.386494
59.9176
-0.450581
59.9954
-0.514457
60.0771
-0.57808
60.1625
-0.641403
60.2513
-0.704383
60.3435
-0.766975
60.4387
-0.829133
60.5368
-0.890812
60.6374
-0.951966
60.7403
-1.01255
60.8451
-1.07252
60.9514
-1.13182
61.059
-1.19041
61.1674
-1.24824
61.2761
-1.30527
61.3848
-1.36144
61.4927
-1.4167
61.5995
-1.471
61.7044
-1.5243
61.8069
-1.57654
61.9061
-1.62766
62.0013
-1.67761
62.0916
-1.72633
62.1758
-1.77377
62.2535
-1.81985
62.3223
-1.86454
62.3828
-1.9077
62.4314
-1.94939
62.4657
-1.98932
62.484
-2.02765
62.5107
-2.06373
62.447
-2.0999
-2.12787
62.5224
58.7653
2.37518
-58.8123
58.7157
2.33648
58.6636
2.29619
58.6094
2.25435
58.5536
2.21098
58.4965
2.16611
58.4384
2.11977
58.3798
2.07199
58.321
2.02281
58.2623
1.97226
58.2039
1.92036
58.1463
1.86715
58.0897
1.81267
58.0344
1.75695
57.9806
1.70003
57.9287
1.64193
57.8788
1.5827
57.8312
1.52238
57.7861
1.461
57.7438
1.3986
57.7044
1.33522
57.6681
1.27089
57.6352
1.20567
57.6057
1.13958
57.5799
1.07267
57.5578
1.00499
57.5398
0.936567
57.5257
0.86745
57.5159
0.797683
57.5104
0.727309
57.5092
0.65637
57.5125
0.584912
57.5204
0.51298
57.5329
0.440617
57.55
0.367871
57.5718
0.294787
57.5984
0.221411
57.6297
0.14779
57.6658
0.0739709
57.7066
0
57.7521
-0.0740744
57.8023
-0.148204
57.8571
-0.222342
57.9165
-0.296439
57.9804
-0.370446
58.0487
-0.444316
58.1213
-0.517997
58.1981
-0.591442
58.2789
-0.664601
58.3637
-0.737424
58.4522
-0.80986
58.5442
-0.881859
58.6395
-0.953372
58.738
-1.02435
58.8394
-1.09473
58.9434
-1.16448
59.0497
-1.23353
59.158
-1.30184
59.268
-1.36935
59.3794
-1.43601
59.4916
-1.50177
59.6044
-1.56657
59.7173
-1.63036
59.8297
-1.69308
59.9411
-1.75468
60.051
-1.8151
60.1586
-1.87428
60.2634
-1.93216
60.3646
-1.98868
60.4613
-2.04378
60.5528
-2.09739
60.6377
-2.14944
60.7153
-2.19986
60.7843
-2.24859
60.8444
-2.29549
60.8852
-2.34071
60.9336
-2.38324
60.9172
-2.42587
-2.46039
61.0225
57.2396
2.68613
-57.2993
57.1778
2.64175
57.1143
2.59563
57.0493
2.54779
56.9833
2.49826
56.9166
2.44709
56.8495
2.3943
56.7823
2.33992
56.7154
2.284
56.649
2.22655
56.5834
2.16763
56.519
2.10726
56.4559
2.04548
56.3944
1.98233
56.3348
1.91786
56.2774
1.85209
56.2222
1.78507
56.1697
1.71684
56.1198
1.64744
56.073
1.57692
56.0293
1.50531
55.9889
1.43266
55.952
1.35901
55.9188
1.28441
55.8893
1.20891
55.8638
1.13254
55.8424
1.05536
55.8252
0.977416
55.8123
0.89875
55.8038
0.819412
55.7998
0.739451
55.8003
0.658916
55.8055
0.577857
55.8154
0.496323
55.83
0.414365
55.8495
0.332033
55.8737
0.249379
55.9028
0.166454
55.9367
0.0833104
55.9754
0
56.019
-0.0834245
56.0673
-0.16691
56.1203
-0.250404
56.1781
-0.333853
56.2404
-0.417203
56.3073
-0.5004
56.3786
-0.58339
56.4542
-0.666118
56.5341
-0.748531
56.618
-0.830572
56.7059
-0.912187
56.7975
-0.993321
56.8927
-1.07392
56.9913
-1.15392
57.093
-1.23328
57.1976
-1.31193
57.3049
-1.38982
57.4147
-1.46689
57.5265
-1.54308
57.64
-1.61834
57.755
-1.69261
57.8711
-1.76583
57.9878
-1.83794
58.1047
-1.90889
58.2214
-1.9786
58.3373
-2.04703
58.4519
-2.1141
58.5647
-2.17976
58.6748
-2.24394
58.7818
-2.30658
58.8848
-2.36759
58.9829
-2.42693
59.0753
-2.4845
59.1604
-2.54026
59.2398
-2.59403
59.304
-2.64605
59.3724
-2.69524
59.3864
-2.74429
-2.78516
59.5099
55.7402
2.98985
-55.8111
55.6679
2.93982
55.5944
2.88789
55.5201
2.8341
55.4452
2.77849
55.3702
2.72109
55.2952
2.66192
55.2206
2.60104
55.1466
2.53846
55.0736
2.47424
55.0018
2.40841
54.9314
2.34101
54.8627
2.27207
54.7959
2.20165
54.7313
2.12978
54.669
2.05651
54.6094
1.98187
54.5525
1.90591
54.4985
1.82869
54.4477
1.75023
54.4003
1.6706
54.3563
1.58983
54.316
1.50798
54.2795
1.42509
54.2469
1.34122
54.2183
1.25641
54.194
1.17071
54.1739
1.08418
54.1583
0.99686
54.1471
0.908812
54.1405
0.820086
54.1386
0.730735
54.1414
0.640813
54.1489
0.550374
54.1613
0.459474
54.1785
0.368168
54.2006
0.276511
54.2276
0.18456
54.2594
0.0923705
54.2962
0
54.3378
-0.0924944
54.3843
-0.185055
54.4357
-0.277624
54.4917
-0.370144
54.5525
-0.462555
54.6179
-0.5548
54.6879
-0.64682
54.7623
-0.738555
54.841
-0.829945
54.924
-0.920933
55.011
-1.01146
55.102
-1.10146
55.1968
-1.19088
55.2951
-1.27965
55.3969
-1.36772
55.5018
-1.45502
55.6097
-1.5415
55.7202
-1.6271
55.8333
-1.71174
55.9485
-1.79537
56.0655
-1.87794
56.184
-1.95936
56.3037
-2.03959
56.4242
-2.11856
56.5451
-2.1962
56.6659
-2.27246
56.7861
-2.34726
56.9053
-2.42053
57.0228
-2.49222
57.1382
-2.56226
57.2507
-2.63056
57.3595
-2.69706
57.4642
-2.76169
57.5631
-2.82439
57.6575
-2.88497
57.7404
-2.94367
57.8277
-2.99949
57.8675
-3.05501
-3.10224
58.0044
54.268
3.28634
-54.3486
54.1866
3.2307
54.1046
3.17303
54.0221
3.11336
53.9397
3.05173
53.8574
2.98817
53.7756
2.92272
53.6946
2.85542
53.6146
2.78632
53.5359
2.71543
53.4586
2.64282
53.3832
2.56852
53.3096
2.49258
53.2383
2.41503
53.1693
2.33592
53.1029
2.25531
53.0393
2.17322
52.9787
2.08973
52.9212
2.00486
52.867
1.91867
52.8163
1.83121
52.7693
1.74254
52.726
1.65269
52.6866
1.56173
52.6512
1.46971
52.62
1.37668
52.5931
1.2827
52.5706
1.18782
52.5525
1.0921
52.539
0.995584
52.5301
0.898343
52.5259
0.80043
52.5265
0.701903
52.5319
0.60282
52.5422
0.503241
52.5573
0.403225
52.5774
0.302833
52.6024
0.202123
52.6324
0.101159
52.6673
0
52.7072
-0.101292
52.7519
-0.202655
52.8015
-0.304026
52.8559
-0.405344
52.9152
-0.506544
52.9791
-0.607565
53.0476
-0.708344
53.1207
-0.808816
53.1983
-0.908919
53.2801
-1.00859
53.3662
-1.10776
53.4564
-1.20637
53.5505
-1.30435
53.6483
-1.40164
53.7498
-1.49817
53.8546
-1.59389
53.9627
-1.68872
54.0737
-1.7826
54.1874
-1.87546
54.3037
-1.96724
54.4221
-2.05788
54.5425
-2.1473
54.6644
-2.23544
54.7876
-2.32223
54.9117
-2.40761
55.0363
-2.49151
55.161
-2.57386
55.2854
-2.6546
55.4089
-2.73364
55.5311
-2.81092
55.6513
-2.88638
55.769
-2.95993
55.8837
-3.03149
55.994
-3.10101
56.101
-3.16833
56.1986
-3.23365
56.3012
-3.29599
56.3631
-3.35791
-3.41152
56.511
52.8239
3.57566
-52.9128
52.7347
3.51446
52.6452
3.4511
52.5558
3.38562
52.4668
3.31805
52.3783
3.24843
52.2907
3.1768
52.2042
3.10319
52.1191
3.02766
52.0354
2.95024
51.9536
2.87098
51.8737
2.78992
51.7961
2.70711
51.7208
2.62259
51.6481
2.5364
51.5782
2.44861
51.5113
2.35926
51.4475
2.2684
51.387
2.17608
51.3299
2.08235
51.2764
1.98726
51.2267
1.89088
51.1808
1.79325
51.1389
1.69444
51.1012
1.59449
51.0677
1.49347
51.0385
1.39143
51.0137
1.28843
50.9935
1.18454
50.9779
1.0798
50.967
0.974292
50.9608
0.868064
50.9594
0.761181
50.9629
0.653708
50.9713
0.545705
50.9845
0.437237
51.0028
0.328368
51.026
0.219162
51.0542
0.109684
51.0873
0
51.1254
-0.109825
51.1685
-0.219725
51.2164
-0.329634
51.2692
-0.439485
51.3269
-0.549211
51.3893
-0.658745
51.4564
-0.76802
51.5281
-0.876968
51.6043
-0.985522
51.685
-1.09361
51.77
-1.20117
51.8591
-1.30814
51.9524
-1.41443
52.0495
-1.51999
52.1504
-1.62475
52.2549
-1.72864
52.3628
-1.83158
52.4738
-1.93351
52.5879
-2.03437
52.7047
-2.13408
52.824
-2.23257
52.9456
-2.32977
53.0691
-2.42562
53.1943
-2.52004
53.3208
-2.61297
53.4484
-2.70433
53.5765
-2.79406
53.705
-2.88208
53.8332
-2.96831
53.9608
-3.0527
54.0874
-3.13515
54.2122
-3.21561
54.335
-3.29399
54.4547
-3.37023
54.572
-3.44416
54.6817
-3.516
54.7965
-3.58478
54.8766
-3.65301
-3.71295
55.0331
51.4083
3.85785
-51.5044
51.3124
3.79117
51.2166
3.72219
51.1213
3.65097
51.0267
3.57755
50.933
3.50196
50.8404
3.42425
50.7492
3.34445
50.6597
3.26262
50.5719
3.17879
50.4861
3.09301
50.4026
3.00532
50.3214
2.91579
50.2429
2.82445
50.1671
2.73135
50.0942
2.63655
50.0244
2.5401
49.9579
2.44205
49.8948
2.34246
49.8353
2.24138
49.7794
2.13887
49.7274
2.03498
49.6793
1.92978
49.6353
1.82331
49.5955
1.71565
49.56
1.60686
49.5289
1.49699
49.5022
1.3861
49.4801
1.27427
49.4627
1.16154
49.4499
1.048
49.4419
0.933696
49.4388
0.818702
49.4405
0.703082
49.4471
0.586903
49.4587
0.470234
49.4752
0.35314
49.4967
0.23569
49.5232
0.117954
49.5547
0
49.5911
-0.118103
49.6325
-0.236284
49.6789
-0.354473
49.7301
-0.4726
49.7862
-0.590595
49.847
-0.708386
49.9127
-0.825903
49.983
-0.943074
50.0578
-1.05983
50.1372
-1.17609
50.2209
-1.29179
50.309
-1.40686
50.4012
-1.52123
50.4974
-1.63482
50.5975
-1.74756
50.7014
-1.85938
50.8088
-1.97021
50.9196
-2.07997
51.0335
-2.1886
51.1505
-2.29601
51.2702
-2.40215
51.3925
-2.50693
51.517
-2.61028
51.6435
-2.71213
51.7718
-2.81242
51.9015
-2.91106
52.0323
-3.00798
52.1638
-3.10311
52.2957
-3.19638
52.4276
-3.2877
52.5592
-3.37701
52.6897
-3.46424
52.8191
-3.54929
52.9462
-3.63212
53.0719
-3.71255
53.1916
-3.7908
53.3164
-3.86592
53.4112
-3.94034
-4.00656
53.5743
50.0218
4.13299
-50.1238
49.9201
4.06088
49.819
3.98637
49.7186
3.90951
49.6193
3.83033
49.5211
3.74887
49.4244
3.66519
49.3293
3.57931
49.236
3.49129
49.1448
3.40118
49.0558
3.30902
48.9691
3.21486
48.885
3.11875
48.8037
3.02074
48.7253
2.92089
48.6499
2.81925
48.5778
2.71587
48.509
2.61081
48.4438
2.50413
48.3822
2.39589
48.3243
2.28614
48.2704
2.17494
48.2205
2.06236
48.1747
1.94846
48.1331
1.8333
48.0959
1.71694
48.063
1.59946
48.0347
1.48091
48.011
1.36136
47.9919
1.24087
47.9776
1.11953
47.968
0.997384
47.9632
0.874515
47.9634
0.750988
47.9684
0.626875
47.9784
0.502246
47.9933
0.377171
48.0132
0.251724
48.0381
0.125976
48.068
0
48.1029
-0.126131
48.1427
-0.252344
48.1874
-0.378565
48.2371
-0.50472
48.2916
-0.630735
48.351
-0.756535
48.4151
-0.882046
48.4839
-1.00719
48.5574
-1.1319
48.6354
-1.25609
48.7178
-1.3797
48.8046
-1.50264
48.8956
-1.62483
48.9908
-1.74622
49.0899
-1.86671
49.1929
-1.98624
49.2995
-2.10472
49.4098
-2.22209
49.5233
-2.33827
49.6401
-2.45318
49.7598
-2.56674
49.8823
-2.67889
50.0073
-2.78955
50.1346
-2.89864
50.264
-3.00609
50.3951
-3.11183
50.5278
-3.21576
50.6616
-3.31784
50.7963
-3.41796
50.9315
-3.51607
51.0669
-3.61208
51.2019
-3.70593
51.3365
-3.79751
51.4696
-3.8868
51.602
-3.9736
51.7297
-4.05813
51.8624
-4.13948
51.9695
-4.21999
-4.29238
52.1375
48.6645
4.40116
-48.7716
48.558
4.32371
48.4524
4.24375
48.3478
4.16133
48.2445
4.07649
48.1427
3.98927
48.0425
3.89972
47.9441
3.80789
47.8478
3.71381
47.7537
3.61755
47.6619
3.51914
47.5727
3.41864
47.4863
3.31611
47.4027
3.21159
47.3221
3.10514
47.2447
2.99683
47.1706
2.88669
47.1
2.7748
47.0329
2.66121
46.9696
2.54599
46.9101
2.42919
46.8546
2.31088
46.8031
2.19112
46.7558
2.06998
46.7127
1.94753
46.674
1.82382
46.6398
1.69893
46.61
1.57293
46.5849
1.44588
46.5644
1.31786
46.5486
1.18894
46.5376
1.05919
46.5314
0.928671
46.5301
0.797469
46.5337
0.665655
46.5422
0.533302
46.5557
0.400485
46.5741
0.267278
46.5975
0.133758
46.6259
0
46.6593
-0.133919
46.6976
-0.267923
46.7408
-0.401934
46.7889
-0.535875
46.8419
-0.669668
46.8998
-0.803236
46.9624
-0.936501
47.0297
-1.06938
47.1017
-1.20181
47.1782
-1.33369
47.2592
-1.46496
47.3447
-1.59554
47.4344
-1.72534
47.5283
-1.85428
47.6263
-1.9823
47.7282
-2.10931
47.8339
-2.23523
47.9433
-2.35999
48.0562
-2.48351
48.1724
-2.6057
48.2918
-2.72649
48.4141
-2.84581
48.5392
-2.96358
48.6668
-3.07971
48.7967
-3.19414
48.9288
-3.30678
49.0626
-3.41756
49.198
-3.52639
49.3346
-3.63322
49.4722
-3.73794
49.6105
-3.8405
49.749
-3.94081
49.8875
-4.03879
50.0253
-4.13438
50.1631
-4.22743
50.2971
-4.31811
50.4362
-4.40555
50.5532
-4.49203
-4.57049
50.7247
47.3366
4.66244
-47.448
47.2261
4.57973
47.1168
4.49441
47.0087
4.40654
46.9022
4.31614
46.7973
4.22328
46.6942
4.12798
46.5932
4.03031
46.4944
3.9303
46.3979
3.82801
46.304
3.7235
46.2128
3.61681
46.1244
3.508
46.0389
3.39712
45.9566
3.28424
45.8776
3.16941
45.8019
3.05268
45.7298
2.93413
45.6613
2.81381
45.5966
2.69179
45.5358
2.56813
45.4789
2.4429
45.4262
2.31616
45.3776
2.18798
45.3333
2.05843
45.2934
1.92757
45.2579
1.79549
45.227
1.66225
45.2006
1.52792
45.1789
1.39258
45.1618
1.2563
45.1496
1.11915
45.1421
0.981218
45.1395
0.842567
45.1418
0.703279
45.149
0.563431
45.1611
0.423101
45.1782
0.282366
45.2002
0.141306
45.2271
0
45.259
-0.141473
45.2958
-0.283033
45.3376
-0.4246
45.3842
-0.566092
45.4357
-0.70743
45.492
-0.848533
45.5531
-0.989319
45.6189
-1.12971
45.6893
-1.26961
45.7644
-1.40896
45.8439
-1.54767
45.9279
-1.68565
46.0162
-1.82283
46.1088
-1.95912
46.2055
-2.09444
46.3062
-2.22872
46.4108
-2.36186
46.5191
-2.49379
46.6311
-2.62444
46.7465
-2.75371
46.8652
-2.88153
46.987
-3.00782
47.1117
-3.13249
47.2393
-3.25548
47.3693
-3.37669
47.5017
-3.49606
47.6362
-3.6135
47.7725
-3.72893
47.9104
-3.84228
48.0497
-3.95346
48.19
-4.0624
48.331
-4.16902
48.4725
-4.27324
48.6139
-4.375
48.7557
-4.47415
48.8948
-4.57085
49.0388
-4.66426
49.1638
-4.75658
-4.841
49.3377
46.0381
4.91694
-46.153
45.9244
4.82906
45.8121
4.73848
45.7012
4.64525
45.592
4.54941
45.4847
4.451
45.3793
4.35008
45.2762
4.24668
45.1754
4.14088
45.0771
4.0327
44.9814
3.92222
44.8886
3.80948
44.7986
3.69454
44.7118
3.57746
44.6281
3.4583
44.5478
3.33711
44.4709
3.21397
44.3976
3.08893
44.328
2.96205
44.2622
2.83341
44.2003
2.70307
44.1424
2.5711
44.0886
2.43756
44.0391
2.30254
43.9938
2.16609
43.9528
2.02829
43.9163
1.88922
43.8843
1.74895
43.8569
1.60754
43.8341
1.46509
43.816
1.32167
43.8027
1.17734
43.7941
1.0322
43.7903
0.886323
43.7914
0.739782
43.7974
0.592661
43.8082
0.445041
43.824
0.297003
43.8446
0.148629
43.8702
-2.98778e-07
43.9007
-0.1488
43.9362
-0.29769
43.9765
-0.446585
44.0216
-0.595402
44.0716
-0.744057
44.1264
-0.892467
44.186
-1.04055
44.2502
-1.18822
44.3192
-1.33538
44.3927
-1.48197
44.4707
-1.62789
44.5532
-1.77306
44.64
-1.9174
44.7311
-2.06081
44.8264
-2.20323
44.9257
-2.34455
45.029
-2.48471
45.1361
-2.62361
45.2469
-2.76118
45.3612
-2.89733
45.479
-3.03197
45.6
-3.16503
45.7241
-3.29643
45.8512
-3.42608
45.9809
-3.5539
46.1132
-3.67981
46.2478
-3.80373
46.3845
-3.92558
46.5232
-4.04529
46.6634
-4.16276
46.805
-4.27793
46.9478
-4.39071
47.0914
-4.50101
47.2354
-4.6088
47.3802
-4.7139
47.5231
-4.81648
47.6709
-4.91573
47.8023
-5.01375
-5.10401
47.9776
44.7692
5.16475
-44.8869
44.6529
5.0718
44.5381
4.97606
44.425
4.87758
44.3137
4.7764
44.2045
4.67257
44.0974
4.56613
43.9926
4.45715
43.8902
4.34567
43.7905
4.23174
43.6935
4.11543
43.5994
3.99678
43.5084
3.87586
43.4204
3.75273
43.3357
3.62744
43.2544
3.50007
43.1766
3.37066
43.1025
3.2393
43.032
3.10604
42.9654
2.97096
42.9027
2.83412
42.844
2.69559
42.7894
2.55545
42.739
2.41376
42.6929
2.27061
42.6512
2.12606
42.6138
1.9802
42.581
1.83309
42.5527
1.68482
42.529
1.53546
42.51
1.3851
42.4957
1.23381
42.4861
1.08167
42.4813
0.928775
42.4813
0.775196
42.4861
0.621018
42.4958
0.466325
42.5103
0.311202
42.5298
0.155732
42.5541
0
42.5833
-0.155908
42.6173
-0.311906
42.6562
-0.467909
42.6999
-0.62383
42.7485
-0.779583
42.8018
-0.93508
42.8598
-1.09024
42.9225
-1.24496
42.9899
-1.39918
43.0618
-1.55279
43.1383
-1.7057
43.2192
-1.85785
43.3045
-2.00913
43.394
-2.15946
43.4878
-2.30875
43.5856
-2.45693
43.6874
-2.60389
43.7932
-2.74956
43.9026
-2.89385
44.0157
-3.03668
44.1324
-3.17795
44.2523
-3.3176
44.3755
-3.45552
44.5017
-3.59165
44.6308
-3.72589
44.7626
-3.85817
44.8969
-3.9884
45.0336
-4.1165
45.1724
-4.2424
45.313
-4.366
45.4554
-4.48723
45.5992
-4.60601
45.7442
-4.72225
45.89
-4.83591
46.0369
-4.94682
46.1827
-5.05514
46.3331
-5.1601
46.4695
-5.26368
-5.35965
46.6455
43.5295
5.406
-43.6495
43.4112
5.30808
43.2946
5.20728
43.1797
5.10365
43.0669
4.99724
42.9562
4.8881
42.8478
4.77628
42.7418
4.66183
42.6384
4.54481
42.5376
4.42526
42.4397
4.30325
42.3447
4.17884
42.2528
4.05209
42.1641
3.92305
42.0787
3.79179
41.9968
3.65838
41.9183
3.52289
41.8435
3.38537
41.7725
3.24589
41.7053
3.10454
41.642
2.96137
41.5827
2.81647
41.5275
2.6699
41.4765
2.52174
41.4298
2.37207
41.3874
2.22096
41.3494
2.0685
41.3159
1.91475
41.2868
1.75981
41.2624
1.60375
41.2426
1.44665
41.2274
1.28859
41.2169
1.12967
41.2112
0.969963
41.2102
0.809553
41.214
0.648527
41.2226
0.486973
41.236
0.324975
41.2543
0.162621
41.2774
0
41.3053
-0.162802
41.338
-0.325696
41.3756
-0.488592
41.4179
-0.651403
41.465
-0.814039
41.5168
-0.976411
41.5734
-1.13843
41.6346
-1.30001
41.7004
-1.46105
41.7707
-1.62147
41.8456
-1.78118
41.9248
-1.94009
42.0085
-2.09811
42.0964
-2.25515
42.1886
-2.41112
42.2848
-2.56593
42.3851
-2.71951
42.4893
-2.87174
42.5973
-3.02256
42.7089
-3.17188
42.8242
-3.31959
42.9429
-3.46563
43.0649
-3.60991
43.19
-3.75233
43.3182
-3.89282
43.4492
-4.03129
43.5829
-4.16765
43.719
-4.30183
43.8575
-4.43375
43.9981
-4.56331
44.1407
-4.69045
44.2849
-4.81508
44.4307
-4.93711
44.5775
-5.05649
44.7258
-5.17306
44.8735
-5.28698
45.0258
-5.39749
45.166
-5.50651
-5.60805
45.3419
42.3191
5.6408
-42.4407
42.1993
5.53801
42.0813
5.43225
41.9652
5.32359
41.8512
5.21206
41.7395
5.09773
41.6302
4.98064
41.5234
4.86085
41.4192
4.73841
41.3178
4.61338
41.2192
4.48582
41.1237
4.35578
41.0313
4.22334
40.9421
4.08855
40.8563
3.95147
40.7739
3.81219
40.6951
3.67075
40.6199
3.52724
40.5485
3.38172
40.4809
3.23426
40.4172
3.08494
40.3575
2.93384
40.3019
2.78102
40.2505
2.62657
40.2033
2.47056
40.1605
2.31308
40.1219
2.1542
40.0879
1.99401
40.0582
1.83258
40.0331
1.67001
40.0126
1.50637
39.9967
1.34175
39.9855
1.17624
39.9789
1.00992
39.977
0.842885
39.9799
0.675215
39.9875
0.507002
39.9999
0.338336
40.0171
0.169305
40.039
0
40.0657
-0.169489
40.0972
-0.339071
40.1334
-0.508654
40.1744
-0.678147
40.2201
-0.84746
40.2704
-1.0165
40.3255
-1.18517
40.3851
-1.35339
40.4493
-1.52106
40.5181
-1.68809
40.5913
-1.85439
40.6689
-2.01986
40.7509
-2.18441
40.8372
-2.34796
40.9276
-2.51041
41.0222
-2.67168
41.1208
-2.83166
41.2234
-2.99028
41.3298
-3.14743
41.4399
-3.30304
41.5536
-3.45702
41.6708
-3.60927
41.7914
-3.75971
41.9153
-3.90825
42.0422
-4.0548
42.1721
-4.19929
42.3048
-4.34162
42.4402
-4.48172
42.578
-4.61949
42.7181
-4.75486
42.8604
-4.88774
43.0045
-5.01806
43.1505
-5.14572
43.2978
-5.27067
43.4468
-5.39277
43.5957
-5.51214
43.7491
-5.62807
43.8921
-5.74238
-5.84936
44.0673
41.1376
5.86928
-41.2604
41.0168
5.76171
40.8978
5.6511
40.7809
5.53751
40.6662
5.42099
40.5539
5.30158
40.444
5.17935
40.3367
5.05434
40.2321
4.92661
40.1303
4.79623
40.0315
4.66325
39.9357
4.52773
39.843
4.38974
39.7536
4.24934
39.6676
4.1066
39.585
3.96159
39.506
3.81437
39.4307
3.66502
39.3591
3.51362
39.2913
3.36022
39.2274
3.20492
39.1675
3.04779
39.1117
2.8889
39.06
2.72833
39.0125
2.56617
38.9693
2.40249
38.9304
2.23738
38.8959
2.07093
38.8658
1.90321
38.8402
1.73431
38.8191
1.56432
38.8026
1.39333
38.7906
1.22143
38.7833
1.04869
38.7807
0.875222
38.7827
0.701106
38.7894
0.526433
38.8008
0.351297
38.8169
0.175788
38.8378
0
38.8633
-0.175975
38.8936
-0.352044
38.9285
-0.528113
38.9682
-0.704088
39.0125
-0.879875
39.0614
-1.05538
39.115
-1.23051
39.1731
-1.40517
39.2357
-1.57927
39.3029
-1.7527
39.3744
-1.92539
39.4504
-2.09723
39.5307
-2.26813
39.6152
-2.43799
39.704
-2.60673
39.7968
-2.77425
39.8937
-2.94046
39.9945
-3.10526
40.0991
-3.26857
40.2075
-3.43029
40.3196
-3.59034
40.4352
-3.74862
40.5542
-3.90505
40.6766
-4.05953
40.8021
-4.21199
40.9306
-4.36232
41.0621
-4.51045
41.1963
-4.65629
41.3331
-4.79976
41.4724
-4.94078
41.614
-5.07925
41.7577
-5.2151
41.9033
-5.34825
42.0506
-5.47863
42.1997
-5.60609
42.3491
-5.73077
42.503
-5.85198
42.648
-5.97144
-6.08372
42.822
39.9849
6.09155
-40.1084
39.8634
5.97931
39.7439
5.86396
39.6265
5.74555
39.5115
5.62414
39.3988
5.49978
39.2887
5.37252
39.1812
5.24242
39.0765
5.10954
38.9746
4.97393
38.8757
4.83567
38.7799
4.69481
38.6873
4.55141
38.5979
4.40555
38.5119
4.25729
38.4293
4.1067
38.3504
3.95386
38.275
3.79883
38.2034
3.6417
38.1356
3.48253
38.0717
3.32141
38.0118
3.15841
37.9559
2.99362
37.904
2.82711
37.8564
2.65896
37.813
2.48927
37.7738
2.31811
37.739
2.14557
37.7085
1.97174
37.6825
1.79671
37.6609
1.62056
37.6439
1.44338
37.6314
1.26527
37.6234
1.08631
37.62
0.906595
37.6213
0.726223
37.6271
0.545283
37.6376
0.36387
37.6528
0.182077
37.6726
-2.98783e-07
37.697
-0.182267
37.7261
-0.364627
37.7598
-0.546987
37.7982
-0.729248
37.8411
-0.911316
37.8887
-1.09309
37.9407
-1.27448
37.9974
-1.45539
38.0584
-1.63572
38.124
-1.81538
38.1939
-1.99426
38.2681
-2.17227
38.3467
-2.34932
38.4295
-2.52531
38.5164
-2.70015
38.6075
-2.87374
38.7025
-3.04599
38.8015
-3.2168
38.9044
-3.38608
39.011
-3.55374
39.1212
-3.71968
39.2351
-3.88382
39.3524
-4.04606
39.4731
-4.20632
39.5969
-4.3645
39.724
-4.52051
39.8539
-4.67428
39.9868
-4.82571
40.1223
-4.97472
40.2605
-5.12121
40.401
-5.26512
40.5438
-5.40636
40.6887
-5.54484
40.8355
-5.68049
40.9843
-5.81319
41.1337
-5.94303
41.2874
-6.06938
41.4337
-6.19386
-6.3113
41.6061
38.8605
6.30774
-38.9843
38.7387
6.19093
38.619
6.07095
38.5015
5.94784
38.3864
5.82166
38.2738
5.69245
38.1637
5.56029
38.0563
5.42523
37.9518
5.28731
37.85
5.14662
37.7513
5.0032
37.6557
4.85713
37.5633
4.70847
37.4741
4.55729
37.3883
4.40366
37.306
4.24764
37.2273
4.08933
37.1521
3.92878
37.0807
3.76607
37.013
3.60129
36.9492
3.43451
36.8893
3.26581
36.8335
3.09528
36.7816
2.92299
36.7339
2.74903
36.6904
2.57349
36.6511
2.39646
36.6161
2.21801
36.5854
2.03825
36.559
1.85725
36.5371
1.67512
36.5196
1.49194
36.5066
1.3078
36.498
1.1228
36.494
0.937031
36.4945
0.750588
36.4996
0.563568
36.5093
0.376066
36.5235
0.188178
36.5423
0
36.5657
-0.18837
36.5937
-0.376833
36.6262
-0.565293
36.6633
-0.753652
36.705
-0.941811
36.7511
-1.12967
36.8017
-1.31713
36.8568
-1.5041
36.9164
-1.69048
36.9803
-1.87616
37.0485
-2.06105
37.1211
-2.24506
37.1979
-2.42808
37.2789
-2.61001
37.364
-2.79077
37.4532
-2.97025
37.5464
-3.14835
37.6436
-3.32499
37.7445
-3.50007
37.8492
-3.67349
37.9576
-3.84515
38.0696
-4.01498
38.1851
-4.18286
38.3039
-4.34872
38.426
-4.51247
38.5513
-4.674
38.6796
-4.83324
38.8108
-4.9901
38.9449
-5.14448
39.0816
-5.29632
39.2208
-5.44551
39.3624
-5.59198
39.5063
-5.73564
39.6521
-5.87643
39.8002
-6.01421
39.9491
-6.14908
40.1023
-6.28042
40.2491
-6.40978
-6.53224
40.4197
37.7641
6.51798
-37.888
37.6424
6.39671
37.5228
6.2722
37.4055
6.1445
37.2906
6.01366