/*--------------------------------*- C++ -*----------------------------------*\
| =========                 |                                                 |
| \\      /  F ield         | OpenFOAM: The Open Source CFD Toolbox           |
|  \\    /   O peration     | Version:  2312                                  |
|   \\  /    A nd           | Website:  www.openfoam.com                      |
|    \\/     M anipulation  |                                                 |
\*---------------------------------------------------------------------------*/
FoamFile
{
    version     2.0;
    format      ascii;
    arch        "LSB;label=32;scalar=64";
    class       volVectorField;
    location    "0.426";
    object      U;
}
// * * * * * * * * * * * * * * * * * * * * * * * * * * * * * * * * * * * * * //

dimensions      [0 1 -1 0 0 0 0];

internalField   nonuniform List<vector> 
31205
(
(279.759 0 0)
(278.464 0 0)
(277.121 0 0)
(275.729 0 0)
(274.286 0 0)
(272.79 0 0)
(271.239 0 0)
(269.632 0 0)
(267.965 0 0)
(266.238 0 0)
(264.447 0 0)
(262.589 0 0)
(260.661 0 0)
(258.659 0 0)
(256.58 0 0)
(254.419 0 0)
(252.171 0 0)
(249.831 0 0)
(247.391 0 0)
(244.845 0 0)
(242.185 0 0)
(239.401 0 0)
(236.481 0 0)
(233.412 0 0)
(230.177 0 0)
(226.758 0 0)
(223.131 0 0)
(219.265 0 0)
(215.122 0 0)
(210.65 0 0)
(205.782 0 0)
(200.424 0 0)
(194.432 0 0)
(187.499 0 0)
(179.045 0 0)
(168.388 0 0)
(155.482 0 0)
(141.641 0 0)
(129.033 0 0)
(119.236 0 0)
(112.528 0 0)
(108.328 0 0)
(105.874 0 0)
(104.553 0 0)
(103.957 0 0)
(103.83 0 0)
(104.017 0 0)
(104.421 0 0)
(104.979 0 0)
(105.651 0 0)
(106.41 0 0)
(107.236 0 0)
(108.115 0 0)
(109.037 0 0)
(109.993 0 0)
(110.977 0 0)
(111.985 0 0)
(113.012 0 0)
(114.055 0 0)
(115.112 0 0)
(116.181 0 0)
(117.258 0 0)
(118.344 0 0)
(119.437 0 0)
(120.535 0 0)
(121.638 0 0)
(122.744 0 0)
(123.854 0 0)
(124.966 0 0)
(126.08 0 0)
(127.195 0 0)
(128.31 0 0)
(129.427 0 0)
(130.542 0 0)
(131.663 0 0)
(132.765 0 0)
(133.921 0 0)
(134.911 0 0)
(136.406 0 0)
(278.588 0 0)
(277.287 0 0)
(275.939 0 0)
(274.542 0 0)
(273.096 0 0)
(271.598 0 0)
(270.046 0 0)
(268.439 0 0)
(266.775 0 0)
(265.051 0 0)
(263.264 0 0)
(261.412 0 0)
(259.491 0 0)
(257.499 0 0)
(255.43 0 0)
(253.281 0 0)
(251.046 0 0)
(248.721 0 0)
(246.298 0 0)
(243.772 0 0)
(241.132 0 0)
(238.371 0 0)
(235.476 0 0)
(232.435 0 0)
(229.231 0 0)
(225.846 0 0)
(222.257 0 0)
(218.432 0 0)
(214.336 0 0)
(209.916 0 0)
(205.107 0 0)
(199.819 0 0)
(193.906 0 0)
(187.076 0 0)
(178.766 0 0)
(168.312 0 0)
(155.642 0 0)
(141.986 0 0)
(129.448 0 0)
(119.614 0 0)
(112.815 0 0)
(108.516 0 0)
(105.973 0 0)
(104.577 0 0)
(103.917 0 0)
(103.735 0 0)
(103.872 0 0)
(104.229 0 0)
(104.745 0 0)
(105.376 0 0)
(106.096 0 0)
(106.883 0 0)
(107.725 0 0)
(108.61 0 0)
(109.531 0 0)
(110.48 0 0)
(111.453 0 0)
(112.446 0 0)
(113.455 0 0)
(114.479 0 0)
(115.514 0 0)
(116.559 0 0)
(117.613 0 0)
(118.673 0 0)
(119.74 0 0)
(120.811 0 0)
(121.886 0 0)
(122.964 0 0)
(124.045 0 0)
(125.128 0 0)
(126.213 0 0)
(127.298 0 0)
(128.385 0 0)
(129.47 0 0)
(130.56 0 0)
(131.634 0 0)
(132.758 0 0)
(133.723 0 0)
(135.172 0 0)
(277.35 0 0)
(276.042 0 0)
(274.688 0 0)
(273.287 0 0)
(271.837 0 0)
(270.337 0 0)
(268.784 0 0)
(267.178 0 0)
(265.515 0 0)
(263.793 0 0)
(262.01 0 0)
(260.163 0 0)
(258.249 0 0)
(256.263 0 0)
(254.203 0 0)
(252.064 0 0)
(249.842 0 0)
(247.529 0 0)
(245.122 0 0)
(242.611 0 0)
(239.99 0 0)
(237.249 0 0)
(234.376 0 0)
(231.359 0 0)
(228.182 0 0)
(224.826 0 0)
(221.268 0 0)
(217.478 0 0)
(213.42 0 0)
(209.044 0 0)
(204.283 0 0)
(199.048 0 0)
(193.197 0 0)
(186.439 0 0)
(178.228 0 0)
(167.922 0 0)
(155.45 0 0)
(141.996 0 0)
(129.593 0 0)
(119.807 0 0)
(112.99 0 0)
(108.643 0 0)
(106.043 0 0)
(104.592 0 0)
(103.881 0 0)
(103.651 0 0)
(103.744 0 0)
(104.06 0 0)
(104.535 0 0)
(105.127 0 0)
(105.809 0 0)
(106.56 0 0)
(107.366 0 0)
(108.216 0 0)
(109.102 0 0)
(110.017 0 0)
(110.956 0 0)
(111.916 0 0)
(112.893 0 0)
(113.884 0 0)
(114.887 0 0)
(115.9 0 0)
(116.922 0 0)
(117.952 0 0)
(118.987 0 0)
(120.027 0 0)
(121.072 0 0)
(122.12 0 0)
(123.171 0 0)
(124.224 0 0)
(125.279 0 0)
(126.334 0 0)
(127.391 0 0)
(128.447 0 0)
(129.508 0 0)
(130.553 0 0)
(131.647 0 0)
(132.589 0 0)
(133.993 0 0)
(276.079 0 0)
(274.764 0 0)
(273.405 0 0)
(272 0 0)
(270.547 0 0)
(269.044 0 0)
(267.491 0 0)
(265.884 0 0)
(264.222 0 0)
(262.503 0 0)
(260.723 0 0)
(258.88 0 0)
(256.971 0 0)
(254.993 0 0)
(252.941 0 0)
(250.811 0 0)
(248.598 0 0)
(246.298 0 0)
(243.903 0 0)
(241.408 0 0)
(238.802 0 0)
(236.078 0 0)
(233.225 0 0)
(230.229 0 0)
(227.075 0 0)
(223.744 0 0)
(220.213 0 0)
(216.454 0 0)
(212.428 0 0)
(208.087 0 0)
(203.364 0 0)
(198.172 0 0)
(192.366 0 0)
(185.656 0 0)
(177.507 0 0)
(167.301 0 0)
(154.991 0 0)
(141.737 0 0)
(129.513 0 0)
(119.837 0 0)
(113.062 0 0)
(108.711 0 0)
(106.084 0 0)
(104.597 0 0)
(103.847 0 0)
(103.579 0 0)
(103.633 0 0)
(103.911 0 0)
(104.349 0 0)
(104.905 0 0)
(105.552 0 0)
(106.268 0 0)
(107.04 0 0)
(107.856 0 0)
(108.708 0 0)
(109.59 0 0)
(110.497 0 0)
(111.425 0 0)
(112.37 0 0)
(113.329 0 0)
(114.301 0 0)
(115.284 0 0)
(116.275 0 0)
(117.274 0 0)
(118.279 0 0)
(119.289 0 0)
(120.304 0 0)
(121.323 0 0)
(122.344 0 0)
(123.368 0 0)
(124.394 0 0)
(125.421 0 0)
(126.449 0 0)
(127.476 0 0)
(128.509 0 0)
(129.526 0 0)
(130.59 0 0)
(131.509 0 0)
(132.87 0 0)
(274.792 0 0)
(273.472 0 0)
(272.108 0 0)
(270.7 0 0)
(269.244 0 0)
(267.74 0 0)
(266.186 0 0)
(264.579 0 0)
(262.919 0 0)
(261.202 0 0)
(259.425 0 0)
(257.587 0 0)
(255.684 0 0)
(253.712 0 0)
(251.667 0 0)
(249.546 0 0)
(247.344 0 0)
(245.055 0 0)
(242.672 0 0)
(240.19 0 0)
(237.6 0 0)
(234.893 0 0)
(232.057 0 0)
(229.081 0 0)
(225.948 0 0)
(222.64 0 0)
(219.134 0 0)
(215.401 0 0)
(211.405 0 0)
(207.095 0 0)
(202.406 0 0)
(197.25 0 0)
(191.481 0 0)
(184.806 0 0)
(176.698 0 0)
(166.568 0 0)
(154.399 0 0)
(141.342 0 0)
(129.315 0 0)
(119.78 0 0)
(113.076 0 0)
(108.745 0 0)
(106.108 0 0)
(104.596 0 0)
(103.815 0 0)
(103.512 0 0)
(103.532 0 0)
(103.775 0 0)
(104.179 0 0)
(104.701 0 0)
(105.314 0 0)
(105.997 0 0)
(106.736 0 0)
(107.519 0 0)
(108.339 0 0)
(109.19 0 0)
(110.065 0 0)
(110.961 0 0)
(111.876 0 0)
(112.804 0 0)
(113.746 0 0)
(114.699 0 0)
(115.66 0 0)
(116.629 0 0)
(117.605 0 0)
(118.586 0 0)
(119.572 0 0)
(120.562 0 0)
(121.554 0 0)
(122.55 0 0)
(123.547 0 0)
(124.546 0 0)
(125.546 0 0)
(126.545 0 0)
(127.55 0 0)
(128.54 0 0)
(129.574 0 0)
(130.47 0 0)
(131.791 0 0)
(273.5 0 0)
(272.176 0 0)
(270.808 0 0)
(269.396 0 0)
(267.939 0 0)
(266.434 0 0)
(264.88 0 0)
(263.275 0 0)
(261.616 0 0)
(259.902 0 0)
(258.129 0 0)
(256.295 0 0)
(254.398 0 0)
(252.433 0 0)
(250.396 0 0)
(248.284 0 0)
(246.091 0 0)
(243.813 0 0)
(241.443 0 0)
(238.975 0 0)
(236.399 0 0)
(233.708 0 0)
(230.89 0 0)
(227.932 0 0)
(224.82 0 0)
(221.534 0 0)
(218.052 0 0)
(214.345 0 0)
(210.375 0 0)
(206.094 0 0)
(201.437 0 0)
(196.314 0 0)
(190.577 0 0)
(183.93 0 0)
(175.855 0 0)
(165.79 0 0)
(153.751 0 0)
(140.889 0 0)
(129.065 0 0)
(119.682 0 0)
(113.063 0 0)
(108.762 0 0)
(106.123 0 0)
(104.593 0 0)
(103.785 0 0)
(103.451 0 0)
(103.439 0 0)
(103.649 0 0)
(104.02 0 0)
(104.51 0 0)
(105.09 0 0)
(105.741 0 0)
(106.448 0 0)
(107.2 0 0)
(107.989 0 0)
(108.808 0 0)
(109.653 0 0)
(110.519 0 0)
(111.403 0 0)
(112.303 0 0)
(113.215 0 0)
(114.138 0 0)
(115.07 0 0)
(116.01 0 0)
(116.957 0 0)
(117.91 0 0)
(118.868 0 0)
(119.829 0 0)
(120.794 0 0)
(121.761 0 0)
(122.731 0 0)
(123.702 0 0)
(124.675 0 0)
(125.647 0 0)
(126.624 0 0)
(127.587 0 0)
(128.594 0 0)
(129.466 0 0)
(130.749 0 0)
(272.207 0 0)
(270.878 0 0)
(269.508 0 0)
(268.095 0 0)
(266.637 0 0)
(265.132 0 0)
(263.578 0 0)
(261.975 0 0)
(260.318 0 0)
(258.607 0 0)
(256.839 0 0)
(255.011 0 0)
(253.119 0 0)
(251.161 0 0)
(249.133 0 0)
(247.03 0 0)
(244.848 0 0)
(242.581 0 0)
(240.223 0 0)
(237.768 0 0)
(235.208 0 0)
(232.532 0 0)
(229.732 0 0)
(226.793 0 0)
(223.7 0 0)
(220.436 0 0)
(216.977 0 0)
(213.294 0 0)
(209.351 0 0)
(205.098 0 0)
(200.471 0 0)
(195.379 0 0)
(189.672 0 0)
(183.051 0 0)
(175.004 0 0)
(164.999 0 0)
(153.087 0 0)
(140.417 0 0)
(128.795 0 0)
(119.568 0 0)
(113.039 0 0)
(108.773 0 0)
(106.136 0 0)
(104.59 0 0)
(103.757 0 0)
(103.395 0 0)
(103.352 0 0)
(103.531 0 0)
(103.87 0 0)
(104.329 0 0)
(104.878 0 0)
(105.498 0 0)
(106.174 0 0)
(106.895 0 0)
(107.654 0 0)
(108.444 0 0)
(109.259 0 0)
(110.095 0 0)
(110.95 0 0)
(111.82 0 0)
(112.704 0 0)
(113.598 0 0)
(114.502 0 0)
(115.414 0 0)
(116.333 0 0)
(117.258 0 0)
(118.188 0 0)
(119.122 0 0)
(120.059 0 0)
(120.999 0 0)
(121.942 0 0)
(122.886 0 0)
(123.832 0 0)
(124.777 0 0)
(125.728 0 0)
(126.665 0 0)
(127.644 0 0)
(128.494 0 0)
(129.74 0 0)
(270.914 0 0)
(269.583 0 0)
(268.211 0 0)
(266.797 0 0)
(265.339 0 0)
(263.834 0 0)
(262.283 0 0)
(260.681 0 0)
(259.028 0 0)
(257.321 0 0)
(255.558 0 0)
(253.736 0 0)
(251.851 0 0)
(249.9 0 0)
(247.881 0 0)
(245.787 0 0)
(243.615 0 0)
(241.36 0 0)
(239.015 0 0)
(236.574 0 0)
(234.028 0 0)
(231.368 0 0)
(228.585 0 0)
(225.664 0 0)
(222.592 0 0)
(219.349 0 0)
(215.913 0 0)
(212.254 0 0)
(208.337 0 0)
(204.112 0 0)
(199.514 0 0)
(194.452 0 0)
(188.773 0 0)
(182.175 0 0)
(174.156 0 0)
(164.21 0 0)
(152.424 0 0)
(139.942 0 0)
(128.521 0 0)
(119.45 0 0)
(113.01 0 0)
(108.782 0 0)
(106.15 0 0)
(104.589 0 0)
(103.734 0 0)
(103.344 0 0)
(103.272 0 0)
(103.421 0 0)
(103.73 0 0)
(104.157 0 0)
(104.676 0 0)
(105.266 0 0)
(105.912 0 0)
(106.604 0 0)
(107.333 0 0)
(108.093 0 0)
(108.879 0 0)
(109.687 0 0)
(110.514 0 0)
(111.356 0 0)
(112.211 0 0)
(113.077 0 0)
(113.954 0 0)
(114.838 0 0)
(115.73 0 0)
(116.628 0 0)
(117.531 0 0)
(118.438 0 0)
(119.348 0 0)
(120.262 0 0)
(121.178 0 0)
(122.096 0 0)
(123.016 0 0)
(123.935 0 0)
(124.859 0 0)
(125.771 0 0)
(126.723 0 0)
(127.55 0 0)
(128.761 0 0)
(269.623 0 0)
(268.291 0 0)
(266.918 0 0)
(265.504 0 0)
(264.046 0 0)
(262.544 0 0)
(260.994 0 0)
(259.396 0 0)
(257.747 0 0)
(256.044 0 0)
(254.287 0 0)
(252.47 0 0)
(250.593 0 0)
(248.65 0 0)
(246.64 0 0)
(244.556 0 0)
(242.395 0 0)
(240.151 0 0)
(237.819 0 0)
(235.392 0 0)
(232.861 0 0)
(230.218 0 0)
(227.451 0 0)
(224.549 0 0)
(221.497 0 0)
(218.275 0 0)
(214.861 0 0)
(211.227 0 0)
(207.335 0 0)
(203.137 0 0)
(198.568 0 0)
(193.535 0 0)
(187.882 0 0)
(181.308 0 0)
(173.315 0 0)
(163.428 0 0)
(151.766 0 0)
(139.472 0 0)
(128.249 0 0)
(119.331 0 0)
(112.982 0 0)
(108.792 0 0)
(106.165 0 0)
(104.592 0 0)
(103.714 0 0)
(103.299 0 0)
(103.198 0 0)
(103.318 0 0)
(103.597 0 0)
(103.995 0 0)
(104.484 0 0)
(105.045 0 0)
(105.662 0 0)
(106.325 0 0)
(107.025 0 0)
(107.757 0 0)
(108.515 0 0)
(109.295 0 0)
(110.094 0 0)
(110.908 0 0)
(111.736 0 0)
(112.575 0 0)
(113.425 0 0)
(114.282 0 0)
(115.147 0 0)
(116.019 0 0)
(116.895 0 0)
(117.776 0 0)
(118.661 0 0)
(119.548 0 0)
(120.439 0 0)
(121.331 0 0)
(122.225 0 0)
(123.119 0 0)
(124.018 0 0)
(124.904 0 0)
(125.83 0 0)
(126.636 0 0)
(127.811 0 0)
(268.335 0 0)
(267.002 0 0)
(265.63 0 0)
(264.216 0 0)
(262.76 0 0)
(261.26 0 0)
(259.713 0 0)
(258.119 0 0)
(256.474 0 0)
(254.777 0 0)
(253.025 0 0)
(251.216 0 0)
(249.346 0 0)
(247.412 0 0)
(245.41 0 0)
(243.337 0 0)
(241.187 0 0)
(238.956 0 0)
(236.636 0 0)
(234.223 0 0)
(231.707 0 0)
(229.08 0 0)
(226.331 0 0)
(223.448 0 0)
(220.415 0 0)
(217.214 0 0)
(213.822 0 0)
(210.212 0 0)
(206.346 0 0)
(202.174 0 0)
(197.632 0 0)
(192.628 0 0)
(187.002 0 0)
(180.449 0 0)
(172.482 0 0)
(162.655 0 0)
(151.117 0 0)
(139.008 0 0)
(127.979 0 0)
(119.213 0 0)
(112.953 0 0)
(108.802 0 0)
(106.181 0 0)
(104.597 0 0)
(103.699 0 0)
(103.258 0 0)
(103.13 0 0)
(103.222 0 0)
(103.472 0 0)
(103.842 0 0)
(104.302 0 0)
(104.834 0 0)
(105.423 0 0)
(106.058 0 0)
(106.73 0 0)
(107.435 0 0)
(108.165 0 0)
(108.918 0 0)
(109.689 0 0)
(110.477 0 0)
(111.278 0 0)
(112.091 0 0)
(112.914 0 0)
(113.746 0 0)
(114.585 0 0)
(115.43 0 0)
(116.281 0 0)
(117.136 0 0)
(117.995 0 0)
(118.858 0 0)
(119.723 0 0)
(120.59 0 0)
(121.459 0 0)
(122.328 0 0)
(123.202 0 0)
(124.064 0 0)
(124.964 0 0)
(125.749 0 0)
(126.89 0 0)
(267.051 0 0)
(265.719 0 0)
(264.347 0 0)
(262.935 0 0)
(261.481 0 0)
(259.984 0 0)
(258.441 0 0)
(256.85 0 0)
(255.211 0 0)
(253.52 0 0)
(251.774 0 0)
(249.972 0 0)
(248.11 0 0)
(246.185 0 0)
(244.193 0 0)
(242.13 0 0)
(239.992 0 0)
(237.772 0 0)
(235.466 0 0)
(233.067 0 0)
(230.566 0 0)
(227.956 0 0)
(225.224 0 0)
(222.359 0 0)
(219.346 0 0)
(216.166 0 0)
(212.796 0 0)
(209.21 0 0)
(205.368 0 0)
(201.223 0 0)
(196.708 0 0)
(191.731 0 0)
(186.13 0 0)
(179.598 0 0)
(171.658 0 0)
(161.89 0 0)
(150.477 0 0)
(138.55 0 0)
(127.713 0 0)
(119.096 0 0)
(112.926 0 0)
(108.813 0 0)
(106.2 0 0)
(104.605 0 0)
(103.688 0 0)
(103.223 0 0)
(103.069 0 0)
(103.133 0 0)
(103.356 0 0)
(103.697 0 0)
(104.13 0 0)
(104.634 0 0)
(105.195 0 0)
(105.802 0 0)
(106.448 0 0)
(107.125 0 0)
(107.829 0 0)
(108.555 0 0)
(109.3 0 0)
(110.061 0 0)
(110.837 0 0)
(111.624 0 0)
(112.421 0 0)
(113.228 0 0)
(114.041 0 0)
(114.861 0 0)
(115.687 0 0)
(116.518 0 0)
(117.352 0 0)
(118.19 0 0)
(119.03 0 0)
(119.873 0 0)
(120.717 0 0)
(121.562 0 0)
(122.412 0 0)
(123.25 0 0)
(124.125 0 0)
(124.889 0 0)
(125.996 0 0)
(265.772 0 0)
(264.44 0 0)
(263.07 0 0)
(261.661 0 0)
(260.209 0 0)
(258.715 0 0)
(257.177 0 0)
(255.591 0 0)
(253.957 0 0)
(252.272 0 0)
(250.534 0 0)
(248.74 0 0)
(246.886 0 0)
(244.97 0 0)
(242.988 0 0)
(240.936 0 0)
(238.809 0 0)
(236.602 0 0)
(234.309 0 0)
(231.924 0 0)
(229.439 0 0)
(226.844 0 0)
(224.13 0 0)
(221.283 0 0)
(218.29 0 0)
(215.13 0 0)
(211.783 0 0)
(208.219 0 0)
(204.402 0 0)
(200.282 0 0)
(195.795 0 0)
(190.845 0 0)
(185.267 0 0)
(178.755 0 0)
(170.841 0 0)
(161.134 0 0)
(149.844 0 0)
(138.098 0 0)
(127.451 0 0)
(118.981 0 0)
(112.898 0 0)
(108.826 0 0)
(106.221 0 0)
(104.617 0 0)
(103.68 0 0)
(103.193 0 0)
(103.013 0 0)
(103.05 0 0)
(103.246 0 0)
(103.561 0 0)
(103.966 0 0)
(104.443 0 0)
(104.978 0 0)
(105.558 0 0)
(106.178 0 0)
(106.829 0 0)
(107.506 0 0)
(108.206 0 0)
(108.926 0 0)
(109.662 0 0)
(110.412 0 0)
(111.174 0 0)
(111.946 0 0)
(112.728 0 0)
(113.517 0 0)
(114.312 0 0)
(115.114 0 0)
(115.92 0 0)
(116.73 0 0)
(117.543 0 0)
(118.36 0 0)
(119.179 0 0)
(120 0 0)
(120.821 0 0)
(121.647 0 0)
(122.462 0 0)
(123.312 0 0)
(124.056 0 0)
(125.131 0 0)
(264.498 0 0)
(263.168 0 0)
(261.8 0 0)
(260.394 0 0)
(258.946 0 0)
(257.456 0 0)
(255.922 0 0)
(254.342 0 0)
(252.714 0 0)
(251.036 0 0)
(249.305 0 0)
(247.518 0 0)
(245.674 0 0)
(243.767 0 0)
(241.795 0 0)
(239.754 0 0)
(237.639 0 0)
(235.445 0 0)
(233.166 0 0)
(230.795 0 0)
(228.325 0 0)
(225.746 0 0)
(223.049 0 0)
(220.221 0 0)
(217.246 0 0)
(214.108 0 0)
(210.782 0 0)
(207.241 0 0)
(203.448 0 0)
(199.354 0 0)
(194.892 0 0)
(189.968 0 0)
(184.413 0 0)
(177.92 0 0)
(170.032 0 0)
(160.385 0 0)
(149.22 0 0)
(137.653 0 0)
(127.191 0 0)
(118.866 0 0)
(112.872 0 0)
(108.839 0 0)
(106.243 0 0)
(104.63 0 0)
(103.677 0 0)
(103.167 0 0)
(102.962 0 0)
(102.974 0 0)
(103.144 0 0)
(103.432 0 0)
(103.812 0 0)
(104.262 0 0)
(104.771 0 0)
(105.326 0 0)
(105.919 0 0)
(106.544 0 0)
(107.197 0 0)
(107.872 0 0)
(108.566 0 0)
(109.277 0 0)
(110.003 0 0)
(110.74 0 0)
(111.488 0 0)
(112.245 0 0)
(113.01 0 0)
(113.782 0 0)
(114.559 0 0)
(115.342 0 0)
(116.128 0 0)
(116.919 0 0)
(117.712 0 0)
(118.507 0 0)
(119.305 0 0)
(120.103 0 0)
(120.906 0 0)
(121.698 0 0)
(122.525 0 0)
(123.248 0 0)
(124.291 0 0)
(263.23 0 0)
(261.903 0 0)
(260.538 0 0)
(259.135 0 0)
(257.691 0 0)
(256.206 0 0)
(254.677 0 0)
(253.103 0 0)
(251.481 0 0)
(249.81 0 0)
(248.087 0 0)
(246.309 0 0)
(244.473 0 0)
(242.576 0 0)
(240.615 0 0)
(238.585 0 0)
(236.482 0 0)
(234.3 0 0)
(232.035 0 0)
(229.678 0 0)
(227.223 0 0)
(224.661 0 0)
(221.981 0 0)
(219.171 0 0)
(216.216 0 0)
(213.098 0 0)
(209.794 0 0)
(206.275 0 0)
(202.506 0 0)
(198.436 0 0)
(194 0 0)
(189.101 0 0)
(183.568 0 0)
(177.093 0 0)
(169.23 0 0)
(159.645 0 0)
(148.603 0 0)
(137.213 0 0)
(126.935 0 0)
(118.753 0 0)
(112.845 0 0)
(108.853 0 0)
(106.267 0 0)
(104.647 0 0)
(103.677 0 0)
(103.145 0 0)
(102.917 0 0)
(102.905 0 0)
(103.049 0 0)
(103.312 0 0)
(103.665 0 0)
(104.091 0 0)
(104.574 0 0)
(105.103 0 0)
(105.672 0 0)
(106.272 0 0)
(106.9 0 0)
(107.55 0 0)
(108.221 0 0)
(108.907 0 0)
(109.609 0 0)
(110.322 0 0)
(111.047 0 0)
(111.78 0 0)
(112.522 0 0)
(113.27 0 0)
(114.024 0 0)
(114.784 0 0)
(115.547 0 0)
(116.314 0 0)
(117.085 0 0)
(117.857 0 0)
(118.632 0 0)
(119.408 0 0)
(120.188 0 0)
(120.959 0 0)
(121.762 0 0)
(122.466 0 0)
(123.478 0 0)
(261.97 0 0)
(260.645 0 0)
(259.284 0 0)
(257.884 0 0)
(256.446 0 0)
(254.965 0 0)
(253.442 0 0)
(251.874 0 0)
(250.26 0 0)
(248.596 0 0)
(246.881 0 0)
(245.111 0 0)
(243.285 0 0)
(241.398 0 0)
(239.447 0 0)
(237.429 0 0)
(235.338 0 0)
(233.169 0 0)
(230.917 0 0)
(228.575 0 0)
(226.135 0 0)
(223.59 0 0)
(220.927 0 0)
(218.135 0 0)
(215.199 0 0)
(212.1 0 0)
(208.817 0 0)
(205.321 0 0)
(201.575 0 0)
(197.529 0 0)
(193.118 0 0)
(188.243 0 0)
(182.731 0 0)
(176.273 0 0)
(168.436 0 0)
(158.912 0 0)
(147.993 0 0)
(136.779 0 0)
(126.681 0 0)
(118.64 0 0)
(112.819 0 0)
(108.867 0 0)
(106.292 0 0)
(104.666 0 0)
(103.68 0 0)
(103.128 0 0)
(102.877 0 0)
(102.841 0 0)
(102.961 0 0)
(103.199 0 0)
(103.527 0 0)
(103.928 0 0)
(104.386 0 0)
(104.892 0 0)
(105.436 0 0)
(106.012 0 0)
(106.615 0 0)
(107.242 0 0)
(107.889 0 0)
(108.552 0 0)
(109.23 0 0)
(109.92 0 0)
(110.621 0 0)
(111.332 0 0)
(112.05 0 0)
(112.776 0 0)
(113.508 0 0)
(114.244 0 0)
(114.986 0 0)
(115.731 0 0)
(116.479 0 0)
(117.229 0 0)
(117.982 0 0)
(118.736 0 0)
(119.494 0 0)
(120.243 0 0)
(121.023 0 0)
(121.709 0 0)
(122.69 0 0)
(260.717 0 0)
(259.395 0 0)
(258.038 0 0)
(256.643 0 0)
(255.21 0 0)
(253.735 0 0)
(252.218 0 0)
(250.657 0 0)
(249.049 0 0)
(247.393 0 0)
(245.686 0 0)
(243.926 0 0)
(242.109 0 0)
(240.232 0 0)
(238.293 0 0)
(236.285 0 0)
(234.207 0 0)
(232.051 0 0)
(229.812 0 0)
(227.485 0 0)
(225.061 0 0)
(222.531 0 0)
(219.885 0 0)
(217.111 0 0)
(214.194 0 0)
(211.115 0 0)
(207.853 0 0)
(204.379 0 0)
(200.655 0 0)
(196.633 0 0)
(192.246 0 0)
(187.394 0 0)
(181.902 0 0)
(175.461 0 0)
(167.649 0 0)
(158.187 0 0)
(147.391 0 0)
(136.35 0 0)
(126.43 0 0)
(118.528 0 0)
(112.793 0 0)
(108.882 0 0)
(106.318 0 0)
(104.686 0 0)
(103.686 0 0)
(103.115 0 0)
(102.842 0 0)
(102.782 0 0)
(102.879 0 0)
(103.093 0 0)
(103.397 0 0)
(103.774 0 0)
(104.208 0 0)
(104.69 0 0)
(105.21 0 0)
(105.763 0 0)
(106.343 0 0)
(106.946 0 0)
(107.57 0 0)
(108.21 0 0)
(108.865 0 0)
(109.533 0 0)
(110.212 0 0)
(110.9 0 0)
(111.596 0 0)
(112.3 0 0)
(113.009 0 0)
(113.724 0 0)
(114.443 0 0)
(115.166 0 0)
(115.893 0 0)
(116.622 0 0)
(117.353 0 0)
(118.085 0 0)
(118.822 0 0)
(119.55 0 0)
(120.308 0 0)
(120.975 0 0)
(121.927 0 0)
(259.472 0 0)
(258.155 0 0)
(256.802 0 0)
(255.412 0 0)
(253.984 0 0)
(252.515 0 0)
(251.005 0 0)
(249.451 0 0)
(247.851 0 0)
(246.203 0 0)
(244.504 0 0)
(242.753 0 0)
(240.946 0 0)
(239.08 0 0)
(237.151 0 0)
(235.155 0 0)
(233.089 0 0)
(230.946 0 0)
(228.721 0 0)
(226.408 0 0)
(223.999 0 0)
(221.486 0 0)
(218.857 0 0)
(216.1 0 0)
(213.202 0 0)
(210.143 0 0)
(206.901 0 0)
(203.448 0 0)
(199.747 0 0)
(195.748 0 0)
(191.385 0 0)
(186.555 0 0)
(181.081 0 0)
(174.656 0 0)
(166.87 0 0)
(157.471 0 0)
(146.797 0 0)
(135.927 0 0)
(126.182 0 0)
(118.417 0 0)
(112.766 0 0)
(108.897 0 0)
(106.346 0 0)
(104.709 0 0)
(103.695 0 0)
(103.106 0 0)
(102.812 0 0)
(102.73 0 0)
(102.803 0 0)
(102.994 0 0)
(103.275 0 0)
(103.628 0 0)
(104.039 0 0)
(104.498 0 0)
(104.995 0 0)
(105.525 0 0)
(106.082 0 0)
(106.663 0 0)
(107.264 0 0)
(107.882 0 0)
(108.515 0 0)
(109.16 0 0)
(109.817 0 0)
(110.483 0 0)
(111.158 0 0)
(111.84 0 0)
(112.528 0 0)
(113.221 0 0)
(113.919 0 0)
(114.621 0 0)
(115.327 0 0)
(116.034 0 0)
(116.745 0 0)
(117.456 0 0)
(118.172 0 0)
(118.879 0 0)
(119.616 0 0)
(120.265 0 0)
(121.188 0 0)
(258.236 0 0)
(256.923 0 0)
(255.576 0 0)
(254.191 0 0)
(252.769 0 0)
(251.306 0 0)
(249.803 0 0)
(248.256 0 0)
(246.664 0 0)
(245.024 0 0)
(243.335 0 0)
(241.593 0 0)
(239.796 0 0)
(237.94 0 0)
(236.022 0 0)
(234.038 0 0)
(231.984 0 0)
(229.854 0 0)
(227.644 0 0)
(225.345 0 0)
(222.951 0 0)
(220.453 0 0)
(217.841 0 0)
(215.102 0 0)
(212.222 0 0)
(209.183 0 0)
(205.962 0 0)
(202.53 0 0)
(198.85 0 0)
(194.874 0 0)
(190.533 0 0)
(185.725 0 0)
(180.269 0 0)
(173.859 0 0)
(166.098 0 0)
(156.762 0 0)
(146.211 0 0)
(135.51 0 0)
(125.937 0 0)
(118.307 0 0)
(112.741 0 0)
(108.913 0 0)
(106.374 0 0)
(104.734 0 0)
(103.707 0 0)
(103.1 0 0)
(102.786 0 0)
(102.682 0 0)
(102.733 0 0)
(102.901 0 0)
(103.16 0 0)
(103.491 0 0)
(103.879 0 0)
(104.315 0 0)
(104.79 0 0)
(105.297 0 0)
(105.832 0 0)
(106.391 0 0)
(106.97 0 0)
(107.567 0 0)
(108.178 0 0)
(108.802 0 0)
(109.437 0 0)
(110.082 0 0)
(110.736 0 0)
(111.397 0 0)
(112.064 0 0)
(112.736 0 0)
(113.414 0 0)
(114.095 0 0)
(114.78 0 0)
(115.467 0 0)
(116.157 0 0)
(116.848 0 0)
(117.543 0 0)
(118.231 0 0)
(118.946 0 0)
(119.578 0 0)
(120.473 0 0)
(257.009 0 0)
(255.702 0 0)
(254.359 0 0)
(252.981 0 0)
(251.565 0 0)
(250.109 0 0)
(248.612 0 0)
(247.073 0 0)
(245.489 0 0)
(243.858 0 0)
(242.178 0 0)
(240.445 0 0)
(238.658 0 0)
(236.813 0 0)
(234.907 0 0)
(232.935 0 0)
(230.893 0 0)
(228.776 0 0)
(226.579 0 0)
(224.295 0 0)
(221.916 0 0)
(219.434 0 0)
(216.839 0 0)
(214.118 0 0)
(211.256 0 0)
(208.235 0 0)
(205.034 0 0)
(201.623 0 0)
(197.965 0 0)
(194.01 0 0)
(189.691 0 0)
(184.904 0 0)
(179.465 0 0)
(173.069 0 0)
(165.334 0 0)
(156.061 0 0)
(145.632 0 0)
(135.098 0 0)
(125.695 0 0)
(118.198 0 0)
(112.715 0 0)
(108.928 0 0)
(106.403 0 0)
(104.761 0 0)
(103.722 0 0)
(103.098 0 0)
(102.764 0 0)
(102.64 0 0)
(102.669 0 0)
(102.815 0 0)
(103.052 0 0)
(103.361 0 0)
(103.727 0 0)
(104.141 0 0)
(104.594 0 0)
(105.08 0 0)
(105.594 0 0)
(106.131 0 0)
(106.689 0 0)
(107.264 0 0)
(107.854 0 0)
(108.457 0 0)
(109.072 0 0)
(109.696 0 0)
(110.329 0 0)
(110.97 0 0)
(111.616 0 0)
(112.269 0 0)
(112.926 0 0)
(113.587 0 0)
(114.251 0 0)
(114.918 0 0)
(115.588 0 0)
(116.26 0 0)
(116.935 0 0)
(117.603 0 0)
(118.298 0 0)
(118.912 0 0)
(119.78 0 0)
(255.792 0 0)
(254.49 0 0)
(253.154 0 0)
(251.781 0 0)
(250.372 0 0)
(248.923 0 0)
(247.434 0 0)
(245.903 0 0)
(244.327 0 0)
(242.704 0 0)
(241.033 0 0)
(239.311 0 0)
(237.534 0 0)
(235.7 0 0)
(233.804 0 0)
(231.844 0 0)
(229.815 0 0)
(227.712 0 0)
(225.528 0 0)
(223.258 0 0)
(220.895 0 0)
(218.429 0 0)
(215.85 0 0)
(213.145 0 0)
(210.302 0 0)
(207.3 0 0)
(204.118 0 0)
(200.727 0 0)
(197.09 0 0)
(193.157 0 0)
(188.86 0 0)
(184.092 0 0)
(178.669 0 0)
(172.287 0 0)
(164.578 0 0)
(155.369 0 0)
(145.061 0 0)
(134.692 0 0)
(125.456 0 0)
(118.09 0 0)
(112.689 0 0)
(108.944 0 0)
(106.434 0 0)
(104.789 0 0)
(103.739 0 0)
(103.099 0 0)
(102.746 0 0)
(102.602 0 0)
(102.61 0 0)
(102.735 0 0)
(102.951 0 0)
(103.238 0 0)
(103.583 0 0)
(103.976 0 0)
(104.408 0 0)
(104.873 0 0)
(105.365 0 0)
(105.882 0 0)
(106.419 0 0)
(106.974 0 0)
(107.543 0 0)
(108.126 0 0)
(108.72 0 0)
(109.325 0 0)
(109.938 0 0)
(110.558 0 0)
(111.185 0 0)
(111.817 0 0)
(112.454 0 0)
(113.096 0 0)
(113.741 0 0)
(114.389 0 0)
(115.039 0 0)
(115.691 0 0)
(116.347 0 0)
(116.996 0 0)
(117.671 0 0)
(118.269 0 0)
(119.11 0 0)
(254.586 0 0)
(253.289 0 0)
(251.959 0 0)
(250.593 0 0)
(249.19 0 0)
(247.749 0 0)
(246.268 0 0)
(244.744 0 0)
(243.177 0 0)
(241.564 0 0)
(239.902 0 0)
(238.189 0 0)
(236.423 0 0)
(234.6 0 0)
(232.716 0 0)
(230.768 0 0)
(228.751 0 0)
(226.66 0 0)
(224.491 0 0)
(222.235 0 0)
(219.886 0 0)
(217.436 0 0)
(214.873 0 0)
(212.186 0 0)
(209.36 0 0)
(206.377 0 0)
(203.214 0 0)
(199.844 0 0)
(196.227 0 0)
(192.315 0 0)
(188.038 0 0)
(183.289 0 0)
(177.881 0 0)
(171.512 0 0)
(163.829 0 0)
(154.685 0 0)
(144.498 0 0)
(134.293 0 0)
(125.221 0 0)
(117.982 0 0)
(112.663 0 0)
(108.96 0 0)
(106.465 0 0)
(104.818 0 0)
(103.758 0 0)
(103.103 0 0)
(102.733 0 0)
(102.569 0 0)
(102.557 0 0)
(102.662 0 0)
(102.856 0 0)
(103.123 0 0)
(103.447 0 0)
(103.819 0 0)
(104.23 0 0)
(104.675 0 0)
(105.147 0 0)
(105.644 0 0)
(106.16 0 0)
(106.695 0 0)
(107.245 0 0)
(107.808 0 0)
(108.382 0 0)
(108.967 0 0)
(109.56 0 0)
(110.161 0 0)
(110.769 0 0)
(111.382 0 0)
(112 0 0)
(112.622 0 0)
(113.248 0 0)
(113.877 0 0)
(114.509 0 0)
(115.142 0 0)
(115.778 0 0)
(116.409 0 0)
(117.064 0 0)
(117.646 0 0)
(118.461 0 0)
(253.39 0 0)
(252.1 0 0)
(250.776 0 0)
(249.417 0 0)
(248.021 0 0)
(246.587 0 0)
(245.114 0 0)
(243.599 0 0)
(242.04 0 0)
(240.436 0 0)
(238.784 0 0)
(237.081 0 0)
(235.325 0 0)
(233.513 0 0)
(231.641 0 0)
(229.704 0 0)
(227.7 0 0)
(225.623 0 0)
(223.467 0 0)
(221.225 0 0)
(218.892 0 0)
(216.456 0 0)
(213.91 0 0)
(211.24 0 0)
(208.431 0 0)
(205.466 0 0)
(202.323 0 0)
(198.971 0 0)
(195.375 0 0)
(191.483 0 0)
(187.226 0 0)
(182.495 0 0)
(177.1 0 0)
(170.745 0 0)
(163.088 0 0)
(154.009 0 0)
(143.943 0 0)
(133.899 0 0)
(124.988 0 0)
(117.876 0 0)
(112.638 0 0)
(108.976 0 0)
(106.496 0 0)
(104.849 0 0)
(103.779 0 0)
(103.109 0 0)
(102.722 0 0)
(102.54 0 0)
(102.509 0 0)
(102.593 0 0)
(102.768 0 0)
(103.014 0 0)
(103.319 0 0)
(103.67 0 0)
(104.062 0 0)
(104.486 0 0)
(104.939 0 0)
(105.416 0 0)
(105.913 0 0)
(106.428 0 0)
(106.958 0 0)
(107.502 0 0)
(108.057 0 0)
(108.623 0 0)
(109.197 0 0)
(109.779 0 0)
(110.368 0 0)
(110.962 0 0)
(111.562 0 0)
(112.165 0 0)
(112.773 0 0)
(113.383 0 0)
(113.996 0 0)
(114.611 0 0)
(115.229 0 0)
(115.842 0 0)
(116.478 0 0)
(117.043 0 0)
(117.833 0 0)
(252.206 0 0)
(250.921 0 0)
(249.604 0 0)
(248.252 0 0)
(246.864 0 0)
(245.438 0 0)
(243.973 0 0)
(242.466 0 0)
(240.916 0 0)
(239.322 0 0)
(237.679 0 0)
(235.987 0 0)
(234.241 0 0)
(232.44 0 0)
(230.579 0 0)
(228.655 0 0)
(226.663 0 0)
(224.599 0 0)
(222.456 0 0)
(220.229 0 0)
(217.91 0 0)
(215.49 0 0)
(212.96 0 0)
(210.306 0 0)
(207.515 0 0)
(204.568 0 0)
(201.443 0 0)
(198.11 0 0)
(194.533 0 0)
(190.661 0 0)
(186.424 0 0)
(181.709 0 0)
(176.328 0 0)
(169.985 0 0)
(162.355 0 0)
(153.342 0 0)
(143.396 0 0)
(133.511 0 0)
(124.759 0 0)
(117.771 0 0)
(112.612 0 0)
(108.993 0 0)
(106.528 0 0)
(104.882 0 0)
(103.803 0 0)
(103.119 0 0)
(102.716 0 0)
(102.515 0 0)
(102.465 0 0)
(102.531 0 0)
(102.686 0 0)
(102.913 0 0)
(103.197 0 0)
(103.53 0 0)
(103.902 0 0)
(104.307 0 0)
(104.74 0 0)
(105.198 0 0)
(105.676 0 0)
(106.172 0 0)
(106.683 0 0)
(107.208 0 0)
(107.745 0 0)
(108.292 0 0)
(108.848 0 0)
(109.411 0 0)
(109.982 0 0)
(110.558 0 0)
(111.139 0 0)
(111.725 0 0)
(112.314 0 0)
(112.906 0 0)
(113.501 0 0)
(114.098 0 0)
(114.698 0 0)
(115.293 0 0)
(115.911 0 0)
(116.461 0 0)
(117.227 0 0)
(251.032 0 0)
(249.755 0 0)
(248.445 0 0)
(247.1 0 0)
(245.719 0 0)
(244.301 0 0)
(242.844 0 0)
(241.346 0 0)
(239.806 0 0)
(238.22 0 0)
(236.588 0 0)
(234.905 0 0)
(233.171 0 0)
(231.38 0 0)
(229.531 0 0)
(227.619 0 0)
(225.639 0 0)
(223.588 0 0)
(221.459 0 0)
(219.246 0 0)
(216.941 0 0)
(214.537 0 0)
(212.022 0 0)
(209.385 0 0)
(206.611 0 0)
(203.681 0 0)
(200.574 0 0)
(197.261 0 0)
(193.703 0 0)
(189.85 0 0)
(185.631 0 0)
(180.932 0 0)
(175.564 0 0)
(169.233 0 0)
(161.63 0 0)
(152.683 0 0)
(142.857 0 0)
(133.129 0 0)
(124.532 0 0)
(117.667 0 0)
(112.587 0 0)
(109.009 0 0)
(106.561 0 0)
(104.915 0 0)
(103.828 0 0)
(103.131 0 0)
(102.712 0 0)
(102.494 0 0)
(102.426 0 0)
(102.473 0 0)
(102.61 0 0)
(102.817 0 0)
(103.083 0 0)
(103.397 0 0)
(103.75 0 0)
(104.136 0 0)
(104.551 0 0)
(104.989 0 0)
(105.449 0 0)
(105.927 0 0)
(106.42 0 0)
(106.927 0 0)
(107.445 0 0)
(107.974 0 0)
(108.512 0 0)
(109.057 0 0)
(109.61 0 0)
(110.168 0 0)
(110.732 0 0)
(111.299 0 0)
(111.871 0 0)
(112.446 0 0)
(113.023 0 0)
(113.603 0 0)
(114.186 0 0)
(114.763 0 0)
(115.363 0 0)
(115.898 0 0)
(116.64 0 0)
(249.871 0 0)
(248.6 0 0)
(247.297 0 0)
(245.96 0 0)
(244.587 0 0)
(243.177 0 0)
(241.729 0 0)
(240.24 0 0)
(238.708 0 0)
(237.132 0 0)
(235.51 0 0)
(233.838 0 0)
(232.114 0 0)
(230.334 0 0)
(228.497 0 0)
(226.596 0 0)
(224.629 0 0)
(222.591 0 0)
(220.475 0 0)
(218.276 0 0)
(215.986 0 0)
(213.597 0 0)
(211.097 0 0)
(208.477 0 0)
(205.719 0 0)
(202.807 0 0)
(199.718 0 0)
(196.422 0 0)
(192.883 0 0)
(189.049 0 0)
(184.847 0 0)
(180.164 0 0)
(174.807 0 0)
(168.488 0 0)
(160.912 0 0)
(152.032 0 0)
(142.325 0 0)
(132.753 0 0)
(124.31 0 0)
(117.565 0 0)
(112.562 0 0)
(109.025 0 0)
(106.594 0 0)
(104.949 0 0)
(103.855 0 0)
(103.146 0 0)
(102.712 0 0)
(102.477 0 0)
(102.392 0 0)
(102.42 0 0)
(102.539 0 0)
(102.728 0 0)
(102.976 0 0)
(103.271 0 0)
(103.605 0 0)
(103.973 0 0)
(104.37 0 0)
(104.791 0 0)
(105.232 0 0)
(105.692 0 0)
(106.167 0 0)
(106.656 0 0)
(107.157 0 0)
(107.668 0 0)
(108.188 0 0)
(108.717 0 0)
(109.252 0 0)
(109.793 0 0)
(110.339 0 0)
(110.889 0 0)
(111.444 0 0)
(112.002 0 0)
(112.562 0 0)
(113.124 0 0)
(113.69 0 0)
(114.252 0 0)
(114.834 0 0)
(115.354 0 0)
(116.072 0 0)
(248.721 0 0)
(247.458 0 0)
(246.162 0 0)
(244.833 0 0)
(243.468 0 0)
(242.067 0 0)
(240.627 0 0)
(239.147 0 0)
(237.624 0 0)
(236.058 0 0)
(234.445 0 0)
(232.784 0 0)
(231.07 0 0)
(229.302 0 0)
(227.476 0 0)
(225.588 0 0)
(223.633 0 0)
(221.607 0 0)
(219.505 0 0)
(217.32 0 0)
(215.044 0 0)
(212.669 0 0)
(210.186 0 0)
(207.581 0 0)
(204.84 0 0)
(201.945 0 0)
(198.873 0 0)
(195.595 0 0)
(192.074 0 0)
(188.258 0 0)
(184.074 0 0)
(179.405 0 0)
(174.058 0 0)
(167.751 0 0)
(160.203 0 0)
(151.391 0 0)
(141.802 0 0)
(132.382 0 0)
(124.09 0 0)
(117.463 0 0)
(112.537 0 0)
(109.042 0 0)
(106.627 0 0)
(104.985 0 0)
(103.884 0 0)
(103.163 0 0)
(102.714 0 0)
(102.463 0 0)
(102.361 0 0)
(102.373 0 0)
(102.473 0 0)
(102.645 0 0)
(102.875 0 0)
(103.152 0 0)
(103.469 0 0)
(103.819 0 0)
(104.198 0 0)
(104.601 0 0)
(105.025 0 0)
(105.467 0 0)
(105.925 0 0)
(106.397 0 0)
(106.88 0 0)
(107.374 0 0)
(107.878 0 0)
(108.389 0 0)
(108.907 0 0)
(109.431 0 0)
(109.96 0 0)
(110.494 0 0)
(111.032 0 0)
(111.573 0 0)
(112.117 0 0)
(112.663 0 0)
(113.212 0 0)
(113.757 0 0)
(114.322 0 0)
(114.828 0 0)
(115.523 0 0)
(247.584 0 0)
(246.328 0 0)
(245.04 0 0)
(243.719 0 0)
(242.362 0 0)
(240.969 0 0)
(239.538 0 0)
(238.067 0 0)
(236.554 0 0)
(234.997 0 0)
(233.395 0 0)
(231.743 0 0)
(230.041 0 0)
(228.284 0 0)
(226.469 0 0)
(224.592 0 0)
(222.65 0 0)
(220.637 0 0)
(218.548 0 0)
(216.377 0 0)
(214.115 0 0)
(211.755 0 0)
(209.287 0 0)
(206.697 0 0)
(203.973 0 0)
(201.094 0 0)
(198.04 0 0)
(194.78 0 0)
(191.276 0 0)
(187.477 0 0)
(183.309 0 0)
(178.654 0 0)
(173.317 0 0)
(167.021 0 0)
(159.502 0 0)
(150.757 0 0)
(141.287 0 0)
(132.018 0 0)
(123.874 0 0)
(117.363 0 0)
(112.512 0 0)
(109.058 0 0)
(106.661 0 0)