/*--------------------------------*- C++ -*----------------------------------*\
| =========                 |                                                 |
| \\      /  F ield         | OpenFOAM: The Open Source CFD Toolbox           |
|  \\    /   O peration     | Version:  2312                                  |
|   \\  /    A nd           | Website:  www.openfoam.com                      |
|    \\/     M anipulation  |                                                 |
\*---------------------------------------------------------------------------*/
FoamFile
{
    version     2.0;
    format      ascii;
    arch        "LSB;label=32;scalar=64";
    class       surfaceScalarField;
    location    "0.934";
    object      phi;
}
// * * * * * * * * * * * * * * * * * * * * * * * * * * * * * * * * * * * * * //

dimensions      [0 3 -1 0 0 0 0];

oriented        oriented;

internalField   nonuniform List<scalar> 
62015
(
36.2609
0.190923
-37.3508
35.1695
0.182394
34.0801
0.17393
32.9972
0.165564
31.9275
0.157336
30.8805
0.149296
29.8686
0.141505
28.9075
0.134031
28.0143
0.126946
27.2065
0.120315
26.4987
0.114184
25.9006
0.108575
25.4159
0.103477
25.0424
0.098853
24.7731
0.0946441
24.5979
0.0907821
24.5053
0.0871954
24.4839
0.0838152
24.5227
0.0805797
24.6121
0.0774354
24.7436
0.0743367
24.9102
0.0712467
25.1061
0.0681348
25.3265
0.0649764
25.5673
0.0617521
25.8255
0.0584461
26.0984
0.0550461
26.384
0.0515426
26.6805
0.0479281
26.9865
0.0441969
27.301
0.0403449
27.6231
0.0363687
27.9521
0.0322669
28.2874
0.0280376
28.6286
0.0236809
28.9753
0.0191963
29.3274
0.014585
29.6845
0.00984739
30.0465
0.00498517
30.4135
0
30.7852
-0.00510631
31.1617
-0.0103311
31.543
-0.0156726
31.9292
-0.0211275
32.3201
-0.0266935
32.716
-0.0323672
33.1168
-0.0381458
33.5227
-0.0440257
33.9336
-0.050004
34.3498
-0.0560766
34.7713
-0.0622402
35.1982
-0.068491
35.6306
-0.0748254
36.0686
-0.0812392
36.5123
-0.0877286
36.9617
-0.0942893
37.417
-0.100918
37.8783
-0.107609
38.3457
-0.11436
38.8192
-0.121165
39.2989
-0.12802
39.7849
-0.134921
40.2773
-0.141864
40.7761
-0.148844
41.2815
-0.155856
41.7935
-0.162896
42.3121
-0.169959
42.8373
-0.177041
43.3694
-0.184137
43.9082
-0.191242
44.4538
-0.198352
45.0063
-0.205462
45.5655
-0.212568
46.1322
-0.219661
46.704
-0.226749
47.2883
-0.233791
47.8624
-0.240892
48.496
-0.247708
-0.25529
48.9755
34.3862
0.367493
-35.428
33.345
0.351008
32.3095
0.334689
31.2852
0.318611
30.2801
0.302863
29.3049
0.287554
28.373
0.272812
27.4998
0.25877
26.7011
0.245555
25.9913
0.233267
25.3809
0.221963
24.8754
0.211643
24.4746
0.202256
24.1738
0.193708
23.9649
0.185875
23.8377
0.178627
23.7817
0.17183
23.7867
0.165362
23.8432
0.159117
23.9429
0.153
24.0789
0.146935
24.2451
0.140857
24.4368
0.134714
24.6497
0.128466
24.8807
0.122076
25.127
0.11552
25.3865
0.108776
25.6573
0.101826
25.938
0.094658
26.2275
0.0872626
26.5248
0.0796321
26.8291
0.0717614
27.1399
0.063647
27.4567
0.0552872
27.779
0.0466811
28.1067
0.0378291
28.4394
0.0287327
28.777
0.0193936
29.1194
0.00981506
29.4665
0
29.8184
-0.0100476
30.1748
-0.0203231
30.536
-0.0308223
30.9018
-0.0415397
31.2724
-0.0524695
31.6477
-0.0636065
32.0279
-0.0749444
32.413
-0.0864766
32.8031
-0.098197
33.1983
-0.110098
33.5986
-0.122174
34.0042
-0.134416
34.4152
-0.146818
34.8316
-0.159372
35.2535
-0.17207
35.681
-0.184905
36.1142
-0.197868
36.5532
-0.210951
36.9981
-0.224147
37.4489
-0.237446
37.9057
-0.250841
38.3687
-0.264322
38.8378
-0.277882
39.3132
-0.291511
39.7948
-0.305201
40.2828
-0.318942
40.7772
-0.332727
41.2781
-0.346545
41.7855
-0.360389
42.2994
-0.374248
42.8198
-0.388115
43.347
-0.401978
43.8805
-0.415831
44.4213
-0.429659
44.967
-0.443473
45.5245
-0.457198
46.0728
-0.471029
46.6765
-0.484322
-0.49905
47.1389
32.5651
0.530021
-33.5583
31.5758
0.50619
30.5967
0.482674
29.6346
0.459599
28.6987
0.437115
27.8006
0.415393
26.9538
0.394622
26.1727
0.374985
25.4707
0.356633
24.8585
0.339664
24.3424
0.324104
23.9239
0.309904
23.6002
0.29695
23.3647
0.285084
23.2089
0.274124
23.1234
0.263884
23.0985
0.254186
23.1255
0.244871
23.1962
0.235799
23.3038
0.22685
23.4424
0.217926
23.6071
0.208945
23.7938
0.199841
23.999
0.19056
24.2201
0.181058
24.4548
0.171302
24.7012
0.161263
24.9578
0.15092
25.2235
0.140256
25.4971
0.129259
25.778
0.11792
26.0654
0.106231
26.3589
0.0941895
26.658
0.081792
26.9624
0.0690383
27.2719
0.0559295
27.5863
0.0424677
27.9055
0.0286557
28.2292
0.0144984
28.5576
0
28.8905
-0.0148334
29.2279
-0.0299952
29.5699
-0.0454787
29.9165
-0.0612763
30.2677
-0.0773803
30.6236
-0.0937815
30.9842
-0.110472
31.3496
-0.127442
31.7199
-0.144682
32.0951
-0.162182
32.4754
-0.179932
32.8608
-0.197921
33.2513
-0.216139
33.6472
-0.234575
34.0485
-0.253218
34.4551
-0.272056
34.8674
-0.291077
35.2852
-0.31027
35.7087
-0.329623
36.138
-0.349123
36.5731
-0.368759
37.0141
-0.388517
37.4611
-0.408386
37.9141
-0.428354
38.3732
-0.448405
38.8385
-0.468529
39.3099
-0.488713
39.7876
-0.508942
40.2715
-0.529204
40.7617
-0.549486
41.2582
-0.569775
41.7612
-0.590056
42.2703
-0.61032
42.7864
-0.630543
43.3073
-0.650741
43.8394
-0.67081
44.3632
-0.691023
44.9385
-0.710467
-0.731942
45.3829
30.8212
0.679238
-31.7649
29.8857
0.648708
28.9656
0.618703
28.0689
0.589408
27.2058
0.561033
26.3883
0.533812
25.6291
0.507974
24.9407
0.483721
24.3334
0.461192
23.814
0.440445
23.3851
0.421445
23.0451
0.404073
22.7893
0.38815
22.6103
0.373457
22.4998
0.359763
22.4491
0.346842
22.4499
0.334487
22.4946
0.322512
22.5764
0.310758
22.6897
0.299089
22.8294
0.287395
22.9916
0.275582
23.1728
0.263575
23.3702
0.251313
23.5816
0.238747
23.805
0.225838
24.0388
0.212553
24.282
0.198868
24.5332
0.184765
24.7919
0.170228
25.0572
0.155247
25.3287
0.139815
25.6058
0.123928
25.8883
0.107583
26.1758
0.09078
26.4682
0.0735205
26.7653
0.0558078
27.0669
0.0376463
27.3731
0.0190415
27.6837
0
27.9987
-0.0194707
28.3182
-0.0393622
28.6421
-0.0596655
28.9705
-0.0803706
29.3034
-0.101467
29.6408
-0.122945
29.9829
-0.144791
30.3296
-0.166995
30.6811
-0.189544
31.0374
-0.212425
31.3986
-0.235624
31.7649
-0.259129
32.1361
-0.282926
32.5125
-0.306999
32.8941
-0.331336
33.281
-0.35592
33.6733
-0.380738
34.071
-0.405773
34.4743
-0.43101
34.8831
-0.456435
35.2976
-0.48203
35.7177
-0.507779
36.1437
-0.533667
36.5755
-0.559677
37.0131
-0.585792
37.4567
-0.611996
37.9062
-0.638273
38.3618
-0.664604
38.8234
-0.690974
39.291
-0.717365
39.7648
-0.74376
40.2447
-0.770141
40.7307
-0.796495
41.2232
-0.822792
41.7204
-0.849052
42.2283
-0.875142
42.7286
-0.901408
43.2773
-0.926694
-0.954545
43.7037
29.1659
0.816053
-30.0585
28.2863
0.779524
27.4281
0.743796
26.6
0.709116
25.8127
0.675751
25.0777
0.643975
24.4064
0.614029
23.8084
0.586097
23.2907
0.560267
22.8567
0.536529
22.5058
0.514769
22.2344
0.494798
22.0367
0.476374
21.9052
0.459231
21.8322
0.443101
21.8099
0.427735
21.8311
0.412905
21.8895
0.398412
21.9795
0.384087
22.0962
0.369786
22.2356
0.355392
22.3944
0.340806
22.5697
0.325947
22.7591
0.310752
22.9609
0.295167
23.1734
0.279149
23.3952
0.262666
23.6254
0.245692
23.8631
0.228204
24.1076
0.210189
24.3582
0.191635
24.6145
0.172534
24.8763
0.152883
25.143
0.132679
25.4146
0.111923
25.6909
0.0906169
25.9716
0.0687654
26.2568
0.0463739
26.5464
0.0234493
26.8402
0
27.1384
-0.0239648
27.4409
-0.048435
27.7477
-0.0733993
28.0588
-0.098846
28.3744
-0.124762
28.6944
-0.151135
29.0189
-0.17795
29.3479
-0.205193
29.6816
-0.232849
30.02
-0.260902
30.3632
-0.289337
30.7112
-0.318136
31.0642
-0.347284
31.4221
-0.376762
31.7851
-0.406554
32.1532
-0.436641
32.5266
-0.467005
32.9052
-0.497629
33.2892
-0.528491
33.6785
-0.559576
34.0734
-0.590861
34.4737
-0.622328
34.8796
-0.653959
35.2912
-0.685731
35.7084
-0.717626
36.1314
-0.749623
36.5601
-0.781702
36.9946
-0.813843
37.4349
-0.846025
37.8811
-0.878226
38.3332
-0.910427
38.7912
-0.942606
39.255
-0.974745
39.7251
-1.00681
40.1998
-1.03883
40.6846
-1.07063
41.1624
-1.10264
41.6858
-1.13347
-1.16735
42.0945
27.6041
0.941469
-28.4436
26.7831
0.899699
25.9895
0.859075
25.2328
0.819897
24.5232
0.782471
23.8711
0.747078
23.2855
0.713938
22.7732
0.683174
22.3381
0.654801
21.9804
0.628722
21.6976
0.604745
21.4848
0.582616
21.3358
0.562044
21.2435
0.54273
21.2008
0.524384
21.2011
0.506744
21.2383
0.489573
21.3069
0.472668
21.4024
0.455856
21.5207
0.438992
21.6586
0.421955
21.8131
0.404645
21.9821
0.38698
22.1636
0.368894
22.3559
0.350333
22.5577
0.331253
22.7681
0.31162
22.986
0.291406
23.2107
0.270591
23.4417
0.24916
23.6784
0.2271
23.9205
0.204405
24.1677
0.181071
24.4197
0.157096
24.6762
0.132481
24.9372
0.107231
25.2026
0.0813502
25.4722
0.0548456
25.7461
0.0277256
26.0242
0
26.3064
-0.0283202
26.5928
-0.0572231
26.8835
-0.0866954
27.1783
-0.116723
27.4775
-0.147292
27.781
-0.178386
28.0889
-0.209989
28.4013
-0.242084
28.7181
-0.274654
29.0395
-0.30768
29.3656
-0.341144
29.6964
-0.375027
30.0319
-0.409309
30.3724
-0.443969
30.7177
-0.478989
31.068
-0.514346
31.4233
-0.550019
31.7838
-0.585987
32.1495
-0.622228
32.5203
-0.65872
32.8965
-0.695441
33.278
-0.732367
33.6649
-0.769475
34.0572
-0.806743
34.455
-0.844148
34.8583
-0.881664
35.2672
-0.91927
35.6817
-0.956941
36.1018
-0.994652
36.5275
-1.03238
36.9589
-1.0701
37.396
-1.10779
37.8386
-1.14543
38.2874
-1.18297
38.7406
-1.22045
39.2034
-1.25767
39.6598
-1.29512
40.1592
-1.33122
-1.3708
40.5506
26.1377
1.05655
-26.9216
25.3779
1.01036
24.6516
0.965718
23.9681
0.922958
23.3366
0.882393
22.7656
0.844275
22.2616
0.808764
21.8286
0.7759
21.4676
0.745605
21.1768
0.717697
20.9524
0.691917
20.7889
0.667956
20.6801
0.645492
20.6196
0.624207
20.6012
0.603802
20.6192
0.58401
20.6683
0.564595
20.7443
0.545357
20.8431
0.526122
20.9615
0.506748
21.0967
0.487115
21.2465
0.467124
21.4089
0.446694
21.5823
0.425758
21.7654
0.404262
21.957
0.382164
22.1562
0.359428
22.3624
0.336027
22.5749
0.311942
22.7931
0.287156
23.0167
0.261659
23.2453
0.235443
23.4787
0.208507
23.7167
0.180848
23.9591
0.152469
24.2058
0.123375
24.4566
0.0935721
24.7116
0.0630684
24.9706
0.0318741
25.2338
0
25.5009
-0.0325411
25.7722
-0.065735
26.0476
-0.0995675
26.3271
-0.134022
26.6108
-0.169083
26.8987
-0.204731
27.1909
-0.240949
27.4874
-0.277717
27.7883
-0.315015
28.0936
-0.352823
28.4035
-0.391119
28.7179
-0.429883
29.037
-0.469091
29.3608
-0.508722
29.6893
-0.54875
30.0227
-0.589155
30.361
-0.62991
30.7042
-0.670992
31.0524
-0.712375
31.4057
-0.754036
31.7642
-0.795947
32.1277
-0.838084
32.4965
-0.88042
32.8705
-0.92293
33.2499
-0.965586
33.6345
-1.00836
34.0245
-1.05123
34.4199
-1.09417
34.8207
-1.13714
35.227
-1.18013
35.6386
-1.2231
36.0558
-1.26602
36.4784
-1.30888
36.9068
-1.35162
37.3394
-1.39428
37.7813
-1.43666
38.2172
-1.47927
38.6937
-1.52036
-1.56532
39.0687
24.7671
1.16244
-25.4929
24.0709
1.11269
23.4137
1.06493
22.8039
1.0195
22.2492
0.976666
21.7558
0.936627
21.3277
0.899451
20.9663
0.865081
20.6706
0.833349
20.4374
0.803996
20.2622
0.77671
20.1396
0.75115
20.0636
0.726973
20.0286
0.703855
20.0294
0.681499
20.0609
0.659641
20.1189
0.638053
20.1997
0.616538
20.3001
0.59493
20.4173
0.573089
20.5492
0.5509
20.6938
0.528265
20.8494
0.505107
21.0148
0.48136
21.1888
0.456971
21.3705
0.431898
21.5591
0.406108
21.7541
0.379573
21.9549
0.352274
22.161
0.324196
22.3722
0.295329
22.5881
0.265667
22.8085
0.235207
23.0333
0.20395
23.2623
0.171899
23.4954
0.13906
23.7326
0.10544
23.9737
0.0710493
24.2188
0.0358982
24.4678
0
24.7208
-0.0366312
24.9778
-0.0739799
25.2387
-0.112029
25.5037
-0.150762
25.7727
-0.190159
26.0459
-0.230201
26.3232
-0.270866
26.6047
-0.312134
26.8904
-0.353984
27.1806
-0.39639
27.475
-0.439331
27.774
-0.482782
28.0774
-0.526718
28.3855
-0.571115
28.6981
-0.615946
29.0154
-0.661185
29.3375
-0.706805
29.6644
-0.75278
29.9961
-0.799081
30.3327
-0.845681
30.6742
-0.892551
31.0207
-0.939664
31.3723
-0.986989
31.7289
-1.0345
32.0907
-1.08216
32.4575
-1.12995
32.8296
-1.17783
33.2068
-1.22578
33.5893
-1.27376
33.977
-1.32175
34.3699
-1.36971
34.7681
-1.41761
35.1715
-1.46543
35.5804
-1.51311
35.9936
-1.56069
36.4155
-1.60795
36.8319
-1.65545
37.2866
-1.70128
-1.75133
37.6458
23.492
1.26031
-24.1575
22.8612
1.2079
22.2737
1.15792
21.7365
1.11066
21.2555
1.06635
20.8345
1.02507
20.4753
0.986801
20.1773
0.951382
19.9381
0.918567
19.7538
0.888042
19.6197
0.859456
19.5305
0.83245
19.4811
0.806678
19.4664
0.78182
19.482
0.757586
19.5237
0.733722
19.5879
0.71001
19.6716
0.686261
19.7722
0.662317
19.8874
0.638045
20.0153
0.613333
20.1542
0.58809
20.303
0.562239
20.4605
0.535719
20.6257
0.508477
20.7979
0.480474
20.9764
0.451676
21.1607
0.42206
21.3504
0.391604
21.545
0.360297
21.7444
0.328128
21.9483
0.295092
22.1565
0.261189
22.3688
0.226419
22.5852
0.190787
22.8055
0.154299
23.0297
0.116965
23.2578
0.0787951
23.4897
0.039802
23.7255
0
23.965
-0.0405951
24.2085
-0.0819661
24.4558
-0.124095
24.707
-0.166962
24.9622
-0.210546
25.2213
-0.254826
25.4846
-0.29978
25.7519
-0.345383
26.0234
-0.391612
26.299
-0.438442
26.579
-0.485847
26.8632
-0.5338
27.1519
-0.582275
27.4449
-0.631244
27.7425
-0.680678
28.0445
-0.730549
28.3512
-0.780828
28.6625
-0.831485
28.9785
-0.88249
29.2993
-0.933812
29.6248
-0.98542
29.9551
-1.03728
30.2903
-1.08937
30.6304
-1.14165
30.9754
-1.19409
31.3254
-1.24665
31.6803
-1.29931
32.0403
-1.35203
32.4052
-1.40478
32.7752
-1.45752
33.1503
-1.51022
33.5304
-1.56285
33.9155
-1.61538
34.306
-1.66776
34.7006
-1.72001
35.1034
-1.7719
35.5012
-1.82404
35.9351
-1.87437
-1.92922
36.2793
22.3113
1.35139
-22.9149
21.7464
1.29719
21.2277
1.24583
20.7605
1.19751
20.3485
1.15238
19.9937
1.11041
19.6958
1.07147
19.4529
1.03533
19.2619
1.00168
19.1186
0.970157
19.0183
0.940401
18.9563
0.912046
18.9281
0.884753
18.9293
0.858212
18.9562
0.832146
19.0054
0.806316
19.0738
0.780514
19.1589
0.754563
19.2585
0.728314
19.3709
0.70164
19.4943
0.674438
19.6275
0.646618
19.7695
0.618109
19.9192
0.588852
20.0758
0.558798
20.2388
0.527909
20.4077
0.496153
20.5818
0.463507
20.761
0.429952
20.9448
0.395478
21.1331
0.360074
21.3256
0.323738
21.5222
0.286469
21.7228
0.24827
21.9272
0.209146
22.1355
0.169104
22.3475
0.128156
22.5633
0.0863126
22.7827
0.0435888
23.0059
0
23.2328
-0.0444365
23.4634
-0.0897023
23.6979
-0.135777
23.9361
-0.182639
24.1782
-0.230267
24.4241
-0.278637
24.674
-0.327725
24.9279
-0.377505
25.1858
-0.427951
25.4478
-0.479036
25.714
-0.530732
25.9843
-0.58301
26.2589
-0.635842
26.5377
-0.689198
26.821
-0.743046
27.1086
-0.797356
27.4006
-0.852096
27.6972
-0.907235
27.9983
-0.962739
28.3039
-1.01858
28.6142
-1.07471
28.9291
-1.13111
29.2488
-1.18774
29.5731
-1.24457
29.9022
-1.30156
30.2361
-1.35868
30.5748
-1.41589
30.9183
-1.47315
31.2666
-1.53043
31.6198
-1.5877
31.9778
-1.64492
32.3408
-1.70204
32.7085
-1.75905
33.0814
-1.81588
33.4581
-1.87257
33.8428
-1.92885
34.2229
-1.98539
34.637
-2.03999
-2.09937
34.9668
21.2228
1.43688
-21.7639
20.7232
1.38172
20.2709
1.32971
19.8694
1.28098
19.5207
1.23555
19.2249
1.19329
18.9806
1.15398
18.785
1.11734
18.6345
1.08299
18.5251
1.05058
18.4524
1.01973
18.4123
0.990079
18.4009
0.961305
18.4145
0.933112
18.4498
0.905243
18.5042
0.877472
18.5751
0.849605
18.6603
0.821476
18.7582
0.792947
18.8672
0.763899
18.9859
0.734233
19.1133
0.703868
19.2484
0.672735
19.3905
0.640779
19.539
0.607953
19.6932
0.574221
19.8527
0.539555
20.0173
0.503933
20.1864
0.467337
20.36
0.429757
20.5378
0.391187
20.7195
0.351622
20.9052
0.311064
21.0947
0.269518
21.2879
0.226989
21.4848
0.183486
21.6853
0.139022
21.8894
0.0936084
22.0971
0.0472621
22.3084
0
22.5233
-0.0481594
22.7419
-0.0971961
22.9641
-0.147088
23.1901
-0.197813
23.4198
-0.249347
23.6532
-0.301664
23.8905
-0.354738
24.1317
-0.408542
24.3767
-0.463048
24.6258
-0.518227
24.8789
-0.574049
25.136
-0.630483
25.3972
-0.687499
25.6626
-0.745064
25.9323
-0.803145
26.2061
-0.86171
26.4843
-0.920723
26.7668
-0.980152
27.0538
-1.03996
27.3451
-1.10011
27.6409
-1.16058
27.9412
-1.22131
28.246
-1.28228
28.5554
-1.34345
28.8694
-1.40478
29.1879
-1.46624
29.5111
-1.52778
29.839
-1.58937
30.1715
-1.65098
30.5086
-1.71255
30.8505
-1.77405
31.197
-1.83545
31.5482
-1.89671
31.9043
-1.95777
32.2641
-2.01867
32.6315
-2.07912
32.9947
-2.13983
33.39
-2.19848
-2.26214
33.706
20.2232
1.51794
-20.7025
19.7866
1.46255
19.3969
1.41051
19.0559
1.36186
18.764
1.31649
18.52
1.27422
18.3217
1.23473
18.166
1.1977
18.0492
1.16275
17.9676
1.12949
17.9173
1.09757
17.8947
1.06665
17.8963
1.03641
17.9193
1.00658
17.9608
0.976924
18.0186
0.947227
18.0907
0.917312
18.1751
0.887026
18.2706
0.856238
18.3758
0.82484
18.4895
0.792739
18.6111
0.759858
18.7395
0.726134
18.8743
0.691516
19.0148
0.655959
19.1606
0.61943
19.3114
0.581903
19.4667
0.543357
19.6264
0.503777
19.7903
0.463154
19.9581
0.421483
20.1297
0.378761
20.3051
0.334991
20.4841
0.290178
20.6667
0.24433
20.8528
0.197457
21.0424
0.149572
21.2356
0.100689
21.4322
0.0508257
21.6323
0
21.8359
-0.0517678
22.0431
-0.104456
22.2538
-0.158041
22.4681
-0.2125
22.6861
-0.267806
22.9077
-0.323932
23.1331
-0.380851
23.3622
-0.438533
23.5951
-0.496949
23.8319
-0.556068
24.0725
-0.615858
24.3171
-0.676287
24.5657
-0.73732
24.8184
-0.798925
25.0751
-0.861067
25.3359
-0.923709
25.601
-0.986817
25.8702
-1.05035
26.1436
-1.11428
26.4213
-1.17856
26.7034
-1.24316
26.9897
-1.30804
27.2805
-1.37315
27.5756
-1.43847
27.8752
-1.50394
28.1792
-1.56953
28.4877
-1.63521
28.8006
-1.70092
29.118
-1.76663
29.4399
-1.8323
29.7664
-1.89788
30.0973
-1.96334
30.4327
-2.02865
30.7728
-2.09372
31.1166
-2.15861
31.4675
-2.22302
31.8146
-2.28767
32.1919
-2.35017
-2.41787
32.4947
19.3079
1.59564
-19.7274
18.9309
1.54059
18.5988
1.48899
18.3122
1.44077
18.0702
1.39572
17.8709
1.35358
17.7117
1.31401
17.5893
1.27665
17.5004
1.24111
17.4414
1.20702
17.409
1.17403
17.4001
1.14183
17.4119
1.11013
17.4418
1.07866
17.4877
1.04722
17.5475
1.01561
17.6196
0.983661
17.7025
0.951233
17.7951
0.918207
17.8962
0.884481
18.005
0.849971
18.1206
0.814605
18.2426
0.778325
18.3702
0.741081
18.5031
0.702834
18.6409
0.663553
18.7833
0.623214
18.93
0.581797
19.0807
0.539291
19.2354
0.495687
19.3938
0.450981
19.5558
0.405173
19.7215
0.358266
19.8906
0.310266
20.0631
0.261183
20.2391
0.211028
20.4185
0.159815
20.6012
0.107561
20.7874
0.0542824
20.9769
0
21.1698
-0.0552649
21.3662
-0.111489
21.566
-0.168648
21.7694
-0.226717
21.9762
-0.285667
22.1867
-0.34547
22.4007
-0.406097
22.6184
-0.467518
22.8398
-0.5297
23.065
-0.59261
23.2939
-0.656217
23.5266
-0.720484
23.7633
-0.785377
24.0038
-0.850861
24.2483
-0.916898
24.4967
-0.983451
24.7492
-1.05048
25.0058
-1.11795
25.2664
-1.18582
25.5312
-1.25405
25.8002
-1.32261
26.0733
-1.39144
26.3507
-1.46051
26.6323
-1.52978
26.9182
-1.5992
27.2083
-1.66874
27.5028
-1.73835
27.8015
-1.80799
28.1046
-1.87761
28.412
-1.94718
28.7237
-2.01664
29.0398
-2.08596
29.3601
-2.1551
29.685
-2.22399
30.0134
-2.29267
30.3487
-2.36084
30.6804
-2.42924
31.0406
-2.49538
-2.56689
31.3308
18.4714
1.67088
-18.8344
18.1493
1.61662
17.8692
1.56578
17.6306
1.5182
17.4318
1.4736
17.2706
1.43166
17.1441
1.39203
17.0493
1.35433
16.983
1.31818
16.9422
1.28323
16.924
1.24916
16.9259
1.21567
16.9453
1.18249
16.9803
1.14939
17.029
1.11617
17.0897
1.08265
17.161
1.04867
17.2419
1.01412
17.3312
0.97887
17.4281
0.942841
17.5318
0.905948
17.6417
0.868127
17.7573
0.829323
17.8781
0.789492
18.0037
0.748596
18.1338
0.706609
18.2682
0.663507
18.4067
0.619273
18.5489
0.573898
18.6949
0.527374
18.8444
0.479699
18.9974
0.430874
19.1539
0.380904
19.3137
0.329796
19.4768
0.277561
19.6432
0.22421
19.8128
0.169761
19.9858
0.11423
20.162
0.0576358
20.3416
0
20.5244
-0.0586546
20.7106
-0.118303
20.9001
-0.178921
21.0931
-0.240479
21.2895
-0.30295
21.4893
-0.366303
21.6927
-0.430508
21.8996
-0.495532
22.11
-0.561341
22.3242
-0.627902
22.5419
-0.69518
22.7634
-0.763138
22.9887
-0.83174
23.2177
-0.900947
23.4506
-0.970721
23.6873
-1.04102
23.9279
-1.11181
24.1724
-1.18305
24.4209
-1.2547
24.6734
-1.32671
24.93
-1.39904
25.1905
-1.47165
25.4552
-1.5445
25.7239
-1.61755
25.9967
-1.69074
26.2737
-1.76404
26.5548
-1.8374
26.84
-1.91078
27.1294
-1.98413
27.423
-2.0574
27.7207
-2.13056
28.0227
-2.20355
28.3287
-2.27634
28.6391
-2.34885
28.9529
-2.42112
29.2731
-2.49286
29.5902
-2.5648
29.9342
-2.63441
-2.7095
30.2124
17.7071
1.74441
-18.018
17.4346
1.69123
17.2005
1.64134
17.0035
1.5945
16.8417
1.55038
16.7124
1.50864
16.6131
1.46892
16.5409
1.43084
16.4929
1.39404
16.4667
1.3582
16.4597
1.32301
16.4698
1.28821
16.4949
1.25353
16.5334
1.21879
16.5836
1.18378
16.6443
1.14835
16.7143
1.11236
16.7927
1.07569
16.8785
1.03824
16.971
0.999933
17.0697
0.960684
17.174
0.920439
17.2834
0.879146
17.3976
0.836766
17.5163
0.793264
17.6392
0.748616
17.766
0.7028
17.8966
0.655804
18.0308
0.607616
18.1686
0.558234
18.3097
0.507655
18.4542
0.455882
18.6019
0.402922
18.7529
0.348782
18.9071
0.293475
19.0645
0.237015
19.225
0.179418
19.3887
0.120702
19.5556
0.0608887
19.7257
0
19.899
-0.06194
20.0755
-0.124906
20.2554
-0.188869
20.4385
-0.253803
20.6249
-0.319675
20.8147
-0.386456
21.008
-0.454112
21.2046
-0.52261
21.4048
-0.591915
21.6084
-0.661991
21.8157
-0.732801
22.0265
-0.804308
22.2409
-0.876473
22.4591
-0.949256
22.6809
-1.02262
22.9064
-1.09652
23.1358
-1.17091
23.3689
-1.24576
23.6059
-1.32102
23.8467
-1.39664
24.0914
-1.47259
24.34
-1.54882
24.5925
-1.62528
24.849
-1.70193
25.1094
-1.77872
25.3738
-1.85561
25.6422
-1.93254
25.9146
-2.00948
26.191
-2.08638
26.4714
-2.16318
26.7559
-2.23985
27.0443
-2.31633
27.3367
-2.39259
27.6332
-2.46854
27.9331
-2.54422
28.2391
-2.61934
28.5422
-2.69464
28.8707
-2.76754
-2.84602
29.1374
17.0082
1.81681
-17.2719
16.7796
1.76488
16.5855
1.71601
16.4242
1.66991
16.2934
1.62624
16.1908
1.58465
16.1138
1.54477
16.0599
1.50624
16.0267
1.46874
16.012
1.43196
16.0137
1.39561
16.03
1.35946
16.0592
1.32328
16.0998
1.28687
16.1507
1.25007
16.2107
1.21274
16.2789
1.17474
16.3544
1.13597
16.4365
1.09634
16.5247
1.05577
16.6185
1.0142
16.7172
0.971558
16.8208
0.927812
16.9287
0.882921
17.0407
0.836856
17.1566
0.789592
17.2763
0.741113
17.3995
0.691406
17.5261
0.640464
17.6561
0.588284
17.7893
0.534865
17.9257
0.480213
18.0653
0.424334
18.208
0.367238
18.3537
0.308939
18.5025
0.249451
18.6544
0.188793
18.8094
0.126983
18.9675
0.0640444
19.1287
-1.29752e-07
19.2929
-0.0651245
19.4604
-0.131302
19.631
-0.198505
19.8048
-0.266702
19.9819
-0.335862
20.1622
-0.405952
20.3458
-0.476939
20.5328
-0.548787
20.7232
-0.62146
20.9169
-0.69492
21.1141
-0.76913
21.3148
-0.84405
21.519
-0.919639
21.7268
-0.995857
21.9382
-1.07266
22.1531
-1.15001
22.3717
-1.22786
22.594
-1.30617
22.82
-1.38489
23.0497
-1.46397
23.2832
-1.54338
23.5204
-1.62306
23.7614
-1.70297
24.0062
-1.78306
24.2549
-1.86329
24.5074
-1.9436
24.7637
-2.02394
25.0238
-2.10428
25.2879
-2.18455
25.5557
-2.26472
25.8274
-2.34472
26.103
-2.42452
26.3824
-2.50407
26.6658
-2.58329
26.9524
-2.66221
27.2449
-2.74053
27.5347
-2.81902
27.8483
-2.89504
-2.97671
28.1041
16.3676
1.88852
-16.5895
16.1773
1.83786
16.0175
1.78999
15.8863
1.74458
15.7815
1.70129
15.7008
1.65975
15.642
1.61962
15.6029
1.58058
15.5814
1.5423
15.5757
1.50452
15.584
1.46698
15.6049
1.42945
15.6368
1.39173
15.6787
1.35365
15.7295
1.31506
15.7882
1.27583
15.8542
1.23583
15.9267
1.19498
16.0051
1.15319
16.0889
1.11038
16.1778
1.0665
16.2713
1.0215
16.3691
0.975337
16.4709
0.927975
16.5766
0.879388
16.686
0.829556
16.7988
0.778463
16.915
0.7261
17.0345
0.67246
17.1571
0.617542
17.2829
0.561348
17.4117
0.503883
17.5435
0.445156
17.6783
0.385178
17.8161
0.323964
17.9569
0.26153
18.1007
0.197894
18.2474
0.133079
18.3971
0.0671056
18.5499
0
18.7056
-0.0682116
18.8645
-0.137501
19.0264
-0.207838
19.1914
-0.279191
19.3596
-0.351528
19.5309
-0.424815
19.7055
-0.499016
19.8832
-0.574095
20.0643
-0.650014
20.2487
-0.726734
20.4364
-0.804215
20.6275
-0.882418
20.822
-0.961299
21.0199
-1.04082
21.2213
-1.12093
21.4262
-1.20159
21.6347
-1.28275
21.8467
-1.36437
22.0622
-1.4464
22.2814
-1.5288
22.5042
-1.61152
22.7306
-1.6945
22.9606
-1.77771
23.1944
-1.86109
23.4318
-1.94459
23.6729
-2.02816
23.9177
-2.11176
24.1662
-2.19533
24.4184
-2.27882
24.6744
-2.36219
24.934
-2.44537
25.1974
-2.52832
25.4644
-2.611
25.7352
-2.69332
26.0092
-2.77532
26.2887
-2.85669
26.5658
-2.93819
26.8654
-3.01718
-3.10185
27.1107
15.7784
1.9598
-15.9638
15.6211
1.91038
15.4903
1.86342
15.3842
1.8186
15.3009
1.77556
15.2382
1.73397
15.1941
1.6935
15.1668
1.65385
15.1546
1.61474
15.1559
1.5759
15.1691
1.53711
15.1932
1.49817
15.2268
1.4589
15.2691
1.41914
15.3192
1.37876
15.3764
1.33762
15.4399
1.29564
15.5092
1.25272
15.5838
1.20878
15.6634
1.16377
15.7475
1.11762
15.8358
1.07029
15.9282
1.02174
16.0243
0.971946
16.1239
0.920881
16.227
0.868527
16.3334
0.81487
16.443
0.759903
16.5557
0.703622
16.6714
0.646026
16.7901
0.587119
16.9117
0.526908
17.0362
0.465402
17.1637
0.402616
17.294
0.338563
17.4271
0.273261
17.5632
0.206731
17.7021
0.138994
17.844
0.0700752
17.9888
0
18.1365
-0.0712037
18.2872
-0.143507
18.4408
-0.216877
18.5975
-0.291284
18.7573
-0.366692
18.9201
-0.443066
19.0861
-0.520369
19.2552
-0.598564
19.4274
-0.677612
19.6029
-0.757472
19.7816
-0.838103
19.9636
-0.919464
20.1489
-1.00151
20.3375
-1.0842
20.5295
-1.16748
20.7248
-1.25132
20.9236
-1.33566
21.1258
-1.42046
21.3314
-1.50567
21.5405
-1.59124
21.7531
-1.67712
21.9693
-1.76326
22.1889
-1.84962
22.4121
-1.93614
22.6389
-2.02277
22.8691
-2.10946
23.103
-2.19615
23.3404
-2.28281
23.5814
-2.36936
23.826
-2.45577
24.0741
-2.54198
24.3258
-2.62793
24.581
-2.71358
24.8399
-2.79885
25.1018
-2.88377
25.369
-2.96802
25.634
-3.05239
25.9202
-3.13418
-3.22169
26.1555
15.2344
2.03084
-15.3884
15.1049
1.98254
14.9985
1.93637
14.9133
1.89199
14.8475
1.84909
14.7994
1.80733
14.7672
1.76641
14.7493
1.72607
14.7442
1.68604
14.7508
1.64609
14.7676
1.60602
14.7938
1.56565
14.8284
1.52481
14.8705
1.48335
14.9195
1.44117
14.9746
1.39814
15.0355
1.35418
15.1016
1.30921
15.1725
1.26315
15.2478
1.21595
15.3273
1.16755
15.4107
1.11793
15.4978
1.06704
15.5884
1.01485
15.6824
0.961352
15.7795
0.906522
15.8798
0.850352
15.9831
0.792834
16.0894
0.733967
16.1986
0.673753
16.3106
0.612195
16.4254
0.549303
16.5431
0.485088
16.6635
0.419563
16.7867
0.352746
16.9128
0.284654
17.0415
0.215309
17.1731
0.144735
17.3076
0.072956
17.4448
0
17.5849
-0.0741044
17.7279
-0.149327
17.8738
-0.225634
18.0226
-0.302994
18.1744
-0.38137
18.3292
-0.460726
18.4869
-0.541024
18.6478
-0.622226
18.8117
-0.704289
18.9787
-0.787175
19.1489
-0.870839
19.3223
-0.955238
19.4988
-1.04033
19.6786
-1.12606
19.8616
-1.2124
20.0478
-1.29928
20.2374
-1.38667
20.4303
-1.47452
20.6265
-1.56277
20.8261
-1.65137
21.0291
-1.74029
21.2354
-1.82945
21.4451
-1.91882
21.6583
-2.00834
21.8749
-2.09796
22.0949
-2.18762
22.3183
-2.27727
22.5452
-2.36686
22.7755
-2.45634
23.0092
-2.54565
23.2464
-2.63473
23.487
-2.72353
23.7309
-2.81201
23.9784
-2.90008
24.2288
-2.98777
24.4843
-3.07476
24.7378
-3.16184
25.0112
-3.2463
-3.33648
25.2369
14.7296
2.1017
-14.857
14.6235
2.05437
14.5373
2.00883
14.4693
1.96476
14.4178
1.92185
14.3815
1.8798
14.3587
1.83834
14.3481
1.79722
14.3486
1.75621
14.3591
1.7151
14.3785
1.67371
14.4059
1.63187
14.4407
1.58944
14.4822
1.54629
14.5297
1.5023
14.5827
1.45739
14.6408
1.41147
14.7036
1.36446
14.7708
1.3163
14.842
1.26694
14.9171
1.21633
14.9957
1.16444
15.0778
1.11124
15.1632
1.05671
15.2517
1.00082
15.3433
0.943561
15.4378
0.884927
15.5352
0.824911
15.6354
0.763515
15.7384
0.70074
15.8441
0.636593
15.9526
0.571085
16.0637
0.504227
16.1776
0.436034
16.2941
0.366524
16.4133
0.295718
16.5353
0.223637
16.6599
0.150306
16.7873
0.0757506
16.9174
0
17.0503
-0.0769162
17.186
-0.154966
17.3245
-0.234117
17.4659
-0.314333
17.6102
-0.395579
17.7573
-0.477816
17.9074
-0.561005
18.0604
-0.645107
18.2164
-0.73008
18.3754
-0.81588
18.5375
-0.902464
18.7027
-0.989787
18.8709
-1.0778
19.0422
-1.16647
19.2167
-1.25573
19.3944
-1.34554
19.5752
-1.43586
19.7593
-1.52662
19.9466
-1.61779
20.1371
-1.7093
20.3308
-1.80112
20.5279
-1.89317
20.7282
-1.98542
20.9318
-2.07781
21.1387
-2.17028
21.3489
-2.26278
21.5624
-2.35525
21.7792
-2.44764
21.9993
-2.5399
22.2227
-2.63197
22.4495
-2.72379
22.6795
-2.8153
22.9127
-2.90647
23.1494
-2.9972
23.3888
-3.08752
23.6331
-3.17711
23.8756
-3.26676
24.1368
-3.35375
-3.44645
24.3534
14.2589
2.17241
-14.3639
14.1723
2.12587
14.1027
2.0808
14.0487
2.03687
14.0089
1.99382
13.9819
1.95137
13.9665
1.90927
13.9617
1.8673
13.9664
1.82524
13.9796
1.78293
14.0007
1.74018
14.0288
1.69685
14.0633
1.65281
14.1037
1.60796
14.1495
1.56218
14.2002
1.51539
14.2555
1.46751
14.315
1.41848
14.3785
1.36825
14.4458
1.31675
14.5166
1.26397
14.5907
1.20985
14.668
1.15438
14.7484
1.09754
14.8318
1.0393
14.9181
0.979662
15.0071
0.918613
15.0989
0.856152
15.1934
0.792281
15.2905
0.727004
15.3903
0.66033
15.4927
0.592268
15.5978
0.522833
15.7054
0.45204
15.8156
0.37991
15.9284
0.306463
16.0439
0.231721
16.162
0.155712
16.2827
0.0784618
16.4061
-1.29652e-07
16.5322
-0.0796421
16.661
-0.160432
16.7926
-0.242335
16.9269
-0.325315
17.064
-0.409335
17.2039
-0.494355
17.3467
-0.580336
17.4923
-0.667237
17.6408
-0.755014
17.7923
-0.843623
17.9466
-0.93302
18.104
-1.02316
18.2643
-1.11399
18.4277
-1.20547
18.5941
-1.29755
18.7636
-1.39017
18.9361
-1.48329
19.1118
-1.57686
19.2905
-1.67082
19.4724
-1.76512
19.6575
-1.85971
19.8456
-1.95453
20.037
-2.04953
20.2315
-2.14466
20.4292
-2.23985
20.63
-2.33506
20.8341
-2.43023
21.0413
-2.52529
21.2518
-2.6202
21.4654
-2.7149
21.6821
-2.80932
21.9021
-2.90342
22.1251
-2.99714
22.3514
-3.09039
22.5804
-3.18321
22.814
-3.27527
23.046
-3.36735
23.2957
-3.45675
-3.55182
23.5035
13.8178
2.24293
-13.9041
13.7473
2.19701
13.6913
2.15222
13.6487
2.10829
13.6181
2.06497
13.5986
2.022
13.5891
1.97917
13.5886
1.93627
13.5963
1.89312
13.6115
1.84955
13.6335
1.80541
13.6617
1.76058
13.6955
1.71493
13.7346
1.66837
13.7785
1.62079
13.8268
1.57213
13.8792
1.52232
13.9356
1.4713
13.9955
1.41901
14.0589
1.36541
14.1256
1.31048
14.1954
1.25417
14.2682
1.19647
14.3439
1.13736
14.4224
1.07682
14.5036
1.01484
14.5875
0.951429
14.674
0.886575
14.7631
0.820285
14.8547
0.752563
14.9489
0.68342
15.0456
0.612867
15.1449
0.540919
15.2466
0.467595
15.3509
0.392913
15.4577
0.316896
15.567
0.239569
15.6789
0.160958
15.7934
0.0810918
15.9104
0
16.0301
-0.0822847
16.1524
-0.165728
16.2773
-0.250296
16.405
-0.33595
16.5353
-0.422652
16.6684
-0.510363