/*--------------------------------*- C++ -*----------------------------------*\
| =========                 |                                                 |
| \\      /  F ield         | OpenFOAM: The Open Source CFD Toolbox           |
|  \\    /   O peration     | Version:  2206                                  |
|   \\  /    A nd           | Website:  www.openfoam.com                      |
|    \\/     M anipulation  |                                                 |
\*---------------------------------------------------------------------------*/
FoamFile
{
    version     2.0;
    format      ascii;
    arch        "LSB;label=32;scalar=64";
    class       volScalarField;
    location    "1.4";
    object      wave;
}
// * * * * * * * * * * * * * * * * * * * * * * * * * * * * * * * * * * * * * //

dimensions      [0 0 0 0 0 0 0];

internalField   nonuniform List<scalar> 
100
(
0.99582
0.997743
0.9746
0.926973
0.856058
0.763637
0.652032
0.524047
0.382896
0.232126
0.0755246
-0.0829742
-0.239389
-0.389789
-0.530397
-0.65768
-0.768441
-0.859897
-0.92975
-0.976246
-0.998217
-0.99511
-0.967004
-0.914604
-0.839228
-0.742768
-0.627648
-0.496761
-0.353393
-0.201148
-0.0438493
0.114551
0.270073
0.418811
0.557027
0.681249
0.788357
0.87566
0.940964
0.982629
0.999608
0.991475
0.958434
0.901314
0.821552
0.721151
0.602632
0.468974
0.323535
0.169967
0.0121299
-0.146012
-0.300486
-0.447411
-0.583096
-0.704133
-0.80748
-0.890541
-0.95123
-0.988022
-0.999993
-0.986842
-0.948899
-0.887117
-0.803049
-0.698807
-0.577009
-0.440716
-0.29335
-0.138615
0.0196018
0.177327
0.330597
0.475561
0.608579
0.726307
0.82579
0.904526
0.960539
0.992421
0.999371
0.981215
0.938408
0.872027
0.783738
0.67576
0.550805
0.412013
0.262871
0.107124
-0.0513137
-0.208462
-0.360374
-0.503232
-0.633448
-0.747751
-0.843268
-0.9176
-0.96888
-0.99582
)
;

boundaryField
{
    movingWall
    {
        type            calculated;
        value           uniform 0;
    }
    fixedWalls
    {
        type            calculated;
        value           uniform 0;
    }
    frontAndBack
    {
        type            empty;
    }
}


// ************************************************************************* //
