/*--------------------------------*- C++ -*----------------------------------*\
| =========                 |                                                 |
| \\      /  F ield         | OpenFOAM: The Open Source CFD Toolbox           |
|  \\    /   O peration     | Version:  2312                                  |
|   \\  /    A nd           | Website:  www.openfoam.com                      |
|    \\/     M anipulation  |                                                 |
\*---------------------------------------------------------------------------*/
FoamFile
{
    version     2.0;
    format      ascii;
    arch        "LSB;label=32;scalar=64";
    class       volVectorField;
    location    "0.351";
    object      U;
}
// * * * * * * * * * * * * * * * * * * * * * * * * * * * * * * * * * * * * * //

dimensions      [0 1 -1 0 0 0 0];

internalField   nonuniform List<vector> 
31205
(
(147.965 0 0)
(151.16 0 0)
(154.289 0 0)
(157.352 0 0)
(160.352 0 0)
(163.29 0 0)
(166.168 0 0)
(168.988 0 0)
(171.751 0 0)
(174.46 0 0)
(177.115 0 0)
(179.721 0 0)
(182.276 0 0)
(184.785 0 0)
(187.247 0 0)
(189.665 0 0)
(192.04 0 0)
(194.373 0 0)
(196.665 0 0)
(198.918 0 0)
(201.133 0 0)
(203.311 0 0)
(205.453 0 0)
(207.559 0 0)
(209.632 0 0)
(211.671 0 0)
(213.678 0 0)
(215.653 0 0)
(217.597 0 0)
(219.511 0 0)
(221.395 0 0)
(223.25 0 0)
(225.077 0 0)
(226.876 0 0)
(228.648 0 0)
(230.393 0 0)
(232.112 0 0)
(233.805 0 0)
(235.473 0 0)
(237.116 0 0)
(238.734 0 0)
(240.329 0 0)
(241.899 0 0)
(243.446 0 0)
(244.969 0 0)
(246.47 0 0)
(247.948 0 0)
(249.404 0 0)
(250.838 0 0)
(252.25 0 0)
(253.64 0 0)
(255.009 0 0)
(256.357 0 0)
(257.684 0 0)
(258.99 0 0)
(260.275 0 0)
(261.54 0 0)
(262.784 0 0)
(264.008 0 0)
(265.212 0 0)
(266.396 0 0)
(267.56 0 0)
(268.705 0 0)
(269.829 0 0)
(270.934 0 0)
(272.019 0 0)
(273.085 0 0)
(274.131 0 0)
(275.157 0 0)
(276.164 0 0)
(277.151 0 0)
(278.119 0 0)
(279.068 0 0)
(279.996 0 0)
(280.908 0 0)
(281.788 0 0)
(282.686 0 0)
(283.449 0 0)
(284.552 0 0)
(150.867 0 0)
(153.92 0 0)
(156.911 0 0)
(159.841 0 0)
(162.713 0 0)
(165.528 0 0)
(168.287 0 0)
(170.993 0 0)
(173.646 0 0)
(176.25 0 0)
(178.804 0 0)
(181.312 0 0)
(183.773 0 0)
(186.191 0 0)
(188.566 0 0)
(190.9 0 0)
(193.194 0 0)
(195.448 0 0)
(197.665 0 0)
(199.845 0 0)
(201.989 0 0)
(204.099 0 0)
(206.174 0 0)
(208.217 0 0)
(210.228 0 0)
(212.207 0 0)
(214.155 0 0)
(216.074 0 0)
(217.963 0 0)
(219.824 0 0)
(221.657 0 0)
(223.462 0 0)
(225.241 0 0)
(226.993 0 0)
(228.719 0 0)
(230.42 0 0)
(232.096 0 0)
(233.748 0 0)
(235.375 0 0)
(236.979 0 0)
(238.559 0 0)
(240.116 0 0)
(241.651 0 0)
(243.163 0 0)
(244.653 0 0)
(246.121 0 0)
(247.567 0 0)
(248.993 0 0)
(250.397 0 0)
(251.78 0 0)
(253.143 0 0)
(254.485 0 0)
(255.807 0 0)
(257.109 0 0)
(258.39 0 0)
(259.653 0 0)
(260.895 0 0)
(262.118 0 0)
(263.322 0 0)
(264.506 0 0)
(265.672 0 0)
(266.818 0 0)
(267.945 0 0)
(269.054 0 0)
(270.143 0 0)
(271.214 0 0)
(272.266 0 0)
(273.3 0 0)
(274.315 0 0)
(275.311 0 0)
(276.289 0 0)
(277.248 0 0)
(278.189 0 0)
(279.11 0 0)
(280.016 0 0)
(280.892 0 0)
(281.786 0 0)
(282.548 0 0)
(283.641 0 0)
(153.774 0 0)
(156.686 0 0)
(159.542 0 0)
(162.342 0 0)
(165.089 0 0)
(167.783 0 0)
(170.426 0 0)
(173.02 0 0)
(175.566 0 0)
(178.066 0 0)
(180.521 0 0)
(182.932 0 0)
(185.302 0 0)
(187.631 0 0)
(189.92 0 0)
(192.171 0 0)
(194.384 0 0)
(196.562 0 0)
(198.704 0 0)
(200.812 0 0)
(202.886 0 0)
(204.928 0 0)
(206.938 0 0)
(208.918 0 0)
(210.867 0 0)
(212.787 0 0)
(214.678 0 0)
(216.541 0 0)
(218.376 0 0)
(220.184 0 0)
(221.966 0 0)
(223.722 0 0)
(225.452 0 0)
(227.158 0 0)
(228.839 0 0)
(230.496 0 0)
(232.129 0 0)
(233.739 0 0)
(235.326 0 0)
(236.891 0 0)
(238.433 0 0)
(239.953 0 0)
(241.452 0 0)
(242.929 0 0)
(244.386 0 0)
(245.821 0 0)
(247.236 0 0)
(248.631 0 0)
(250.005 0 0)
(251.359 0 0)
(252.694 0 0)
(254.009 0 0)
(255.305 0 0)
(256.582 0 0)
(257.839 0 0)
(259.078 0 0)
(260.298 0 0)
(261.499 0 0)
(262.682 0 0)
(263.847 0 0)
(264.993 0 0)
(266.121 0 0)
(267.231 0 0)
(268.322 0 0)
(269.396 0 0)
(270.452 0 0)
(271.49 0 0)
(272.51 0 0)
(273.513 0 0)
(274.498 0 0)
(275.465 0 0)
(276.414 0 0)
(277.346 0 0)
(278.259 0 0)
(279.158 0 0)
(280.028 0 0)
(280.916 0 0)
(281.676 0 0)
(282.76 0 0)
(156.603 0 0)
(159.383 0 0)
(162.11 0 0)
(164.787 0 0)
(167.414 0 0)
(169.993 0 0)
(172.526 0 0)
(175.013 0 0)
(177.457 0 0)
(179.858 0 0)
(182.217 0 0)
(184.537 0 0)
(186.818 0 0)
(189.061 0 0)
(191.268 0 0)
(193.439 0 0)
(195.575 0 0)
(197.678 0 0)
(199.748 0 0)
(201.786 0 0)
(203.793 0 0)
(205.77 0 0)
(207.717 0 0)
(209.635 0 0)
(211.524 0 0)
(213.386 0 0)
(215.221 0 0)
(217.029 0 0)
(218.812 0 0)
(220.569 0 0)
(222.301 0 0)
(224.008 0 0)
(225.692 0 0)
(227.352 0 0)
(228.989 0 0)
(230.602 0 0)
(232.194 0 0)
(233.763 0 0)
(235.311 0 0)
(236.837 0 0)
(238.342 0 0)
(239.826 0 0)
(241.289 0 0)
(242.732 0 0)
(244.155 0 0)
(245.558 0 0)
(246.942 0 0)
(248.306 0 0)
(249.651 0 0)
(250.977 0 0)
(252.284 0 0)
(253.572 0 0)
(254.842 0 0)
(256.093 0 0)
(257.327 0 0)
(258.542 0 0)
(259.739 0 0)
(260.919 0 0)
(262.08 0 0)
(263.225 0 0)
(264.351 0 0)
(265.461 0 0)
(266.553 0 0)
(267.627 0 0)
(268.685 0 0)
(269.725 0 0)
(270.749 0 0)
(271.755 0 0)
(272.744 0 0)
(273.717 0 0)
(274.672 0 0)
(275.611 0 0)
(276.533 0 0)
(277.437 0 0)
(278.328 0 0)
(279.191 0 0)
(280.072 0 0)
(280.828 0 0)
(281.902 0 0)
(159.322 0 0)
(161.977 0 0)
(164.583 0 0)
(167.143 0 0)
(169.658 0 0)
(172.128 0 0)
(174.557 0 0)
(176.943 0 0)
(179.289 0 0)
(181.597 0 0)
(183.866 0 0)
(186.098 0 0)
(188.295 0 0)
(190.457 0 0)
(192.584 0 0)
(194.679 0 0)
(196.742 0 0)
(198.773 0 0)
(200.774 0 0)
(202.745 0 0)
(204.687 0 0)
(206.601 0 0)
(208.486 0 0)
(210.345 0 0)
(212.177 0 0)
(213.983 0 0)
(215.764 0 0)
(217.52 0 0)
(219.251 0 0)
(220.959 0 0)
(222.642 0 0)
(224.303 0 0)
(225.941 0 0)
(227.556 0 0)
(229.15 0 0)
(230.722 0 0)
(232.273 0 0)
(233.802 0 0)
(235.311 0 0)
(236.8 0 0)
(238.268 0 0)
(239.717 0 0)
(241.146 0 0)
(242.555 0 0)
(243.946 0 0)
(245.317 0 0)
(246.67 0 0)
(248.004 0 0)
(249.32 0 0)
(250.618 0 0)
(251.897 0 0)
(253.159 0 0)
(254.403 0 0)
(255.63 0 0)
(256.839 0 0)
(258.031 0 0)
(259.205 0 0)
(260.363 0 0)
(261.504 0 0)
(262.628 0 0)
(263.735 0 0)
(264.825 0 0)
(265.899 0 0)
(266.957 0 0)
(267.998 0 0)
(269.022 0 0)
(270.031 0 0)
(271.023 0 0)
(271.998 0 0)
(272.958 0 0)
(273.902 0 0)
(274.829 0 0)
(275.741 0 0)
(276.635 0 0)
(277.517 0 0)
(278.372 0 0)
(279.245 0 0)
(279.996 0 0)
(281.061 0 0)
(161.92 0 0)
(164.457 0 0)
(166.95 0 0)
(169.4 0 0)
(171.809 0 0)
(174.178 0 0)
(176.507 0 0)
(178.798 0 0)
(181.053 0 0)
(183.271 0 0)
(185.455 0 0)
(187.604 0 0)
(189.721 0 0)
(191.805 0 0)
(193.858 0 0)
(195.88 0 0)
(197.872 0 0)
(199.835 0 0)
(201.77 0 0)
(203.677 0 0)
(205.557 0 0)
(207.41 0 0)
(209.237 0 0)
(211.039 0 0)
(212.816 0 0)
(214.568 0 0)
(216.297 0 0)
(218.002 0 0)
(219.684 0 0)
(221.343 0 0)
(222.98 0 0)
(224.596 0 0)
(226.189 0 0)
(227.762 0 0)
(229.314 0 0)
(230.845 0 0)
(232.356 0 0)
(233.847 0 0)
(235.319 0 0)
(236.771 0 0)
(238.204 0 0)
(239.618 0 0)
(241.013 0 0)
(242.39 0 0)
(243.748 0 0)
(245.089 0 0)
(246.411 0 0)
(247.716 0 0)
(249.004 0 0)
(250.274 0 0)
(251.527 0 0)
(252.762 0 0)
(253.981 0 0)
(255.183 0 0)
(256.368 0 0)
(257.537 0 0)
(258.69 0 0)
(259.826 0 0)
(260.945 0 0)
(262.049 0 0)
(263.137 0 0)
(264.208 0 0)
(265.264 0 0)
(266.304 0 0)
(267.329 0 0)
(268.337 0 0)
(269.33 0 0)
(270.308 0 0)
(271.27 0 0)
(272.216 0 0)
(273.147 0 0)
(274.063 0 0)
(274.964 0 0)
(275.848 0 0)
(276.72 0 0)
(277.566 0 0)
(278.431 0 0)
(279.176 0 0)
(280.23 0 0)
(164.398 0 0)
(166.824 0 0)
(169.21 0 0)
(171.557 0 0)
(173.867 0 0)
(176.139 0 0)
(178.376 0 0)
(180.577 0 0)
(182.745 0 0)
(184.879 0 0)
(186.982 0 0)
(189.052 0 0)
(191.093 0 0)
(193.103 0 0)
(195.084 0 0)
(197.037 0 0)
(198.962 0 0)
(200.86 0 0)
(202.732 0 0)
(204.577 0 0)
(206.398 0 0)
(208.193 0 0)
(209.964 0 0)
(211.711 0 0)
(213.435 0 0)
(215.136 0 0)
(216.814 0 0)
(218.471 0 0)
(220.105 0 0)
(221.718 0 0)
(223.31 0 0)
(224.882 0 0)
(226.433 0 0)
(227.964 0 0)
(229.475 0 0)
(230.967 0 0)
(232.44 0 0)
(233.894 0 0)
(235.329 0 0)
(236.745 0 0)
(238.144 0 0)
(239.524 0 0)
(240.887 0 0)
(242.232 0 0)
(243.559 0 0)
(244.869 0 0)
(246.163 0 0)
(247.439 0 0)
(248.698 0 0)
(249.941 0 0)
(251.168 0 0)
(252.378 0 0)
(253.572 0 0)
(254.75 0 0)
(255.911 0 0)
(257.058 0 0)
(258.188 0 0)
(259.302 0 0)
(260.402 0 0)
(261.485 0 0)
(262.554 0 0)
(263.607 0 0)
(264.644 0 0)
(265.667 0 0)
(266.675 0 0)
(267.667 0 0)
(268.645 0 0)
(269.608 0 0)
(270.556 0 0)
(271.489 0 0)
(272.407 0 0)
(273.311 0 0)
(274.2 0 0)
(275.073 0 0)
(275.936 0 0)
(276.773 0 0)
(277.628 0 0)
(278.366 0 0)
(279.41 0 0)
(166.761 0 0)
(169.083 0 0)
(171.369 0 0)
(173.619 0 0)
(175.834 0 0)
(178.016 0 0)
(180.165 0 0)
(182.281 0 0)
(184.367 0 0)
(186.422 0 0)
(188.447 0 0)
(190.443 0 0)
(192.411 0 0)
(194.351 0 0)
(196.264 0 0)
(198.151 0 0)
(200.012 0 0)
(201.848 0 0)
(203.659 0 0)
(205.446 0 0)
(207.209 0 0)
(208.949 0 0)
(210.666 0 0)
(212.361 0 0)
(214.034 0 0)
(215.685 0 0)
(217.315 0 0)
(218.925 0 0)
(220.513 0 0)
(222.082 0 0)
(223.631 0 0)
(225.16 0 0)
(226.67 0 0)
(228.161 0 0)
(229.633 0 0)
(231.087 0 0)
(232.522 0 0)
(233.94 0 0)
(235.339 0 0)
(236.722 0 0)
(238.086 0 0)
(239.434 0 0)
(240.765 0 0)
(242.079 0 0)
(243.376 0 0)
(244.657 0 0)
(245.921 0 0)
(247.17 0 0)
(248.402 0 0)
(249.618 0 0)
(250.819 0 0)
(252.004 0 0)
(253.174 0 0)
(254.328 0 0)
(255.467 0 0)
(256.59 0 0)
(257.699 0 0)
(258.792 0 0)
(259.871 0 0)
(260.935 0 0)
(261.984 0 0)
(263.018 0 0)
(264.038 0 0)
(265.044 0 0)
(266.035 0 0)
(267.011 0 0)
(267.973 0 0)
(268.921 0 0)
(269.855 0 0)
(270.774 0 0)
(271.68 0 0)
(272.571 0 0)
(273.449 0 0)
(274.311 0 0)
(275.163 0 0)
(275.99 0 0)
(276.836 0 0)
(277.567 0 0)
(278.599 0 0)
(169.015 0 0)
(171.24 0 0)
(173.431 0 0)
(175.589 0 0)
(177.716 0 0)
(179.812 0 0)
(181.878 0 0)
(183.914 0 0)
(185.922 0 0)
(187.901 0 0)
(189.853 0 0)
(191.778 0 0)
(193.677 0 0)
(195.551 0 0)
(197.399 0 0)
(199.223 0 0)
(201.023 0 0)
(202.799 0 0)
(204.553 0 0)
(206.283 0 0)
(207.992 0 0)
(209.679 0 0)
(211.344 0 0)
(212.989 0 0)
(214.612 0 0)
(216.216 0 0)
(217.8 0 0)
(219.364 0 0)
(220.908 0 0)
(222.434 0 0)
(223.941 0 0)
(225.429 0 0)
(226.899 0 0)
(228.351 0 0)
(229.786 0 0)
(231.203 0 0)
(232.602 0 0)
(233.985 0 0)
(235.35 0 0)
(236.699 0 0)
(238.031 0 0)
(239.347 0 0)
(240.647 0 0)
(241.931 0 0)
(243.198 0 0)
(244.45 0 0)
(245.687 0 0)
(246.908 0 0)
(248.114 0 0)
(249.304 0 0)
(250.48 0 0)
(251.64 0 0)
(252.786 0 0)
(253.917 0 0)
(255.033 0 0)
(256.134 0 0)
(257.222 0 0)
(258.294 0 0)
(259.353 0 0)
(260.397 0 0)
(261.427 0 0)
(262.443 0 0)
(263.445 0 0)
(264.434 0 0)
(265.408 0 0)
(266.368 0 0)
(267.315 0 0)
(268.248 0 0)
(269.168 0 0)
(270.073 0 0)
(270.966 0 0)
(271.844 0 0)
(272.71 0 0)
(273.561 0 0)
(274.402 0 0)
(275.219 0 0)
(276.056 0 0)
(276.778 0 0)
(277.798 0 0)
(171.167 0 0)
(173.3 0 0)
(175.402 0 0)
(177.474 0 0)
(179.517 0 0)
(181.532 0 0)
(183.519 0 0)
(185.479 0 0)
(187.413 0 0)
(189.321 0 0)
(191.203 0 0)
(193.061 0 0)
(194.895 0 0)
(196.704 0 0)
(198.491 0 0)
(200.255 0 0)
(201.996 0 0)
(203.716 0 0)
(205.414 0 0)
(207.09 0 0)
(208.747 0 0)
(210.383 0 0)
(211.998 0 0)
(213.594 0 0)
(215.171 0 0)
(216.729 0 0)
(218.268 0 0)
(219.788 0 0)
(221.29 0 0)
(222.774 0 0)
(224.241 0 0)
(225.69 0 0)
(227.121 0 0)
(228.536 0 0)
(229.934 0 0)
(231.315 0 0)
(232.68 0 0)
(234.028 0 0)
(235.36 0 0)
(236.677 0 0)
(237.977 0 0)
(239.263 0 0)
(240.532 0 0)
(241.787 0 0)
(243.026 0 0)
(244.25 0 0)
(245.459 0 0)
(246.653 0 0)
(247.833 0 0)
(248.998 0 0)
(250.149 0 0)
(251.286 0 0)
(252.408 0 0)
(253.516 0 0)
(254.61 0 0)
(255.69 0 0)
(256.756 0 0)
(257.808 0 0)
(258.847 0 0)
(259.872 0 0)
(260.883 0 0)
(261.881 0 0)
(262.866 0 0)
(263.837 0 0)
(264.794 0 0)
(265.739 0 0)
(266.67 0 0)
(267.588 0 0)
(268.494 0 0)
(269.386 0 0)
(270.265 0 0)
(271.131 0 0)
(271.984 0 0)
(272.824 0 0)
(273.653 0 0)
(274.46 0 0)
(275.286 0 0)
(276.001 0 0)
(277.008 0 0)
(173.224 0 0)
(175.27 0 0)
(177.288 0 0)
(179.278 0 0)
(181.242 0 0)
(183.18 0 0)
(185.093 0 0)
(186.981 0 0)
(188.844 0 0)
(190.684 0 0)
(192.5 0 0)
(194.294 0 0)
(196.065 0 0)
(197.814 0 0)
(199.541 0 0)
(201.248 0 0)
(202.933 0 0)
(204.598 0 0)
(206.243 0 0)
(207.869 0 0)
(209.475 0 0)
(211.062 0 0)
(212.63 0 0)
(214.179 0 0)
(215.711 0 0)
(217.224 0 0)
(218.72 0 0)
(220.199 0 0)
(221.66 0 0)
(223.104 0 0)
(224.531 0 0)
(225.942 0 0)
(227.337 0 0)
(228.715 0 0)
(230.077 0 0)
(231.424 0 0)
(232.755 0 0)
(234.07 0 0)
(235.37 0 0)
(236.655 0 0)
(237.925 0 0)
(239.181 0 0)
(240.421 0 0)
(241.647 0 0)
(242.858 0 0)
(244.055 0 0)
(245.237 0 0)
(246.406 0 0)
(247.56 0 0)
(248.701 0 0)
(249.828 0 0)
(250.94 0 0)
(252.04 0 0)
(253.125 0 0)
(254.198 0 0)
(255.256 0 0)
(256.302 0 0)
(257.334 0 0)
(258.353 0 0)
(259.359 0 0)
(260.352 0 0)
(261.332 0 0)
(262.299 0 0)
(263.253 0 0)
(264.194 0 0)
(265.123 0 0)
(266.039 0 0)
(266.942 0 0)
(267.833 0 0)
(268.711 0 0)
(269.577 0 0)
(270.43 0 0)
(271.271 0 0)
(272.099 0 0)
(272.917 0 0)
(273.713 0 0)
(274.529 0 0)
(275.235 0 0)
(276.229 0 0)
(175.19 0 0)
(177.154 0 0)
(179.092 0 0)
(181.006 0 0)
(182.895 0 0)
(184.76 0 0)
(186.603 0 0)
(188.422 0 0)
(190.219 0 0)
(191.993 0 0)
(193.747 0 0)
(195.479 0 0)
(197.19 0 0)
(198.881 0 0)
(200.553 0 0)
(202.204 0 0)
(203.836 0 0)
(205.449 0 0)
(207.043 0 0)
(208.619 0 0)
(210.177 0 0)
(211.717 0 0)
(213.239 0 0)
(214.744 0 0)
(216.232 0 0)
(217.703 0 0)
(219.158 0 0)
(220.595 0 0)
(222.017 0 0)
(223.423 0 0)
(224.812 0 0)
(226.187 0 0)
(227.545 0 0)
(228.888 0 0)
(230.216 0 0)
(231.53 0 0)
(232.828 0 0)
(234.111 0 0)
(235.38 0 0)
(236.635 0 0)
(237.875 0 0)
(239.101 0 0)
(240.313 0 0)
(241.511 0 0)
(242.695 0 0)
(243.865 0 0)
(245.022 0 0)
(246.165 0 0)
(247.295 0 0)
(248.411 0 0)
(249.514 0 0)
(250.604 0 0)
(251.681 0 0)
(252.745 0 0)
(253.796 0 0)
(254.834 0 0)
(255.859 0 0)
(256.871 0 0)
(257.871 0 0)
(258.858 0 0)
(259.833 0 0)
(260.795 0 0)
(261.745 0 0)
(262.682 0 0)
(263.607 0 0)
(264.52 0 0)
(265.421 0 0)
(266.309 0 0)
(267.186 0 0)
(268.05 0 0)
(268.902 0 0)
(269.742 0 0)
(270.571 0 0)
(271.387 0 0)
(272.194 0 0)
(272.979 0 0)
(273.784 0 0)
(274.481 0 0)
(275.461 0 0)
(177.071 0 0)
(178.958 0 0)
(180.821 0 0)
(182.661 0 0)
(184.48 0 0)
(186.276 0 0)
(188.051 0 0)
(189.805 0 0)
(191.538 0 0)
(193.252 0 0)
(194.945 0 0)
(196.619 0 0)
(198.273 0 0)
(199.909 0 0)
(201.526 0 0)
(203.125 0 0)
(204.706 0 0)
(206.269 0 0)
(207.815 0 0)
(209.343 0 0)
(210.855 0 0)
(212.35 0 0)
(213.828 0 0)
(215.29 0 0)
(216.736 0 0)
(218.166 0 0)
(219.581 0 0)
(220.979 0 0)
(222.363 0 0)
(223.731 0 0)
(225.085 0 0)
(226.423 0 0)
(227.747 0 0)
(229.057 0 0)
(230.351 0 0)
(231.632 0 0)
(232.899 0 0)
(234.151 0 0)
(235.39 0 0)
(236.615 0 0)
(237.826 0 0)
(239.024 0 0)
(240.208 0 0)
(241.379 0 0)
(242.537 0 0)
(243.681 0 0)
(244.813 0 0)
(245.931 0 0)
(247.037 0 0)
(248.13 0 0)
(249.21 0 0)
(250.277 0 0)
(251.332 0 0)
(252.374 0 0)
(253.404 0 0)
(254.422 0 0)
(255.427 0 0)
(256.42 0 0)
(257.401 0 0)
(258.37 0 0)
(259.326 0 0)
(260.271 0 0)
(261.203 0 0)
(262.124 0 0)
(263.033 0 0)
(263.93 0 0)
(264.816 0 0)
(265.689 0 0)
(266.552 0 0)
(267.402 0 0)
(268.241 0 0)
(269.068 0 0)
(269.884 0 0)
(270.688 0 0)
(271.483 0 0)
(272.258 0 0)
(273.051 0 0)
(273.739 0 0)
(274.705 0 0)
(178.872 0 0)
(180.685 0 0)
(182.477 0 0)
(184.248 0 0)
(185.999 0 0)
(187.73 0 0)
(189.442 0 0)
(191.134 0 0)
(192.807 0 0)
(194.461 0 0)
(196.097 0 0)
(197.715 0 0)
(199.316 0 0)
(200.899 0 0)
(202.464 0 0)
(204.013 0 0)
(205.545 0 0)
(207.06 0 0)
(208.559 0 0)
(210.042 0 0)
(211.509 0 0)
(212.961 0 0)
(214.397 0 0)
(215.818 0 0)
(217.223 0 0)
(218.614 0 0)
(219.99 0 0)
(221.351 0 0)
(222.698 0 0)
(224.03 0 0)
(225.348 0 0)
(226.653 0 0)
(227.943 0 0)
(229.219 0 0)
(230.482 0 0)
(231.732 0 0)
(232.967 0 0)
(234.19 0 0)
(235.399 0 0)
(236.596 0 0)
(237.779 0 0)
(238.949 0 0)
(240.106 0 0)
(241.251 0 0)
(242.383 0 0)
(243.502 0 0)
(244.609 0 0)
(245.704 0 0)
(246.786 0 0)
(247.856 0 0)
(248.913 0 0)
(249.959 0 0)
(250.992 0 0)
(252.013 0 0)
(253.023 0 0)
(254.02 0 0)
(255.006 0 0)
(255.98 0 0)
(256.942 0 0)
(257.893 0 0)
(258.832 0 0)
(259.759 0 0)
(260.675 0 0)
(261.579 0 0)
(262.472 0 0)
(263.354 0 0)
(264.224 0 0)
(265.083 0 0)
(265.931 0 0)
(266.767 0 0)
(267.593 0 0)
(268.407 0 0)
(269.211 0 0)
(270.002 0 0)
(270.786 0 0)
(271.549 0 0)
(272.331 0 0)
(273.011 0 0)
(273.962 0 0)
(180.596 0 0)
(182.34 0 0)
(184.065 0 0)
(185.77 0 0)
(187.458 0 0)
(189.126 0 0)
(190.777 0 0)
(192.41 0 0)
(194.026 0 0)
(195.624 0 0)
(197.206 0 0)
(198.771 0 0)
(200.319 0 0)
(201.852 0 0)
(203.368 0 0)
(204.868 0 0)
(206.353 0 0)
(207.823 0 0)
(209.277 0 0)
(210.717 0 0)
(212.141 0 0)
(213.551 0 0)
(214.946 0 0)
(216.327 0 0)
(217.694 0 0)
(219.047 0 0)
(220.385 0 0)
(221.71 0 0)
(223.022 0 0)
(224.319 0 0)
(225.604 0 0)
(226.875 0 0)
(228.133 0 0)
(229.378 0 0)
(230.609 0 0)
(231.828 0 0)
(233.034 0 0)
(234.228 0 0)
(235.409 0 0)
(236.577 0 0)
(237.733 0 0)
(238.876 0 0)
(240.008 0 0)
(241.127 0 0)
(242.234 0 0)
(243.329 0 0)
(244.412 0 0)
(245.483 0 0)
(246.542 0 0)
(247.589 0 0)
(248.625 0 0)
(249.649 0 0)
(250.661 0 0)
(251.662 0 0)
(252.651 0 0)
(253.629 0 0)
(254.596 0 0)
(255.551 0 0)
(256.495 0 0)
(257.427 0 0)
(258.349 0 0)
(259.259 0 0)
(260.158 0 0)
(261.047 0 0)
(261.924 0 0)
(262.79 0 0)
(263.645 0 0)
(264.49 0 0)
(265.323 0 0)
(266.146 0 0)
(266.958 0 0)
(267.76 0 0)
(268.551 0 0)
(269.33 0 0)
(270.102 0 0)
(270.854 0 0)
(271.624 0 0)
(272.294 0 0)
(273.23 0 0)
(182.249 0 0)
(183.927 0 0)
(185.588 0 0)
(187.231 0 0)
(188.857 0 0)
(190.467 0 0)
(192.06 0 0)
(193.637 0 0)
(195.198 0 0)
(196.743 0 0)
(198.273 0 0)
(199.787 0 0)
(201.286 0 0)
(202.77 0 0)
(204.239 0 0)
(205.693 0 0)
(207.133 0 0)
(208.559 0 0)
(209.97 0 0)
(211.368 0 0)
(212.751 0 0)
(214.121 0 0)
(215.477 0 0)
(216.82 0 0)
(218.149 0 0)
(219.465 0 0)
(220.768 0 0)
(222.058 0 0)
(223.335 0 0)
(224.6 0 0)
(225.851 0 0)
(227.09 0 0)
(228.317 0 0)
(229.531 0 0)
(230.732 0 0)
(231.922 0 0)
(233.099 0 0)
(234.265 0 0)
(235.418 0 0)
(236.559 0 0)
(237.688 0 0)
(238.806 0 0)
(239.912 0 0)
(241.006 0 0)
(242.089 0 0)
(243.16 0 0)
(244.22 0 0)
(245.268 0 0)
(246.305 0 0)
(247.33 0 0)
(248.344 0 0)
(249.347 0 0)
(250.339 0 0)
(251.32 0 0)
(252.29 0 0)
(253.248 0 0)
(254.196 0 0)
(255.133 0 0)
(256.059 0 0)
(256.974 0 0)
(257.878 0 0)
(258.772 0 0)
(259.654 0 0)
(260.527 0 0)
(261.388 0 0)
(262.239 0 0)
(263.08 0 0)
(263.91 0 0)
(264.729 0 0)
(265.538 0 0)
(266.337 0 0)
(267.125 0 0)
(267.904 0 0)
(268.671 0 0)
(269.431 0 0)
(270.171 0 0)
(270.93 0 0)
(271.591 0 0)
(272.512 0 0)
(183.833 0 0)
(185.449 0 0)
(187.049 0 0)
(188.633 0 0)
(190.202 0 0)
(191.755 0 0)
(193.293 0 0)
(194.817 0 0)
(196.326 0 0)
(197.82 0 0)
(199.3 0 0)
(200.765 0 0)
(202.217 0 0)
(203.654 0 0)
(205.078 0 0)
(206.489 0 0)
(207.885 0 0)
(209.269 0 0)
(210.639 0 0)
(211.996 0 0)
(213.34 0 0)
(214.672 0 0)
(215.99 0 0)
(217.296 0 0)
(218.589 0 0)
(219.87 0 0)
(221.139 0 0)
(222.395 0 0)
(223.639 0 0)
(224.871 0 0)
(226.091 0 0)
(227.299 0 0)
(228.495 0 0)
(229.679 0 0)
(230.852 0 0)
(232.013 0 0)
(233.162 0 0)
(234.3 0 0)
(235.427 0 0)
(236.542 0 0)
(237.646 0 0)
(238.738 0 0)
(239.819 0 0)
(240.889 0 0)
(241.948 0 0)
(242.996 0 0)
(244.033 0 0)
(245.059 0 0)
(246.074 0 0)
(247.078 0 0)
(248.071 0 0)
(249.054 0 0)
(250.026 0 0)
(250.987 0 0)
(251.937 0 0)
(252.877 0 0)
(253.806 0 0)
(254.725 0 0)
(255.633 0 0)
(256.531 0 0)
(257.419 0 0)
(258.296 0 0)
(259.162 0 0)
(260.019 0 0)
(260.865 0 0)
(261.701 0 0)
(262.527 0 0)
(263.342 0 0)
(264.148 0 0)
(264.943 0 0)
(265.729 0 0)
(266.504 0 0)
(267.27 0 0)
(268.025 0 0)
(268.773 0 0)
(269.502 0 0)
(270.249 0 0)
(270.901 0 0)
(271.806 0 0)
(185.352 0 0)
(186.909 0 0)
(188.452 0 0)
(189.979 0 0)
(191.493 0 0)
(192.993 0 0)
(194.479 0 0)
(195.952 0 0)
(197.41 0 0)
(198.856 0 0)
(200.288 0 0)
(201.707 0 0)
(203.114 0 0)
(204.507 0 0)
(205.888 0 0)
(207.256 0 0)
(208.611 0 0)
(209.954 0 0)
(211.285 0 0)
(212.603 0 0)
(213.909 0 0)
(215.204 0 0)
(216.486 0 0)
(217.756 0 0)
(219.015 0 0)
(220.262 0 0)
(221.497 0 0)
(222.721 0 0)
(223.933 0 0)
(225.134 0 0)
(226.323 0 0)
(227.501 0 0)
(228.668 0 0)
(229.823 0 0)
(230.968 0 0)
(232.101 0 0)
(233.224 0 0)
(234.335 0 0)
(235.436 0 0)
(236.525 0 0)
(237.604 0 0)
(238.672 0 0)
(239.729 0 0)
(240.776 0 0)
(241.812 0 0)
(242.837 0 0)
(243.852 0 0)
(244.856 0 0)
(245.85 0 0)
(246.833 0 0)
(247.806 0 0)
(248.769 0 0)
(249.721 0 0)
(250.663 0 0)
(251.594 0 0)
(252.516 0 0)
(253.427 0 0)
(254.328 0 0)
(255.219 0 0)
(256.1 0 0)
(256.971 0 0)
(257.832 0 0)
(258.682 0 0)
(259.523 0 0)
(260.354 0 0)
(261.175 0 0)
(261.987 0 0)
(262.788 0 0)
(263.58 0 0)
(264.362 0 0)
(265.134 0 0)
(265.896 0 0)
(266.65 0 0)
(267.392 0 0)
(268.128 0 0)
(268.846 0 0)
(269.581 0 0)
(270.224 0 0)
(271.114 0 0)
(186.81 0 0)
(188.311 0 0)
(189.798 0 0)
(191.273 0 0)
(192.734 0 0)
(194.183 0 0)
(195.619 0 0)
(197.043 0 0)
(198.455 0 0)
(199.854 0 0)
(201.24 0 0)
(202.615 0 0)
(203.978 0 0)
(205.329 0 0)
(206.668 0 0)
(207.995 0 0)
(209.311 0 0)
(210.615 0 0)
(211.908 0 0)
(213.189 0 0)
(214.459 0 0)
(215.718 0 0)
(216.965 0 0)
(218.201 0 0)
(219.426 0 0)
(220.641 0 0)
(221.844 0 0)
(223.036 0 0)
(224.217 0 0)
(225.388 0 0)
(226.548 0 0)
(227.697 0 0)
(228.835 0 0)
(229.963 0 0)
(231.08 0 0)
(232.187 0 0)
(233.283 0 0)
(234.369 0 0)
(235.444 0 0)
(236.509 0 0)
(237.564 0 0)
(238.608 0 0)
(239.642 0 0)
(240.666 0 0)
(241.679 0 0)
(242.683 0 0)
(243.676 0 0)
(244.659 0 0)
(245.632 0 0)
(246.595 0 0)
(247.548 0 0)
(248.491 0 0)
(249.424 0 0)
(250.347 0 0)
(251.26 0 0)
(252.164 0 0)
(253.057 0 0)
(253.941 0 0)
(254.815 0 0)
(255.679 0 0)
(256.534 0 0)
(257.379 0 0)
(258.214 0 0)
(259.04 0 0)
(259.856 0 0)
(260.662 0 0)
(261.459 0 0)
(262.246 0 0)
(263.024 0 0)
(263.793 0 0)
(264.552 0 0)
(265.302 0 0)
(266.042 0 0)
(266.773 0 0)
(267.497 0 0)
(268.203 0 0)
(268.927 0 0)
(269.56 0 0)
(270.434 0 0)
(188.21 0 0)
(189.657 0 0)
(191.092 0 0)
(192.516 0 0)
(193.928 0 0)
(195.328 0 0)
(196.717 0 0)
(198.094 0 0)
(199.46 0 0)
(200.814 0 0)
(202.158 0 0)
(203.49 0 0)
(204.811 0 0)
(206.121 0 0)
(207.421 0 0)
(208.709 0 0)
(209.987 0 0)
(211.254 0 0)
(212.51 0 0)
(213.755 0 0)
(214.99 0 0)
(216.214 0 0)
(217.428 0 0)
(218.632 0 0)
(219.825 0 0)
(221.007 0 0)
(222.179 0 0)
(223.341 0 0)
(224.493 0 0)
(225.634 0 0)
(226.766 0 0)
(227.887 0 0)
(228.998 0 0)
(230.099 0 0)
(231.189 0 0)
(232.27 0 0)
(233.341 0 0)
(234.402 0 0)
(235.453 0 0)
(236.494 0 0)
(237.525 0 0)
(238.546 0 0)
(239.557 0 0)
(240.559 0 0)
(241.551 0 0)
(242.533 0 0)
(243.505 0 0)
(244.468 0 0)
(245.42 0 0)
(246.364 0 0)
(247.297 0 0)
(248.221 0 0)
(249.135 0 0)
(250.04 0 0)
(250.936 0 0)
(251.821 0 0)
(252.697 0 0)
(253.564 0 0)
(254.422 0 0)
(255.27 0 0)
(256.108 0 0)
(256.937 0 0)
(257.757 0 0)
(258.568 0 0)
(259.369 0 0)
(260.161 0 0)
(260.944 0 0)
(261.717 0 0)
(262.482 0 0)
(263.237 0 0)
(263.983 0 0)
(264.72 0 0)
(265.448 0 0)
(266.167 0 0)
(266.879 0 0)
(267.574 0 0)
(268.285 0 0)
(268.909 0 0)
(269.768 0 0)
(189.554 0 0)
(190.95 0 0)
(192.336 0 0)
(193.711 0 0)
(195.075 0 0)
(196.429 0 0)
(197.772 0 0)
(199.105 0 0)
(200.428 0 0)
(201.74 0 0)
(203.042 0 0)
(204.333 0 0)
(205.615 0 0)
(206.886 0 0)
(208.147 0 0)
(209.398 0 0)
(210.639 0 0)
(211.87 0 0)
(213.091 0 0)
(214.302 0 0)
(215.503 0 0)
(216.695 0 0)
(217.876 0 0)
(219.048 0 0)
(220.21 0 0)
(221.362 0 0)
(222.504 0 0)
(223.637 0 0)
(224.76 0 0)
(225.873 0 0)
(226.977 0 0)
(228.071 0 0)
(229.155 0 0)
(230.23 0 0)
(231.295 0 0)
(232.351 0 0)
(233.397 0 0)
(234.434 0 0)
(235.461 0 0)
(236.479 0 0)
(237.487 0 0)
(238.486 0 0)
(239.475 0 0)
(240.455 0 0)
(241.426 0 0)
(242.387 0 0)
(243.339 0 0)
(244.281 0 0)
(245.215 0 0)
(246.139 0 0)
(247.053 0 0)
(247.959 0 0)
(248.855 0 0)
(249.742 0 0)
(250.619 0 0)
(251.488 0 0)
(252.347 0 0)
(253.197 0 0)
(254.038 0 0)
(254.87 0 0)
(255.693 0 0)
(256.507 0 0)
(257.311 0 0)
(258.107 0 0)
(258.894 0 0)
(259.672 0 0)
(260.44 0 0)
(261.2 0 0)
(261.951 0 0)
(262.693 0 0)
(263.427 0 0)
(264.151 0 0)
(264.867 0 0)
(265.574 0 0)
(266.274 0 0)
(266.957 0 0)
(267.657 0 0)
(268.271 0 0)
(269.115 0 0)
(190.845 0 0)
(192.193 0 0)
(193.531 0 0)
(194.86 0 0)
(196.179 0 0)
(197.489 0 0)
(198.789 0 0)
(200.079 0 0)
(201.36 0 0)
(202.631 0 0)
(203.893 0 0)
(205.146 0 0)
(206.389 0 0)
(207.623 0 0)
(208.848 0 0)
(210.063 0 0)
(211.269 0 0)
(212.465 0 0)
(213.652 0 0)
(214.83 0 0)
(215.999 0 0)
(217.159 0 0)
(218.309 0 0)
(219.45 0 0)
(220.582 0 0)
(221.705 0 0)
(222.819 0 0)
(223.923 0 0)
(225.018 0 0)
(226.104 0 0)
(227.181 0 0)
(228.249 0 0)
(229.308 0 0)
(230.357 0 0)
(231.398 0 0)
(232.429 0 0)
(233.452 0 0)
(234.465 0 0)
(235.469 0 0)
(236.464 0 0)
(237.451 0 0)
(238.428 0 0)
(239.396 0 0)
(240.355 0 0)
(241.305 0 0)
(242.246 0 0)
(243.178 0 0)
(244.101 0 0)
(245.015 0 0)
(245.92 0 0)
(246.816 0 0)
(247.703 0 0)
(248.582 0 0)
(249.451 0 0)
(250.311 0 0)
(251.163 0 0)
(252.006 0 0)
(252.84 0 0)
(253.665 0 0)
(254.481 0 0)
(255.288 0 0)
(256.087 0 0)
(256.877 0 0)
(257.658 0 0)
(258.431 0 0)
(259.194 0 0)
(259.949 0 0)
(260.696 0 0)
(261.433 0 0)
(262.163 0 0)
(262.883 0 0)
(263.595 0 0)
(264.299 0 0)
(264.993 0 0)
(265.682 0 0)
(266.354 0 0)
(267.042 0 0)
(267.647 0 0)
(268.475 0 0)
(192.086 0 0)
(193.388 0 0)
(194.681 0 0)
(195.966 0 0)
(197.241 0 0)
(198.509 0 0)
(199.767 0 0)
(201.017 0 0)
(202.258 0 0)
(203.491 0 0)
(204.715 0 0)
(205.93 0 0)
(207.136 0 0)
(208.334 0 0)
(209.524 0 0)
(210.704 0 0)
(211.877 0 0)
(213.04 0 0)
(214.195 0 0)
(215.341 0 0)
(216.479 0 0)
(217.608 0 0)
(218.728 0 0)
(219.84 0 0)
(220.943 0 0)
(222.037 0 0)
(223.123 0 0)
(224.2 0 0)
(225.268 0 0)
(226.328 0 0)
(227.379 0 0)
(228.422 0 0)
(229.456 0 0)
(230.481 0 0)
(231.498 0 0)
(232.506 0 0)
(233.505 0 0)
(234.495 0 0)
(235.477 0 0)
(236.451 0 0)
(237.415 0 0)
(238.371 0 0)
(239.318 0 0)
(240.257 0 0)
(241.187 0 0)
(242.108 0 0)
(243.021 0 0)
(243.925 0 0)
(244.821 0 0)
(245.707 0 0)
(246.586 0 0)
(247.455 0 0)
(248.316 0 0)
(249.168 0 0)
(250.012 0 0)
(250.847 0 0)
(251.674 0 0)
(252.492 0 0)
(253.301 0 0)
(254.102 0 0)
(254.894 0 0)
(255.678 0 0)
(256.453 0 0)
(257.22 0 0)
(257.979 0 0)
(258.729 0 0)
(259.47 0 0)
(260.203 0 0)
(260.928 0 0)
(261.644 0 0)
(262.352 0 0)
(263.052 0 0)
(263.744 0 0)
(264.426 0 0)
(265.103 0 0)
(265.764 0 0)
(266.44 0 0)
(267.036 0 0)
(267.848 0 0)
(193.279 0 0)
(194.537 0 0)
(195.787 0 0)
(197.029 0 0)
(198.264 0 0)
(199.491 0 0)
(200.71 0 0)
(201.921 0 0)
(203.124 0 0)
(204.319 0 0)
(205.506 0 0)
(206.686 0 0)
(207.857 0 0)
(209.021 0 0)
(210.176 0 0)
(211.324 0 0)
(212.464 0 0)
(213.595 0 0)
(214.719 0 0)
(215.834 0 0)
(216.942 0 0)
(218.041 0 0)
(219.133 0 0)
(220.216 0 0)
(221.291 0 0)
(222.358 0 0)
(223.417 0 0)
(224.468 0 0)
(225.511 0 0)
(226.545 0 0)
(227.571 0 0)
(228.589 0 0)
(229.599 0 0)
(230.601 0 0)
(231.594 0 0)
(232.579 0 0)
(233.556 0 0)
(234.525 0 0)
(235.485 0 0)
(236.437 0 0)
(237.381 0 0)
(238.317 0 0)
(239.244 0 0)
(240.162 0 0)
(241.073 0 0)
(241.975 0 0)
(242.869 0 0)
(243.755 0 0)
(244.632 0 0)
(245.501 0 0)
(246.361 0 0)
(247.214 0 0)
(248.058 0 0)
(248.893 0 0)
(249.721 0 0)
(250.54 0 0)
(251.35 0 0)
(252.153 0 0)
(252.947 0 0)
(253.733 0 0)
(254.51 0 0)
(255.279 0 0)
(256.04 0 0)
(256.793 0 0)
(257.538 0 0)
(258.274 0 0)
(259.002 0 0)
(259.722 0 0)
(260.434 0 0)
(261.138 0 0)
(261.834 0 0)
(262.521 0 0)
(263.201 0 0)
(263.871 0 0)
(264.537 0 0)
(265.187 0 0)
(265.851 0 0)
(266.437 0 0)
(267.234 0 0)
(194.426 0 0)
(195.642 0 0)
(196.851 0 0)
(198.053 0 0)
(199.248 0 0)
(200.437 0 0)
(201.617 0 0)
(202.791 0 0)
(203.958 0 0)
(205.118 0 0)
(206.27 0 0)
(207.415 0 0)
(208.553 0 0)
(209.683 0 0)
(210.806 0 0)
(211.922 0 0)
(213.031 0 0)
(214.132 0 0)
(215.225 0 0)
(216.311 0 0)
(217.39 0 0)
(218.461 0 0)
(219.525 0 0)
(220.58 0 0)
(221.629 0 0)
(222.669 0 0)
(223.702 0 0)
(224.728 0 0)
(225.745 0 0)
(226.755 0 0)
(227.758 0 0)
(228.752 0 0)
(229.738 0 0)
(230.717 0 0)
(231.688 0 0)
(232.651 0 0)
(233.606 0 0)
(234.554 0 0)
(235.493 0 0)
(236.424 0 0)
(237.348 0 0)
(238.264 0 0)
(239.171 0 0)
(240.071 0 0)
(240.962 0 0)
(241.846 0 0)
(242.721 0 0)
(243.589 0 0)
(244.449 0 0)
(245.3 0 0)
(246.144 0 0)
(246.979 0 0)
(247.806 0 0)
(248.626 0 0)
(249.437 0 0)
(250.24 0 0)
(251.036 0 0)
(251.823 0 0)
(252.602 0 0)
(253.373 0 0)
(254.136 0 0)
(254.891 0 0)
(255.638 0 0)
(256.377 0 0)
(257.108 0 0)
(257.831 0 0)
(258.546 0 0)
(259.253 0 0)
(259.952 0 0)
(260.644 0 0)
(261.327 0 0)
(262.003 0 0)
(262.67 0 0)
(263.33 0 0)
(263.983 0 0)
(264.622 0 0)
(265.275 0 0)
(265.852 0 0)
(266.633 0 0)
(195.529 0 0)
(196.706 0 0)
(197.876 0 0)
(199.039 0 0)
(200.197 0 0)
(201.348 0 0)
(202.492 0 0)
(203.631 0 0)
(204.762 0 0)
(205.888 0 0)
(207.006 0 0)
(208.119 0 0)
(209.224 0 0)
(210.323 0 0)
(211.415 0 0)
(212.5 0 0)
(213.578 0 0)
(214.65 0 0)
(215.715 0 0)
(216.772 0 0)
(217.823 0 0)
(218.867 0 0)
(219.903 0 0)
(220.933 0 0)
(221.955 0 0)
(222.971 0 0)
(223.979 0 0)
(224.979 0 0)
(225.973 0 0)
(226.959 0 0)
(227.938 0 0)
(228.909 0 0)
(229.873 0 0)
(230.83 0 0)
(231.779 0 0)
(232.721 0 0)
(233.655 0 0)
(234.582 0 0)
(235.501 0 0)
(236.412 0 0)
(237.316 0 0)
(238.212 0 0)
(239.101 0 0)
(239.982 0 0)
(240.855 0 0)
(241.72 0 0)
(242.578 0 0)
(243.428 0 0)
(244.271 0 0)
(245.105 0 0)
(245.932 0 0)
(246.751 0 0)
(247.562 0 0)
(248.366 0 0)
(249.161 0 0)
(249.949 0 0)
(250.729 0 0)
(251.502 0 0)
(252.266 0 0)
(253.023 0 0)
(253.772 0 0)
(254.513 0 0)
(255.246 0 0)
(255.971 0 0)
(256.689 0 0)
(257.399 0 0)
(258.101 0 0)
(258.796 0 0)
(259.482 0 0)
(260.161 0 0)
(260.833 0 0)
(261.496 0 0)
(262.152 0 0)
(262.8 0 0)
(263.442 0 0)
(264.07 0 0)
(264.712 0 0)
(265.28 0 0)
(266.046 0 0)
(196.591 0 0)
(197.729 0 0)
(198.862 0 0)
(199.989 0 0)
(201.11 0 0)
(202.226 0 0)
(203.336 0 0)
(204.44 0 0)
(205.538 0 0)
(206.631 0 0)
(207.717 0 0)
(208.797 0 0)
(209.872 0 0)
(210.94 0 0)
(212.002 0 0)
(213.058 0 0)
(214.108 0 0)
(215.151 0 0)
(216.188 0 0)
(217.218 0 0)
(218.242 0 0)
(219.259 0 0)
(220.27 0 0)
(221.274 0 0)
(222.271 0 0)
(223.262 0 0)
(224.246 0 0)
(225.223 0 0)
(226.193 0 0)
(227.156 0 0)
(228.113 0 0)
(229.062 0 0)
(230.004 0 0)
(230.939 0 0)
(231.867 0 0)
(232.788 0 0)
(233.702 0 0)
(234.609 0 0)
(235.508 0 0)
(236.4 0 0)