/*--------------------------------*- C++ -*----------------------------------*\
| =========                 |                                                 |
| \\      /  F ield         | OpenFOAM: The Open Source CFD Toolbox           |
|  \\    /   O peration     | Version:  2206                                  |
|   \\  /    A nd           | Website:  www.openfoam.com                      |
|    \\/     M anipulation  |                                                 |
\*---------------------------------------------------------------------------*/
FoamFile
{
    version     2.0;
    format      ascii;
    arch        "LSB;label=32;scalar=64";
    class       volScalarField;
    location    "2.75";
    object      wave;
}
// * * * * * * * * * * * * * * * * * * * * * * * * * * * * * * * * * * * * * //

dimensions      [0 0 0 0 0 0 0];

internalField   nonuniform List<scalar> 
100
(
0.30721
0.15299
-0.00507306
-0.163009
-0.316849
-0.46273
-0.596985
-0.716244
-0.817508
-0.898235
-0.956396
-0.990531
-0.999781
-0.983914
-0.943329
-0.879046
-0.792679
-0.686399
-0.562874
-0.425209
-0.276861
-0.121559
0.036798
0.19423
0.346783
0.490624
0.622139
0.738024
0.835369
0.911728
0.965182
0.994388
0.998613
0.977751
0.932325
0.863478
0.772938
0.66298
0.536366
0.396278
0.246234
0.0900048
-0.0684858
-0.225256
-0.376367
-0.518023
-0.646665
-0.759062
-0.852389
-0.924302
-0.972995
-0.997244
-0.99644
-0.970603
-0.920383
-0.84704
-0.752418
-0.638893
-0.509318
-0.366948
-0.215359
-0.0583604
0.100105
0.256055
0.405573
0.544901
0.670541
0.779335
0.868551
0.935946
0.979829
0.999096
0.993263
0.962478
0.907513
0.829749
0.73114
0.614163
0.481758
0.337249
0.184268
0.0266572
-0.131623
-0.286596
-0.43437
-0.571231
-0.693742
-0.798824
-0.883838
-0.946648
-0.985676
-0.999942
-0.989087
-0.953384
-0.89373
-0.811623
-0.709127
-0.588815
-0.453712
-0.30721
)
;

boundaryField
{
    movingWall
    {
        type            calculated;
        value           uniform 0;
    }
    fixedWalls
    {
        type            calculated;
        value           uniform 0;
    }
    frontAndBack
    {
        type            empty;
    }
}


// ************************************************************************* //
