/*--------------------------------*- C++ -*----------------------------------*\
| =========                 |                                                 |
| \\      /  F ield         | OpenFOAM: The Open Source CFD Toolbox           |
|  \\    /   O peration     | Version:  2312                                  |
|   \\  /    A nd           | Website:  www.openfoam.com                      |
|    \\/     M anipulation  |                                                 |
\*---------------------------------------------------------------------------*/
FoamFile
{
    version     2.0;
    format      ascii;
    arch        "LSB;label=32;scalar=64";
    class       surfaceScalarField;
    location    "0.358";
    object      phi;
}
// * * * * * * * * * * * * * * * * * * * * * * * * * * * * * * * * * * * * * //

dimensions      [0 3 -1 0 0 0 0];

oriented        oriented;

internalField   nonuniform List<scalar> 
62015
(
32.5687
0.171162
-31.9738
33.1595
0.171533
33.7428
0.171657
34.317
0.171522
34.8808
0.171119
35.4336
0.170442
35.9749
0.169487
36.5048
0.168252
37.0233
0.166739
37.5307
0.164947
38.0274
0.162878
38.5138
0.160534
38.9905
0.157918
39.458
0.155034
39.9169
0.151884
40.3677
0.148472
40.811
0.144803
41.2474
0.14088
41.6775
0.136707
42.1019
0.13229
42.5211
0.127632
42.9356
0.122738
43.346
0.117613
43.7529
0.112262
44.1568
0.106689
44.558
0.100899
44.9572
0.0948975
45.3548
0.0886891
45.7513
0.0822794
46.147
0.0756734
46.5425
0.0688762
46.938
0.0618929
47.3341
0.0547298
47.7311
0.0473913
48.1294
0.0398837
48.5294
0.0322119
48.9313
0.0243823
49.3355
0.0163996
49.7424
0.00827031
50.1522
0
50.5652
-0.00840573
50.9817
-0.0169402
51.402
-0.0255988
51.8264
-0.0343741
52.255
-0.0432612
52.6881
-0.0522532
53.1259
-0.0613447
53.5687
-0.0705287
54.0166
-0.0798001
54.4698
-0.0891516
54.9285
-0.0985774
55.3929
-0.108071
55.8631
-0.117627
56.3392
-0.127238
56.8214
-0.136897
57.3098
-0.146599
57.8045
-0.156338
58.3056
-0.166106
58.8133
-0.175897
59.3274
-0.185705
59.8483
-0.195524
60.3758
-0.205346
60.9101
-0.215166
61.4511
-0.224977
61.999
-0.234773
62.5537
-0.244546
63.1152
-0.254291
63.6835
-0.264002
64.2587
-0.273672
64.8406
-0.283294
65.4292
-0.292863
66.0246
-0.302371
66.6265
-0.311813
67.2354
-0.321182
67.8494
-0.330477
68.4742
-0.339667
69.092
-0.34883
69.757
-0.357697
-0.367083
70.3017
32.2528
0.344435
-31.6997
32.8004
0.344785
33.3395
0.34464
33.8692
0.343982
34.3886
0.3428
34.8974
0.341086
35.3956
0.338836
35.8832
0.336049
36.3605
0.332725
36.8277
0.328867
37.2853
0.324479
37.7338
0.319565
38.1736
0.31413
38.6052
0.30818
39.0293
0.301723
39.4463
0.294765
39.8567
0.287313
40.2612
0.279375
40.6602
0.27096
41.0542
0.262075
41.4439
0.252729
41.8296
0.242931
42.212
0.232688
42.5914
0.222012
42.9684
0.210909
43.3433
0.199391
43.7167
0.187466
44.0891
0.175144
44.4607
0.162434
44.832
0.149347
45.2034
0.135893
45.5753
0.122082
45.948
0.107924
46.322
0.0934298
46.6975
0.0786097
47.0749
0.0634743
47.4545
0.0480347
47.8366
0.0323016
48.2215
0.0162865
48.6095
0
49.0008
-0.0165464
49.3958
-0.0333412
49.7946
-0.0503734
50.1976
-0.0676312
50.6049
-0.0851023
51.0167
-0.102776
51.4333
-0.12064
51.8548
-0.138682
52.2815
-0.156891
52.7135
-0.175254
53.1509
-0.193759
53.594
-0.212394
54.0429
-0.231147
54.4976
-0.250005
54.9584
-0.268956
55.4253
-0.287989
55.8984
-0.307089
56.3779
-0.326245
56.8637
-0.345445
57.3561
-0.364676
57.855
-0.383925
58.3605
-0.40318
58.8727
-0.422429
59.3915
-0.441658
59.917
-0.460856
60.4493
-0.480009
60.9882
-0.499107
61.5339
-0.518135
62.0863
-0.537083
62.6454
-0.555936
63.2111
-0.574685
63.7834
-0.593314
64.3622
-0.611814
64.9478
-0.630169
65.5386
-0.648381
66.1397
-0.666389
66.7348
-0.684338
67.3741
-0.701721
-0.720084
67.9025
31.9382
0.519685
-31.4269
32.4429
0.519616
32.9388
0.518812
33.4253
0.517256
33.902
0.514936
34.3689
0.511845
34.8259
0.50798
35.2733
0.503341
35.7115
0.497931
36.1406
0.491753
36.5612
0.484813
36.9737
0.477118
37.3786
0.468676
37.7764
0.459496
38.1675
0.449586
38.5524
0.438957
38.9318
0.427619
39.306
0.415584
39.6755
0.402861
40.0409
0.389464
40.4026
0.375403
40.761
0.360691
41.1167
0.345341
41.4701
0.329366
41.8216
0.312777
42.1716
0.29559
42.5205
0.277816
42.8688
0.259471
43.2168
0.240567
43.5649
0.22112
43.9134
0.201143
44.2628
0.180651
44.6133
0.159659
44.9653
0.138182
45.3191
0.116235
45.6751
0.0938341
46.0334
0.0709943
46.3944
0.047731
46.7583
0.0240612
47.1255
0
47.4962
-0.0244359
47.8706
-0.0492298
48.2489
-0.0743654
48.6315
-0.0998259
49.0184
-0.125595
49.4099
-0.151654
49.8061
-0.177987
50.2074
-0.204577
50.6137
-0.231406
51.0254
-0.258457
51.4425
-0.285711
51.8652
-0.313152
52.2936
-0.340762
52.7278
-0.368522
53.168
-0.396415
53.6143
-0.424422
54.0667
-0.452526
54.5254
-0.480709
54.9904
-0.508953
55.4618
-0.537238
55.9396
-0.565548
56.4239
-0.593864
56.9148
-0.622167
57.4122
-0.65044
57.9163
-0.678665
58.4269
-0.706823
58.9441
-0.734896
59.468
-0.762867
59.9984
-0.790716
60.5354
-0.818427
61.0789
-0.845982
61.629
-0.873362
62.1854
-0.900551
62.7485
-0.927525
63.3168
-0.95429
63.8951
-0.980756
64.468
-1.00713
65.0828
-1.03269
-1.05964
65.5937
31.6052
0.696448
-31.1345
32.0687
0.695587
32.5235
0.693766
32.9693
0.690969
33.406
0.687187
33.8335
0.682414
34.2522
0.676648
34.6622
0.669892
35.0639
0.66215
35.4576
0.653428
35.8438
0.643733
36.2228
0.633074
36.5952
0.621461
36.9613
0.608906
37.3217
0.595419
37.6769
0.581014
38.0272
0.565704
38.3731
0.549501
38.7151
0.532421
39.0536
0.514478
39.3891
0.495686
39.722
0.476062
40.0527
0.45562
40.3816
0.434378
40.7091
0.412351
41.0357
0.389557
41.3616
0.366012
41.6873
0.341734
42.013
0.316742
42.3392
0.291052
42.6662
0.264684
42.9943
0.237655
43.3239
0.209986
43.6551
0.181695
43.9884
0.152802
44.324
0.123326
44.6621
0.0932871
45.0032
0.0627063
45.3473
0.0316037
45.6947
0
46.0458
-0.0320839
46.4006
-0.0646266
46.7595
-0.0976071
47.1226
-0.131003
47.4901
-0.164794
47.8622
-0.198957
48.2391
-0.23347
48.621
-0.268311
49.008
-0.303457
49.4002
-0.338886
49.7979
-0.374575
50.2011
-0.410501
50.61
-0.446641
51.0246
-0.482973
51.4451
-0.519472
51.8717
-0.556116
52.3043
-0.592882
52.743
-0.629745
53.188
-0.666683
53.6392
-0.703672
54.0968
-0.740688
54.5608
-0.777709
55.0312
-0.81471
55.5081
-0.851668
55.9914
-0.88856
56.4812
-0.925361
56.9776
-0.96205
57.4804
-0.998602
57.9896
-1.03499
58.5054
-1.0712
59.0275
-1.10721
59.556
-1.14298
60.0908
-1.1785
60.6322
-1.21374
61.1788
-1.24871
61.735
-1.28329
62.2863
-1.31774
62.8774
-1.35114
-1.38632
63.3708
31.2461
0.874186
-30.8143
31.6707
0.872194
32.087
0.869032
32.4948
0.864688
32.8942
0.859155
33.2854
0.85243
33.6685
0.844514
34.0439
0.83541
34.4118
0.825124
34.7728
0.813664
35.1271
0.801038
35.4751
0.787259
35.8174
0.772337
36.1543
0.756287
36.4862
0.73912
36.8136
0.720854
37.1369
0.701501
37.4566
0.68108
37.773
0.659606
38.0865
0.637097
38.3976
0.613569
38.7067
0.589043
39.014
0.563535
39.3201
0.537066
39.6253
0.509655
39.9299
0.481322
40.2342
0.452087
40.5387
0.421972
40.8436
0.390997
41.1492
0.359185
41.456
0.326556
41.7641
0.293134
42.0738
0.258942
42.3856
0.224002
42.6995
0.188338
43.0159
0.151974
43.3351
0.114934
43.6572
0.0772412
43.9825
0.0389215
44.3113
0
44.6438
-0.0394984
44.9801
-0.0795483
45.3205
-0.120123
45.6651
-0.161198
46.0142
-0.202746
46.3679
-0.24474
46.7264
-0.287153
47.0899
-0.32996
47.4584
-0.373132
47.8322
-0.416642
48.2113
-0.460462
48.5959
-0.504566
48.9862
-0.548925
49.3821
-0.59351
49.7838
-0.638295
50.1915
-0.68325
50.6051
-0.728348
51.0247
-0.77356
51.4505
-0.818858
51.8825
-0.864213
52.3207
-0.909596
52.7652
-0.95498
53.216
-1.00034
53.6731
-1.04563
54.1366
-1.09085
54.6064
-1.13595
55.0826
-1.18091
55.5651
-1.22569
56.054
-1.27028
56.5492
-1.31464
57.0508
-1.35875
57.5586
-1.40257
58.0725
-1.44609
58.5929
-1.48926
59.1184
-1.53209
59.6532
-1.57444
60.1837
-1.61664
60.7521
-1.65756
-1.70062
61.228
30.8597
1.05238
-30.4647
31.248
1.04895
31.6283
1.04416
32.0009
1.038
32.3658
1.03046
32.7233
1.02155
33.0736
1.01127
33.417
0.999616
33.7538
0.986604
34.0845
0.97224
34.4094
0.956537
34.7288
0.939505
35.0433
0.921159
35.3531
0.901514
35.6587
0.880586
35.9605
0.85839
36.2588
0.834944
36.5541
0.810267
36.8467
0.784377
37.137
0.757295
37.4254
0.729038
37.7123
0.69963
37.9979
0.669091
38.2827
0.637442
38.567
0.604707
38.8511
0.570908
39.1353
0.536068
39.4199
0.500213
39.7053
0.463365
39.9917
0.42555
40.2794
0.386793
40.5687
0.347121
40.8599
0.306558
41.1533
0.265133
41.449
0.222871
41.7473
0.179801
42.0486
0.135951
42.3529
0.0913481
42.6605
0.0460214
42.9716
0
43.2865
-0.0466868
43.6053
-0.0940094
43.9282
-0.141938
44.2553
-0.190442
44.587
-0.23949
44.9232
-0.289053
45.2642
-0.339099
45.6102
-0.389596
45.9612
-0.440513
46.3173
-0.491818
46.6788
-0.54348
47.0457
-0.595464
47.4182
-0.647741
47.7962
-0.700276
48.18
-0.753037
48.5696
-0.805992
48.9651
-0.859106
49.3665
-0.912348
49.774
-0.965684
50.1875
-1.01908
50.6071
-1.07251
51.0329
-1.12593
51.4649
-1.17931
51.903
-1.23261
52.3474
-1.28582
52.798
-1.33888
53.2549
-1.39178
53.718
-1.44447
54.1873
-1.49692
54.6628
-1.5491
55.1444
-1.60098
55.6323
-1.65253
56.1261
-1.70371
56.6263
-1.75448
57.1314
-1.80485
57.6457
-1.85466
58.156
-1.90428
58.7024
-1.95241
-2.00301
59.1613
30.4478
1.23057
-30.087
30.802
1.22543
31.1491
1.21876
31.489
1.21054
31.8221
1.20078
32.1485
1.18948
32.4685
1.17664
32.7824
1.16227
33.0905
1.14637
33.3933
1.12897
33.691
1.11006
33.9841
1.08967
34.2729
1.0678
34.5577
1.04448
34.8389
1.01973
35.1169
0.993552
35.3921
0.965977
35.6648
0.937021
35.9354
0.906706
36.2042
0.875053
36.4715
0.842085
36.7377
0.807824
37.0032
0.772294
37.2681
0.73552
37.5329
0.697527
37.7978
0.658339
38.0632
0.617984
38.3293
0.576487
38.5964
0.533877
38.8647
0.490181
39.1346
0.445428
39.4064
0.399646
39.6801
0.352865
39.9562
0.305114
40.2348
0.256426
40.5161
0.206829
40.8004
0.156356
41.0879
0.105039
41.3788
0.0529093
41.6733
0
41.9715
-0.0536558
42.2737
-0.108024
42.5801
-0.163072
42.8907
-0.218764
43.2058
-0.275067
43.5254
-0.331946
43.8498
-0.389364
44.1791
-0.447287
44.5135
-0.505679
44.8529
-0.564504
45.1976
-0.623726
45.5476
-0.683307
45.9031
-0.743212
46.2642
-0.803404
46.6308
-0.863845
47.0032
-0.924498
47.3814
-0.985326
47.7654
-1.04629
48.1553
-1.10736
48.5511
-1.16849
48.953
-1.22964
49.3608
-1.29078
49.7748
-1.35187
50.1948
-1.41287
50.6209
-1.47374
51.0531
-1.53446
51.4914
-1.59497
51.9357
-1.65524
52.3862
-1.71524
52.8428
-1.77492
53.3053
-1.83426
53.7739
-1.8932
54.2484
-1.95173
54.729
-2.00979
55.2146
-2.06738
55.709
-2.12434
56.1998
-2.18107
56.7251
-2.23612
-2.29393
57.1674
30.0128
1.40833
-29.6841
30.3356
1.40125
30.6518
1.39247
30.9616
1.38199
31.2652
1.36982
31.5629
1.35595
31.855
1.3404
32.1418
1.32316
32.4235
1.30425
32.7005
1.28368
32.9732
1.26147
33.2419
1.23763
33.5069
1.21217
33.7686
1.18511
34.0274
1.15648
34.2834
1.12629
34.5372
1.09456
34.789
1.06131
35.0391
1.02657
35.2878
0.990363
35.5356
0.952707
35.7826
0.913631
36.0292
0.87316
36.2757
0.83132
36.5223
0.788138
36.7693
0.743644
37.0171
0.697864
37.2659
0.650829
37.5158
0.602568
37.7673
0.553113
38.0205
0.502494
38.2757
0.450743
38.5331
0.397892
38.793
0.343976
39.0554
0.289026
39.3208
0.233078
39.5892
0.176166
39.8608
0.118325
40.1359
0.059591
40.4146
0
40.6972
-0.0604114
40.9837
-0.121606
41.2743
-0.183547
41.5693
-0.246196
41.8687
-0.309514
42.1726
-0.373463
42.4813
-0.438004
42.7948
-0.503098
43.1132
-0.568705
43.4368
-0.634785
43.7655
-0.701297
44.0994
-0.768202
44.4388
-0.835458
44.7836
-0.903024
45.1339
-0.97086
45.4899
-1.03892
45.8515
-1.10717
46.2189
-1.17557
46.592
-1.24407
46.9709
-1.31263
47.3558
-1.38121
47.7465
-1.44977
48.1432
-1.51826
48.5458
-1.58665
48.9543
-1.65489
49.3688
-1.72295
49.7893
-1.79077
50.2158
-1.85832
50.6482
-1.92555
51.0865
-1.99243
51.5307
-2.05892
51.9808
-2.12496
52.4366
-2.19053
52.8985
-2.25558
53.3652
-2.3201
53.8404
-2.3839
54.3124
-2.44744
54.8174
-2.50912
-2.57382
55.2437
29.5579
1.58531
-29.2589
29.8515
1.57607
30.1392
1.565
30.4212
1.55208
30.6977
1.53733
30.969
1.52075
31.2353
1.50234
31.497
1.48211
31.7543
1.46008
32.0077
1.43625
32.2572
1.41065
32.5034
1.38328
32.7466
1.35417
32.9869
1.32333
33.2248
1.29078
33.4605
1.25655
33.6944
1.22066
33.9268
1.18312
34.1579
1.14397
34.3881
1.10322
34.6176
1.06091
34.8468
1.01707
35.0759
0.971706
35.3051
0.924864
35.5348
0.87657
35.7652
0.826852
35.9965
0.775742
36.2291
0.723271
36.463
0.669473
36.6987
0.61438
36.9363
0.558025
37.1759
0.500445
37.418
0.441672
37.6625
0.381745
37.9098
0.320698
38.1601
0.25857
38.4135
0.195397
38.6702
0.131219
38.9304
0.0660733
39.1943
0
39.462
-0.0669611
39.7337
-0.134769
40.0095
-0.203384
40.2896
-0.272764
40.5741
-0.342868
40.8631
-0.413652
41.1568
-0.485076
41.4553
-0.557094
41.7587
-0.629665
42.0671
-0.702744
42.3806
-0.776288
42.6993
-0.850253
43.0233
-0.924592
43.3526
-0.999264
43.6874
-1.07422
44.0276
-1.14942
44.3735
-1.22481
44.7249
-1.30036
45.082
-1.376
45.4448
-1.45171
45.8134
-1.52743
46.1877
-1.60312
46.5678
-1.67873
46.9538
-1.75421
47.3455
-1.82953
47.7431
-1.90462
48.1465
-1.97946
48.5557
-2.05399
48.9707
-2.12817
49.3915
-2.20195
49.8181
-2.27529
50.2504
-2.34815
50.6883
-2.42047
51.1321
-2.49221
51.5807
-2.56336
52.0375
-2.63373
52.4914
-2.7038
52.9767
-2.77182
-2.84312
53.3875
29.0858
1.76118
-28.8143
29.3525
1.74961
29.6139
1.73607
29.8702
1.72057
30.1217
1.7031
30.3686
1.68367
30.6113
1.66229
30.8499
1.63897
31.0847
1.61372
31.3162
1.58656
31.5445
1.5575
31.7699
1.52655
31.9928
1.49374
32.2133
1.45908
32.432
1.4226
32.6489
1.38432
32.8644
1.34425
33.0787
1.30244
33.2923
1.25889
33.5052
1.21364
33.7178
1.16672
33.9303
1.11814
34.1431
1.06796
34.3563
1.01618
34.5702
0.962851
34.785
0.907997
35.001
0.851652
35.2184
0.793851
35.4374
0.734627
35.6582
0.674018
35.8811
0.612058
36.1062
0.548784
36.3338
0.484236
36.564
0.41845
36.7971
0.351466
37.0332
0.283325
37.2724
0.214066
37.515
0.143731
37.7612
0.0723615
38.011
0
38.2647
-0.0733105
38.5223
-0.147527
38.7841
-0.222604
39.0501
-0.298499
39.3205
-0.375165
39.5954
-0.452557
39.8749
-0.53063
40.1592
-0.609337
40.4483
-0.68863
40.7423
-0.768464
41.0413
-0.84879
41.3455
-0.929561
41.6548
-1.01073
41.9694
-1.09224
42.2893
-1.17406
42.6146
-1.25613
42.9454
-1.33839
43.2816
-1.42081
43.6234
-1.50334
43.9708
-1.58592
44.3238
-1.6685
44.6824
-1.75104
45.0467
-1.83348
45.4167
-1.91578
45.7923
-1.99789
46.1736
-2.07975
46.5607
-2.16132
46.9533
-2.24255
47.3517
-2.32339
47.7557
-2.40379
48.1653
-2.48371
48.5805
-2.56309
49.0012
-2.64188
49.4276
-2.72004
49.8587
-2.79755
50.2978
-2.8742
50.7342
-2.95052
51.2006
-3.02463
-3.10223
51.5966
28.5993
1.93567
-28.3532
28.8411
1.92161
29.0782
1.90546
29.3109
1.88724
29.5394
1.86693
29.7639
1.84455
29.9847
1.82011
30.202
1.79361
30.4162
1.76508
30.6275
1.73451
30.8361
1.70194
31.0423
1.66737
31.2465
1.63082
31.4488
1.59233
31.6496
1.5519
31.8491
1.50956
32.0475
1.46534
32.2452
1.41926
32.4424
1.37134
32.6393
1.32162
32.8361
1.27013
33.0332
1.21689
33.2308
1.16194
33.429
1.1053
33.6282
1.04701
33.8285
0.987113
34.0301
0.92563
34.2333
0.862604
34.4383
0.798068
34.6452
0.732063
34.8543
0.664625
35.0658
0.595795
35.2798
0.525613
35.4966
0.454119
35.7162
0.381355
35.939
0.307364
36.1649
0.232189
36.3942
0.155873
36.6271
0.0784616
36.8637
0
37.1041
-0.0794662
37.3485
-0.159891
37.597
-0.241227
37.8496
-0.323425
38.1067
-0.40644
38.3682
-0.490221
38.6342
-0.57472
38.9049
-0.659886
39.1804
-0.745671
39.4608
-0.832023
39.746
-0.918891
40.0363
-1.00623
40.3317
-1.09397
40.6322
-1.18208
40.938
-1.2705
41.249
-1.35918
41.5654
-1.44807
41.8872
-1.53711
42.2143
-1.62624
42.5469
-1.71543
42.885
-1.80461
43.2287
-1.89373
43.5778
-1.98274
43.9325
-2.07159
44.2927
-2.16022
44.6584
-2.24857
45.0298
-2.33661
45.4066
-2.42427
45.789
-2.5115
46.1768
-2.59825
46.5701
-2.68447
46.9689
-2.7701
47.3731
-2.85511
47.7828
-2.93941
48.1971
-3.02302
48.6191
-3.10569
49.0387
-3.18799
49.4869
-3.26794
-3.35155
49.8684
28.1007
2.10851
-27.8781
28.3197
2.09183
28.5345
2.07297
28.7454
2.05191
28.9527
2.02867
29.1566
2.00325
29.3572
1.97567
29.555
1.94593
29.75
1.91404
29.9427
1.88003
30.1332
1.8439
30.3217
1.80568
30.5086
1.76538
30.694
1.72304
30.8783
1.67866
31.0616
1.63227
31.2443
1.58391
31.4265
1.53358
31.6085
1.48134
31.7905
1.42719
31.9727
1.37118
32.1554
1.31333
32.3388
1.25368
32.5231
1.19225
32.7085
1.12909
32.8952
1.06424
33.0835
0.997714
33.2734
0.929566
33.4653
0.859832
33.6592
0.788551
33.8554
0.715763
34.0541
0.64151
34.2553
0.565834
34.4594
0.488779
34.6665
0.410388
34.8766
0.330707
35.09
0.24978
35.3068
0.167656
35.5272
0.0843796
35.7512
0
35.9791
-0.0854345
36.2109
-0.171875
36.4468
-0.25927
36.6869
-0.347572
36.9312
-0.436727
37.18
-0.526685
37.4333
-0.617394
37.6912
-0.708801
37.9537
-0.800852
38.221
-0.893495
38.4932
-0.986675
38.7703
-1.08034
39.0524
-1.17443
39.3395
-1.2689
39.6318
-1.36368
39.9292
-1.45873
40.2319
-1.55398
40.5398
-1.64939
40.853
-1.74489
41.1715
-1.84043
41.4954
-1.93595
41.8246
-2.0314
42.1592
-2.12672
42.4993
-2.22186
42.8447
-2.31675
43.1956
-2.41134
43.5518
-2.50558
43.9134
-2.59941
44.2805
-2.69277
44.6528
-2.78561
45.0305
-2.87788
45.4136
-2.96951
45.8018
-3.06046
46.1955
-3.15065
46.5936
-3.2401
46.9991
-3.32854
47.4026
-3.41657
47.8332
-3.5021
-3.59146
48.2009
27.5925
2.27949
-27.3914
27.7904
2.26009
27.9846
2.2384
28.1755
2.21442
28.3633
2.18817
28.5481
2.15964
28.7303
2.12885
28.91
2.09581
29.0875
2.06054
29.2629
2.02304
29.4366
1.98333
29.6088
1.94144
29.7797
1.89738
29.9496
1.85118
30.1186
1.80286
30.287
1.75244
30.455
1.69996
30.6228
1.64543
30.7907
1.58889
30.9589
1.53036
31.1275
1.46988
31.2968
1.40749
31.4671
1.3432
31.6383
1.27707
31.8109
1.20913
31.985
1.1394
32.1607
1.06794
32.3382
0.994776
32.5178
0.919956
32.6995
0.843517
32.8836
0.765505
33.0702
0.68596
33.2596
0.604929
33.4517
0.522457
33.6469
0.438589
33.8452
0.353373
34.0468
0.266857
34.2517
0.179089
34.4603
0.0901203
34.6725
0
34.8885
-0.0912205
35.1085
-0.18349
35.3325
-0.276754
35.5606
-0.370962
35.7929
-0.466059
36.0296
-0.56199
36.2708
-0.658701
36.5165
-0.756135
36.7667
-0.854239
37.0217
-0.952954
37.2814
-1.05222
37.5459
-1.15199
37.8154
-1.2522
38.0898
-1.35279
38.3691
-1.4537
38.6536
-1.55488
38.9431
-1.65627
39.2378
-1.7578
39.5376
-1.85943
39.8427
-1.96108
40.1529
-2.0627
40.4684
-2.16423
40.7892
-2.26562
41.1152
-2.36679
41.4465
-2.4677
41.7831
-2.56828
42.1249
-2.66847
42.4719
-2.76822
42.8242
-2.86747
43.1818
-2.96615
43.5445
-3.06421
43.9123
-3.16159
44.2853
-3.25824
44.6635
-3.35408
45.0461
-3.44912
45.4359
-3.54309
45.8238
-3.6366
46.2376
-3.72749
-3.82234
46.5919
27.0766
2.44842
-26.8953
27.255
2.4262
27.4304
2.40161
27.6029
2.37464
27.7727
2.34531
27.9401
2.31362
28.1052
2.27957
28.2682
2.2432
28.4295
2.20449
28.5891
2.16349
28.7474
2.12019
28.9045
2.07462
29.0606
2.0268
29.216
1.97675
29.3709
1.9245
29.5254
1.87008
29.6799
1.8135
29.8344
1.7548
29.9892
1.69401
30.1445
1.63115
30.3005
1.56627
30.4574
1.49939
30.6153
1.43055
30.7745
1.35979
30.9351
1.28714
31.0973
1.21265
31.2613
1.13634
31.4272
1.05827
31.5953
0.978475
31.7656
0.896998
31.9383
0.813883
32.1137
0.729178
32.2918
0.642927
32.4727
0.555178
32.6567
0.46598
32.8438
0.375381
33.0343
0.283432
33.2281
0.190184
33.4255
0.0956895
33.6266
0
33.8314
-0.0968305
34.0401
-0.194748
34.2528
-0.293696
34.4696
-0.393621
34.6906
-0.494466
34.9158
-0.596173
35.1454
-0.698685
35.3795
-0.801945
35.6181
-0.905893
35.8613
-1.01047
36.1092
-1.11562
36.3618
-1.22127
36.6191
-1.32738
36.8814
-1.43387
37.1485
-1.54069
37.4205
-1.64778
37.6976
-1.75507
37.9796
-1.8625
38.2667
-1.97001
38.5589
-2.07754
38.8561
-2.18503
39.1585
-2.29241
39.4659
-2.39962
39.7785
-2.5066
40.0963
-2.61329
40.4191
-2.71961
40.7471
-2.82553
41.0802
-2.93096
41.4184
-3.03585
41.7617
-3.14013
42.11
-3.24375
42.4633
-3.34665
42.8216
-3.44876
43.185
-3.55001
43.5526
-3.6504
43.9272
-3.74966
44.3002
-3.84843
44.6977
-3.94445
-4.04454
45.0392
26.5548
2.61513
-26.3918
26.7155
2.59002
26.8735
2.56246
27.029
2.53244
27.1823
2.49998
27.3336
2.46508
27.483
2.42775
27.6307
2.38801
27.777
2.34586
27.9221
2.30133
28.0661
2.25443
28.2092
2.20519
28.3517
2.15361
28.4938
2.09974
28.6356
2.04358
28.7773
1.98518
28.9192
1.92454
29.0613
1.86171
29.204
1.79672
29.3474
1.72959
29.4916
1.66037
29.6369
1.58908
29.7834
1.51576
29.9312
1.44045
30.0807
1.36318
30.2318
1.28401
30.3849
1.20296
30.5399
1.12008
30.6972
1.03543
30.8568
0.949026
31.0189
0.860933
31.1837
0.771194
31.3512
0.679856
31.5216
0.586969
31.6951
0.492583
31.8717
0.39675
32.0517
0.299522
32.235
0.200951
32.4218
0.101092
32.6123
0
32.8066
-0.10227
33.0047
-0.20566
33.2067
-0.310114
33.4127
-0.415573
33.6229
-0.52198
33.8373
-0.629273
34.056
-0.737394
34.2791
-0.846281
34.5066
-0.955874
34.7386
-1.06611
34.9752
-1.17693
35.2164
-1.28826
35.4623
-1.40006
35.7129
-1.51224
35.9683
-1.62475
36.2285
-1.73753
36.4936
-1.8505
36.7636
-1.96361
37.0385
-2.07679
37.3184
-2.18998
37.6032
-2.30311
37.893
-2.41611
38.1878
-2.52892
38.4875
-2.64147
38.7923
-2.75371
39.102
-2.86556
39.4168
-2.97696
39.7365
-3.08784
40.0611
-3.19815
40.3907
-3.30781
40.7252
-3.41676
41.0646
-3.52494
41.4087
-3.63228
41.7579
-3.73872
42.1112
-3.84424
42.4712
-3.94858
42.8298
-4.05236
43.2117
-4.15331
-4.25839
43.5408
26.029
2.77948
-25.8827
26.1732
2.75143
26.3153
2.72084
26.4553
2.68773
26.5934
2.65211
26.7298
2.61397
26.8648
2.57333
26.9984
2.5302
27.131
2.4846
27.2625
2.43654
27.3934
2.38605
27.5237
2.33313
27.6536
2.27782
27.7833
2.22014
27.913
2.1601
28.0428
2.09775
28.173
2.0331
28.3037
1.96619
28.4351
1.89705
28.5674
1.82571
28.7007
1.7522
28.8352
1.67657
28.971
1.59885
29.1084
1.51907
29.2474
1.43728
29.3882
1.35352
29.531
1.26783
29.6759
1.18026
29.8231
1.09084
29.9727
0.999637
30.1248
0.906686
30.2796
0.812038
30.4372
0.715744
30.5977
0.617855
30.7613
0.518421
30.928
0.417498
31.098
0.315139
31.2715
0.211398
31.4484
0.106333
31.6289
-2.14846e-07
31.8131
-0.107543
32.0011
-0.216237
32.193
-0.326023
32.3889
-0.436841
32.5889
-0.548629
32.793
-0.661325
33.0013
-0.774868
33.2139
-0.889193
33.4308
-1.00424
33.6522
-1.11994
33.8781
-1.23623
34.1084
-1.35305
34.3434
-1.47032
34.583
-1.58799
34.8272
-1.70599
35.0762
-1.82424
35.3299
-1.94269
35.5884
-2.06127
35.8516
-2.17991
36.1197
-2.29853
36.3926
-2.41708
36.6704
-2.53549
36.953
-2.65369
37.2405
-2.7716
37.5328
-2.88917
37.83
-3.00632
38.132
-3.12298
38.4389
-3.2391
38.7506
-3.3546
39.067
-3.46942
39.3883
-3.58348
39.7143
-3.69673
40.0449
-3.8091
40.3804
-3.9205
40.7199
-4.03094
41.0659
-4.14013
41.4107
-4.24872
41.7776
-4.35438
-4.46424
42.0947
25.5005
2.94134
-25.3697
25.6298
2.9103
25.7571
2.87666
25.8828
2.84043
26.007
2.80161
26.1298
2.76021
26.2515
2.71625
26.3721
2.66973
26.492
2.62067
26.6111
2.56909
26.7298
2.51501
26.8482
2.45844
26.9665
2.39942
27.0848
2.33795
27.2033
2.27407
27.3222
2.20781
27.4416
2.1392
27.5616
2.06826
27.6826
1.99502
27.8045
1.91953
27.9276
1.84181
28.0521
1.76191
28.178
1.67986
28.3055
1.5957
28.4348
1.50947
28.566
1.42122
28.6992
1.33099
28.8346
1.23882
28.9724
1.14476
29.1126
1.04886
29.2553
0.951174
29.4008
0.851741
29.549
0.750618
29.7002
0.647858
29.8545
0.543515
30.0119
0.437642
30.1726
0.330297
30.3366
0.221536
30.5042
0.111417
30.6753
0
30.85
-0.112656
31.0285
-0.22649
31.2109
-0.341441
31.3971
-0.457446
31.5874
-0.574442
31.7817
-0.692364
31.9801
-0.811148
32.1828
-0.93073
32.3897
-1.05104
32.601
-1.17202
32.8166
-1.29359
33.0367
-1.4157
33.2612
-1.53826
33.4903
-1.66122
33.7239
-1.7845
33.9621
-1.90804
34.2049
-2.03176
34.4524
-2.1556
34.7045
-2.27949
34.9614
-2.40335
35.2229
-2.52712
35.4892
-2.65072
35.7602
-2.77409
36.0359
-2.89716
36.3163
-3.01984
36.6015
-3.14209
36.8913
-3.26381
37.1859
-3.38495
37.4851
-3.50544
37.789
-3.6252
38.0975
-3.74417
38.4107
-3.86227
38.7283
-3.97945
39.0507
-4.09561
39.377
-4.21076
39.7095
-4.3246
40.041
-4.4378
40.3935
-4.54797
-4.66238
40.6991
24.9709
3.10062
-24.8542
25.0863
3.06656
25.2002
3.02983
25.3127
2.99046
25.4241
2.94843
25.5344
2.90377
25.6438
2.85647
25.7525
2.80657
25.8607
2.75406
25.9684
2.69897
26.0759
2.64132
26.1834
2.58112
26.2909
2.5184
26.3986
2.45319
26.5068
2.38551
26.6154
2.31538
26.7248
2.24285
26.835
2.16793
26.9463
2.09066
27.0586
2.01108
27.1723
1.92923
27.2874
1.84513
27.404
1.75883
27.5224
1.67038
27.6426
1.5798
27.7648
1.48715
27.8891
1.39247
28.0156
1.29581
28.1445
1.19722
28.2759
1.09674
28.4098
0.994428
28.5465
0.890331
28.686
0.784506
28.8285
0.677005
28.974
0.567884
29.1226
0.457199
29.2745
0.34501
29.4297
0.231373
29.5883
0.11635
29.7505
0
29.9163
-0.117614
30.0858
-0.23643
30.2591
-0.356383
30.4362
-0.47741
30.6173
-0.599445
30.8023
-0.722423
30.9914
-0.846276
31.1846
-0.970937
31.382
-1.09634
31.5836
-1.22241
31.7896
-1.34908
31.9998
-1.47629
32.2144
-1.60396
32.4334
-1.73202
32.6569
-1.86039
32.8848
-1.98902
33.1173
-2.11782
33.3543
-2.24673
33.5958
-2.37567
33.8419
-2.50457
34.0926
-2.63336
34.3479
-2.76196
34.6077
-2.8903
34.8722
-3.01832
35.1412
-3.14593
35.4149
-3.27306
35.6931
-3.39964
35.9758
-3.52561
36.2631
-3.65088
36.555
-3.77538
36.8513
-3.89905
37.1521
-4.02181
37.4573
-4.1436
37.767
-4.26433
38.0806
-4.38399
38.4002
-4.50228
38.7189
-4.61989
39.0576
-4.73438
-4.85314
39.3521
24.4413
3.25723
-24.3375
24.544
3.22012
24.6456
3.1803
24.7461
3.13776
24.8456
3.09252
24.9444
3.04459
25.0426
2.99397
25.1403
2.94068
25.2377
2.88474
25.3349
2.82616
25.432
2.76496
25.5294
2.70116
25.6269
2.63479
25.7249
2.56587
25.8235
2.49443
25.9227
2.42049
26.0228
2.34408
26.1239
2.26524
26.2261
2.18401
26.3296
2.10041
26.4345
2.01448
26.5409
1.92626
26.6489
1.8358
26.7587
1.74313
26.8705
1.6483
26.9843
1.55135
27.1002
1.45232
27.2184
1.35127
27.339
1.24825
27.4621
1.1433
27.5878
1.03648
27.7163
0.927838
27.8475
0.817432
27.9817
0.705316
28.119
0.591549
28.2593
0.476187
28.4029
0.359289
28.5498
0.240918
28.7001
0.121134
28.8538
0
29.0112
-0.122421
29.1721
-0.246064
29.3368
-0.370864
29.5053
-0.496753
29.6776
-0.623666
29.8538
-0.751534
30.034
-0.880288
30.2183
-1.00986
30.4066
-1.14018
30.5991
-1.27117
30.7958
-1.40277
30.9966
-1.5349
31.2018
-1.66749
31.4113
-1.80046
31.625
-1.93375
31.8432
-2.06728
32.0658
-2.20098
32.2927
-2.33477
32.5241
-2.46858
32.7599
-2.60232
33.0002
-2.73594
33.245
-2.86935
33.4942
-3.00247
33.7479
-3.13524
34.006
-3.26758
34.2686
-3.39941
34.5356
-3.53066
34.8071
-3.66125
35.083
-3.79112
35.3633
-3.92017
35.6479
-4.04835
35.9369
-4.17558
36.2301
-4.30179
36.5278
-4.42688
36.8292
-4.55087
37.1363
-4.67343
37.4428
-4.79525
37.7682
-4.91388
-5.03679
38.052
23.9129
3.41109
-23.821
24.004
3.37093
24.0942
3.328
24.1836
3.28231
24.2723
3.23386
24.3605
3.18266
24.4484
3.12873
24.5359
3.07207
24.6234
3.01271
24.7109
2.95067
24.7986
2.88595
24.8865
2.81858
24.9749
2.74859
25.0639
2.676
25.1536
2.60084
25.2441
2.52314
25.3356
2.44292
25.4282
2.36023
25.5221
2.27508
25.6173
2.18753
25.714
2.09761
25.8123
2.00535
25.9123
1.9108
26.0142
1.814
26.118
1.715
26.2239
1.61384
26.332
1.51057
26.4425
1.40523
26.5553
1.29788
26.6707
1.18857
26.7886
1.07736
26.9093
0.964289
27.0329
0.849423
27.1593
0.732817
27.2888
0.614529
27.4213
0.49462
27.5571
0.373149
27.6961
0.25018
27.8385
0.125776
27.9843
0
28.1336
-0.127082
28.2865
-0.255404
28.443
-0.384898
28.6033
-0.515496
28.7674
-0.64713
28.9352
-0.779729
29.107
-0.913223
29.2827
-1.04754
29.4625
-1.18261
29.6462
-1.31835
29.8341
-1.45471
30.026
-1.59159
30.2222
-1.72893
30.4225
-1.86665
30.6271
-2.00467
30.8359
-2.14293
31.049
-2.28134
31.2664
-2.41983
31.4881
-2.55832
31.7141
-2.69674
31.9445
-2.835
32.1792
-2.97303
32.4182
-3.11076
32.6616
-3.2481
32.9093
-3.38498
33.1613
-3.52132
33.4176
-3.65705
33.6783
-3.79209
33.9432
-3.92636
34.2124
-4.05978
34.4858
-4.19229
34.7634
-4.3238
35.0452
-4.45424
35.3312
-4.58353
35.6209
-4.71165
35.9161
-4.8383
36.2108
-4.96416
36.5235
-5.08675
-5.21362
36.797
23.3866
3.56216
-23.3056
23.4671
3.51894
23.5469
3.4729
23.6261
3.42405
23.7049
3.3724
23.7834
3.31795
23.8617
3.26073
23.94
3.20073
24.0183
3.13798
24.0968
3.07249
24.1757
3.00429
24.2551
2.93339
24.335
2.85983
24.4157
2.78362
24.4972
2.70479
24.5796
2.62337
24.6631
2.5394
24.7479
2.45291
24.834
2.36393
24.9215
2.27249
25.0106
2.17864
25.1013
2.08242
25.1939
1.98387
25.2883
1.88303
25.3848
1.77995
25.4834
1.67467
25.5842
1.56725
25.6873
1.45773
25.7929
1.34616
25.901
1.2326
26.0117
1.1171
26.1252
0.999712
26.2414
0.880503
26.3606
0.759527
26.4827
0.636844
26.6079
0.512514
26.7363
0.386601
26.8679
0.259168
27.0028
0.130279
27.1411
-2.14757e-07
27.2828
-0.131601
27.4281
-0.264458
27.5769
-0.3985
27.7294
-0.533658
27.8856
-0.669861
28.0455
-0.807038
28.2093
-0.945115
28.3769
-1.08402
28.5484
-1.22368
28.7239
-1.36402
28.9034
-1.50496
29.0869
-1.64643
29.2744
-1.78835
29.4661
-1.93065
29.6619
-2.07324
29.8618
-2.21605
30.0658
-2.35901
30.2741
-2.50202
30.4865
-2.64502
30.7032
-2.78793
30.924
-2.93066
31.1491
-3.07314
31.3784
-3.21529
31.6119
-3.35703
31.8496
-3.49828
32.0915
-3.63896
32.3376
-3.77899
32.5879
-3.91829
32.8423
-4.05679
33.1009
-4.19441
33.3635
-4.33107
33.6303
-4.46668
33.901
-4.60119
34.1759
-4.73449
34.4544
-4.86657
34.7381
-4.99713
35.0215
-5.12686
35.3219
-5.25325
-5.38389
35.5855
22.8634
3.71038
-22.7924
22.9342
3.66411
23.0044
3.61497
23.0743
3.56298
23.144
3.50814
23.2135
3.45046
23.2831
3.38996
23.3528
3.32665
23.4227
3.26053
23.493
3.19164
23.5638
3.11999
23.6352
3.04561
23.7073
2.96851
23.7803
2.88873
23.8542
2.80629
23.9292
2.72122
24.0053
2.63355
24.0828
2.54333
24.1617
2.45057
24.2421
2.35533
24.3241
2.25763
24.4078
2.15752
24.4934
2.05505
24.581
1.95025
24.6705
1.84318
24.7623
1.73388
24.8562
1.6224
24.9526
1.50879
25.0513
1.3931
25.1526
1.27539
25.2565
1.15572
25.3631
1.03413
25.4726
0.910697
25.5848
0.78547
25.7001
0.658512
25.8184
0.529886
25.9398
0.399657
26.0644
0.267888
26.1922
0.134647
26.3234
0
26.458
-0.135984
26.596
-0.273235
26.7375
-0.411683
26.8826
-0.551257
27.0314
-0.691883
27.1838
-0.833489
27.3399
-0.976
27.4999
-1.11934
27.6636
-1.26344
27.8312
-1.40821
28.0027
-1.55359
28.1781
-1.69949
28.3575
-1.84583
28.5408
-1.99254
28.7282
-2.13954
28.9196
-2.28674
29.1151
-2.43407
29.3146
-2.58145
29.5182
-2.7288
29.7259
-2.87603
29.9376
-3.02306
30.1535
-3.16982
30.3735
-3.31622
30.5975
-3.46219
30.8257
-3.60763
31.0579
-3.75248
31.2942
-3.89664
31.5345
-4.04004
31.7789
-4.18261