/*--------------------------------*- C++ -*----------------------------------*\
| =========                 |                                                 |
| \\      /  F ield         | OpenFOAM: The Open Source CFD Toolbox           |
|  \\    /   O peration     | Version:  2312                                  |
|   \\  /    A nd           | Website:  www.openfoam.com                      |
|    \\/     M anipulation  |                                                 |
\*---------------------------------------------------------------------------*/
FoamFile
{
    version     2.0;
    format      ascii;
    arch        "LSB;label=32;scalar=64";
    class       volVectorField;
    location    "0.164";
    object      U;
}
// * * * * * * * * * * * * * * * * * * * * * * * * * * * * * * * * * * * * * //

dimensions      [0 1 -1 0 0 0 0];

internalField   nonuniform List<vector> 
31205
(
(296.607 0 0)
(296.072 0 0)
(295.496 0 0)
(294.881 0 0)
(294.225 0 0)
(293.528 0 0)
(292.788 0 0)
(292.006 0 0)
(291.18 0 0)
(290.309 0 0)
(289.393 0 0)
(288.43 0 0)
(287.418 0 0)
(286.358 0 0)
(285.247 0 0)
(284.084 0 0)
(282.866 0 0)
(281.593 0 0)
(280.261 0 0)
(278.87 0 0)
(277.415 0 0)
(275.895 0 0)
(274.307 0 0)
(272.646 0 0)
(270.91 0 0)
(269.093 0 0)
(267.191 0 0)
(265.199 0 0)
(263.111 0 0)
(260.918 0 0)
(258.614 0 0)
(256.188 0 0)
(253.629 0 0)
(250.924 0 0)
(248.057 0 0)
(245.008 0 0)
(241.752 0 0)
(238.26 0 0)
(234.489 0 0)
(230.375 0 0)
(225.841 0 0)
(220.849 0 0)
(215.317 0 0)
(208.511 0 0)
(198.134 0 0)
(181.352 0 0)
(159.072 0 0)
(137.376 0 0)
(121.673 0 0)
(112.536 0 0)
(107.878 0 0)
(105.711 0 0)
(104.84 0 0)
(104.655 0 0)
(104.852 0 0)
(105.278 0 0)
(105.852 0 0)
(106.528 0 0)
(107.277 0 0)
(108.081 0 0)
(108.927 0 0)
(109.808 0 0)
(110.716 0 0)
(111.647 0 0)
(112.596 0 0)
(113.561 0 0)
(114.538 0 0)
(115.526 0 0)
(116.524 0 0)
(117.529 0 0)
(118.541 0 0)
(119.558 0 0)
(120.581 0 0)
(121.605 0 0)
(122.638 0 0)
(123.657 0 0)
(124.729 0 0)
(125.648 0 0)
(127.042 0 0)
(296.124 0 0)
(295.569 0 0)
(294.976 0 0)
(294.344 0 0)
(293.673 0 0)
(292.962 0 0)
(292.21 0 0)
(291.418 0 0)
(290.583 0 0)
(289.705 0 0)
(288.783 0 0)
(287.816 0 0)
(286.802 0 0)
(285.741 0 0)
(284.631 0 0)
(283.47 0 0)
(282.257 0 0)
(280.99 0 0)
(279.667 0 0)
(278.285 0 0)
(276.843 0 0)
(275.337 0 0)
(273.765 0 0)
(272.123 0 0)
(270.408 0 0)
(268.616 0 0)
(266.741 0 0)
(264.779 0 0)
(262.724 0 0)
(260.569 0 0)
(258.306 0 0)
(255.927 0 0)
(253.42 0 0)
(250.773 0 0)
(247.971 0 0)
(244.995 0 0)
(241.823 0 0)
(238.426 0 0)
(234.768 0 0)
(230.791 0 0)
(226.42 0 0)
(221.602 0 0)
(216.301 0 0)
(210.051 0 0)
(201.018 0 0)
(186.215 0 0)
(165.112 0 0)
(142.693 0 0)
(125.189 0 0)
(114.455 0 0)
(108.8 0 0)
(106.085 0 0)
(104.915 0 0)
(104.555 0 0)
(104.638 0 0)
(104.982 0 0)
(105.492 0 0)
(106.113 0 0)
(106.813 0 0)
(107.573 0 0)
(108.378 0 0)
(109.22 0 0)
(110.09 0 0)
(110.984 0 0)
(111.898 0 0)
(112.828 0 0)
(113.772 0 0)
(114.727 0 0)
(115.692 0 0)
(116.665 0 0)
(117.646 0 0)
(118.631 0 0)
(119.623 0 0)
(120.617 0 0)
(121.619 0 0)
(122.608 0 0)
(123.648 0 0)
(124.543 0 0)
(125.891 0 0)
(295.596 0 0)
(295.022 0 0)
(294.41 0 0)
(293.762 0 0)
(293.077 0 0)
(292.352 0 0)
(291.589 0 0)
(290.786 0 0)
(289.943 0 0)
(289.058 0 0)
(288.13 0 0)
(287.158 0 0)
(286.142 0 0)
(285.08 0 0)
(283.97 0 0)
(282.811 0 0)
(281.602 0 0)
(280.34 0 0)
(279.024 0 0)
(277.652 0 0)
(276.221 0 0)
(274.728 0 0)
(273.171 0 0)
(271.546 0 0)
(269.851 0 0)
(268.08 0 0)
(266.231 0 0)
(264.296 0 0)
(262.272 0 0)
(260.152 0 0)
(257.927 0 0)
(255.59 0 0)
(253.131 0 0)
(250.536 0 0)
(247.794 0 0)
(244.885 0 0)
(241.789 0 0)
(238.479 0 0)
(234.922 0 0)
(231.067 0 0)
(226.841 0 0)
(222.185 0 0)
(217.073 0 0)
(211.223 0 0)
(203.223 0 0)
(190.201 0 0)
(170.564 0 0)
(147.954 0 0)
(128.923 0 0)
(116.59 0 0)
(109.865 0 0)
(106.548 0 0)
(105.05 0 0)
(104.501 0 0)
(104.465 0 0)
(104.725 0 0)
(105.168 0 0)
(105.734 0 0)
(106.387 0 0)
(107.103 0 0)
(107.867 0 0)
(108.67 0 0)
(109.503 0 0)
(110.362 0 0)
(111.241 0 0)
(112.137 0 0)
(113.048 0 0)
(113.971 0 0)
(114.904 0 0)
(115.846 0 0)
(116.795 0 0)
(117.75 0 0)
(118.711 0 0)
(119.675 0 0)
(120.648 0 0)
(121.609 0 0)
(122.617 0 0)
(123.488 0 0)
(124.791 0 0)
(295.038 0 0)
(294.445 0 0)
(293.817 0 0)
(293.154 0 0)
(292.455 0 0)
(291.718 0 0)
(290.944 0 0)
(290.131 0 0)
(289.28 0 0)
(288.388 0 0)
(287.454 0 0)
(286.479 0 0)
(285.46 0 0)
(284.397 0 0)
(283.288 0 0)
(282.131 0 0)
(280.925 0 0)
(279.669 0 0)
(278.359 0 0)
(276.995 0 0)
(275.574 0 0)
(274.094 0 0)
(272.551 0 0)
(270.942 0 0)
(269.265 0 0)
(267.516 0 0)
(265.689 0 0)
(263.781 0 0)
(261.785 0 0)
(259.697 0 0)
(257.508 0 0)
(255.21 0 0)
(252.795 0 0)
(250.25 0 0)
(247.562 0 0)
(244.715 0 0)
(241.688 0 0)
(238.458 0 0)
(234.993 0 0)
(231.248 0 0)
(227.155 0 0)
(222.648 0 0)
(217.701 0 0)
(212.149 0 0)
(204.936 0 0)
(193.454 0 0)
(175.406 0 0)
(153.058 0 0)
(132.813 0 0)
(118.927 0 0)
(111.074 0 0)
(107.102 0 0)
(105.247 0 0)
(104.495 0 0)
(104.334 0 0)
(104.507 0 0)
(104.884 0 0)
(105.395 0 0)
(106 0 0)
(106.673 0 0)
(107.397 0 0)
(108.162 0 0)
(108.959 0 0)
(109.783 0 0)
(110.628 0 0)
(111.491 0 0)
(112.37 0 0)
(113.261 0 0)
(114.163 0 0)
(115.074 0 0)
(115.993 0 0)
(116.918 0 0)
(117.85 0 0)
(118.784 0 0)
(119.728 0 0)
(120.66 0 0)
(121.639 0 0)
(122.486 0 0)
(123.746 0 0)
(294.458 0 0)
(293.849 0 0)
(293.206 0 0)
(292.529 0 0)
(291.817 0 0)
(291.069 0 0)
(290.285 0 0)
(289.464 0 0)
(288.605 0 0)
(287.707 0 0)
(286.769 0 0)
(285.791 0 0)
(284.77 0 0)
(283.706 0 0)
(282.597 0 0)
(281.443 0 0)
(280.241 0 0)
(278.99 0 0)
(277.687 0 0)
(276.332 0 0)
(274.921 0 0)
(273.452 0 0)
(271.923 0 0)
(270.331 0 0)
(268.671 0 0)
(266.942 0 0)
(265.138 0 0)
(263.254 0 0)
(261.287 0 0)
(259.229 0 0)
(257.074 0 0)
(254.815 0 0)
(252.441 0 0)
(249.943 0 0)
(247.307 0 0)
(244.519 0 0)
(241.558 0 0)
(238.403 0 0)
(235.025 0 0)
(231.381 0 0)
(227.412 0 0)
(223.046 0 0)
(218.253 0 0)
(212.94 0 0)
(206.343 0 0)
(196.196 0 0)
(179.797 0 0)
(158.089 0 0)
(136.934 0 0)
(121.53 0 0)
(112.466 0 0)
(107.767 0 0)
(105.512 0 0)
(104.537 0 0)
(104.24 0 0)
(104.322 0 0)
(104.631 0 0)
(105.087 0 0)
(105.644 0 0)
(106.273 0 0)
(106.958 0 0)
(107.686 0 0)
(108.447 0 0)
(109.236 0 0)
(110.048 0 0)
(110.879 0 0)
(111.726 0 0)
(112.586 0 0)
(113.458 0 0)
(114.339 0 0)
(115.228 0 0)
(116.124 0 0)
(117.026 0 0)
(117.932 0 0)
(118.847 0 0)
(119.752 0 0)
(120.701 0 0)
(121.524 0 0)
(122.745 0 0)
(293.862 0 0)
(293.238 0 0)
(292.582 0 0)
(291.892 0 0)
(291.169 0 0)
(290.412 0 0)
(289.619 0 0)
(288.79 0 0)
(287.925 0 0)
(287.022 0 0)
(286.081 0 0)
(285.1 0 0)
(284.078 0 0)
(283.014 0 0)
(281.907 0 0)
(280.755 0 0)
(279.558 0 0)
(278.312 0 0)
(277.017 0 0)
(275.67 0 0)
(274.27 0 0)
(272.813 0 0)
(271.298 0 0)
(269.721 0 0)
(268.08 0 0)
(266.37 0 0)
(264.588 0 0)
(262.729 0 0)
(260.789 0 0)
(258.762 0 0)
(256.64 0 0)
(254.417 0 0)
(252.085 0 0)
(249.632 0 0)
(247.046 0 0)
(244.314 0 0)
(241.418 0 0)
(238.335 0 0)
(235.039 0 0)
(231.492 0 0)
(227.64 0 0)
(223.411 0 0)
(218.765 0 0)
(213.653 0 0)
(207.546 0 0)
(198.554 0 0)
(183.816 0 0)
(163.079 0 0)
(141.333 0 0)
(124.461 0 0)
(114.091 0 0)
(108.568 0 0)
(105.856 0 0)
(104.629 0 0)
(104.183 0 0)
(104.167 0 0)
(104.406 0 0)
(104.805 0 0)
(105.313 0 0)
(105.9 0 0)
(106.545 0 0)
(107.235 0 0)
(107.962 0 0)
(108.717 0 0)
(109.496 0 0)
(110.295 0 0)
(111.111 0 0)
(111.941 0 0)
(112.782 0 0)
(113.634 0 0)
(114.494 0 0)
(115.361 0 0)
(116.235 0 0)
(117.113 0 0)
(118 0 0)
(118.877 0 0)
(119.798 0 0)
(120.597 0 0)
(121.78 0 0)
(293.253 0 0)
(292.616 0 0)
(291.948 0 0)
(291.248 0 0)
(290.515 0 0)
(289.749 0 0)
(288.948 0 0)
(288.114 0 0)
(287.243 0 0)
(286.336 0 0)
(285.392 0 0)
(284.409 0 0)
(283.387 0 0)
(282.324 0 0)
(281.22 0 0)
(280.072 0 0)
(278.879 0 0)
(277.639 0 0)
(276.352 0 0)
(275.015 0 0)
(273.625 0 0)
(272.181 0 0)
(270.68 0 0)
(269.119 0 0)
(267.495 0 0)
(265.805 0 0)
(264.045 0 0)
(262.211 0 0)
(260.298 0 0)
(258.3 0 0)
(256.211 0 0)
(254.025 0 0)
(251.732 0 0)
(249.323 0 0)
(246.788 0 0)
(244.111 0 0)
(241.276 0 0)
(238.263 0 0)
(235.046 0 0)
(231.593 0 0)
(227.852 0 0)
(223.755 0 0)
(219.254 0 0)
(214.317 0 0)
(208.603 0 0)
(200.596 0 0)
(187.48 0 0)
(168.002 0 0)
(146.017 0 0)
(127.77 0 0)
(115.995 0 0)
(109.535 0 0)
(106.295 0 0)
(104.778 0 0)
(104.165 0 0)
(104.044 0 0)
(104.207 0 0)
(104.547 0 0)
(105.006 0 0)
(105.55 0 0)
(106.155 0 0)
(106.809 0 0)
(107.5 0 0)
(108.222 0 0)
(108.969 0 0)
(109.736 0 0)
(110.521 0 0)
(111.321 0 0)
(112.133 0 0)
(112.956 0 0)
(113.787 0 0)
(114.626 0 0)
(115.472 0 0)
(116.323 0 0)
(117.182 0 0)
(118.032 0 0)
(118.925 0 0)
(119.701 0 0)
(120.847 0 0)
(292.633 0 0)
(291.985 0 0)
(291.306 0 0)
(290.596 0 0)
(289.855 0 0)
(289.081 0 0)
(288.275 0 0)
(287.435 0 0)
(286.561 0 0)
(285.651 0 0)
(284.705 0 0)
(283.722 0 0)
(282.7 0 0)
(281.639 0 0)
(280.537 0 0)
(279.393 0 0)
(278.206 0 0)
(276.973 0 0)
(275.694 0 0)
(274.366 0 0)
(272.988 0 0)
(271.556 0 0)
(270.07 0 0)
(268.525 0 0)
(266.919 0 0)
(265.249 0 0)
(263.511 0 0)
(261.701 0 0)
(259.815 0 0)
(257.847 0 0)
(255.79 0 0)
(253.64 0 0)
(251.386 0 0)
(249.021 0 0)
(246.534 0 0)
(243.91 0 0)
(241.136 0 0)
(238.191 0 0)
(235.052 0 0)
(231.687 0 0)
(228.053 0 0)
(224.084 0 0)
(219.724 0 0)
(214.95 0 0)
(209.55 0 0)
(202.367 0 0)
(190.786 0 0)
(172.792 0 0)
(150.953 0 0)
(131.486 0 0)
(118.226 0 0)
(110.702 0 0)
(106.847 0 0)
(104.995 0 0)
(104.192 0 0)
(103.952 0 0)
(104.034 0 0)
(104.313 0 0)
(104.722 0 0)
(105.221 0 0)
(105.787 0 0)
(106.404 0 0)
(107.061 0 0)
(107.749 0 0)
(108.464 0 0)
(109.201 0 0)
(109.956 0 0)
(110.726 0 0)
(111.509 0 0)
(112.303 0 0)
(113.106 0 0)
(113.918 0 0)
(114.736 0 0)
(115.56 0 0)
(116.392 0 0)
(117.216 0 0)
(118.081 0 0)
(118.835 0 0)
(119.944 0 0)
(292.005 0 0)
(291.346 0 0)
(290.658 0 0)
(289.94 0 0)
(289.191 0 0)
(288.412 0 0)
(287.6 0 0)
(286.756 0 0)
(285.879 0 0)
(284.967 0 0)
(284.02 0 0)
(283.037 0 0)
(282.017 0 0)
(280.958 0 0)
(279.86 0 0)
(278.721 0 0)
(277.54 0 0)
(276.315 0 0)
(275.044 0 0)
(273.726 0 0)
(272.359 0 0)
(270.941 0 0)
(269.469 0 0)
(267.941 0 0)
(266.353 0 0)
(264.703 0 0)
(262.987 0 0)
(261.201 0 0)
(259.342 0 0)
(257.402 0 0)
(255.378 0 0)
(253.263 0 0)
(251.048 0 0)
(248.726 0 0)
(246.286 0 0)
(243.715 0 0)
(240.999 0 0)
(238.12 0 0)
(235.056 0 0)
(231.778 0 0)
(228.246 0 0)
(224.4 0 0)
(220.179 0 0)
(215.557 0 0)
(210.414 0 0)
(203.905 0 0)
(193.728 0 0)
(177.372 0 0)
(156.074 0 0)
(135.619 0 0)
(120.827 0 0)
(112.106 0 0)
(107.534 0 0)
(105.289 0 0)
(104.267 0 0)
(103.896 0 0)
(103.89 0 0)
(104.104 0 0)
(104.461 0 0)
(104.915 0 0)
(105.441 0 0)
(106.021 0 0)
(106.643 0 0)
(107.299 0 0)
(107.982 0 0)
(108.688 0 0)
(109.413 0 0)
(110.154 0 0)
(110.909 0 0)
(111.675 0 0)
(112.451 0 0)
(113.235 0 0)
(114.027 0 0)
(114.824 0 0)
(115.629 0 0)
(116.428 0 0)
(117.266 0 0)
(117.997 0 0)
(119.071 0 0)
(291.368 0 0)
(290.7 0 0)
(290.004 0 0)
(289.28 0 0)
(288.525 0 0)
(287.741 0 0)
(286.925 0 0)
(286.078 0 0)
(285.198 0 0)
(284.286 0 0)
(283.339 0 0)
(282.357 0 0)
(281.338 0 0)
(280.283 0 0)
(279.189 0 0)
(278.056 0 0)
(276.881 0 0)
(275.664 0 0)
(274.402 0 0)
(273.095 0 0)
(271.74 0 0)
(270.335 0 0)
(268.878 0 0)
(267.366 0 0)
(265.796 0 0)
(264.166 0 0)
(262.472 0 0)
(260.711 0 0)
(258.877 0 0)
(256.967 0 0)
(254.975 0 0)
(252.894 0 0)
(250.718 0 0)
(248.438 0 0)
(246.044 0 0)
(243.525 0 0)
(240.866 0 0)
(238.052 0 0)
(235.06 0 0)
(231.866 0 0)
(228.432 0 0)
(224.704 0 0)
(220.619 0 0)
(216.143 0 0)
(211.213 0 0)
(205.247 0 0)
(196.311 0 0)
(181.664 0 0)
(161.289 0 0)
(140.154 0 0)
(123.838 0 0)
(113.786 0 0)
(108.38 0 0)
(105.673 0 0)
(104.397 0 0)
(103.877 0 0)
(103.776 0 0)
(103.92 0 0)
(104.222 0 0)
(104.631 0 0)
(105.116 0 0)
(105.659 0 0)
(106.246 0 0)
(106.87 0 0)
(107.522 0 0)
(108.197 0 0)
(108.893 0 0)
(109.605 0 0)
(110.332 0 0)
(111.07 0 0)
(111.819 0 0)
(112.577 0 0)
(113.342 0 0)
(114.113 0 0)
(114.893 0 0)
(115.667 0 0)
(116.478 0 0)
(117.188 0 0)
(118.227 0 0)
(290.725 0 0)
(290.05 0 0)
(289.347 0 0)
(288.617 0 0)
(287.857 0 0)
(287.069 0 0)
(286.25 0 0)
(285.401 0 0)
(284.52 0 0)
(283.607 0 0)
(282.661 0 0)
(281.681 0 0)
(280.665 0 0)
(279.614 0 0)
(278.525 0 0)
(277.397 0 0)
(276.229 0 0)
(275.021 0 0)
(273.769 0 0)
(272.472 0 0)
(271.129 0 0)
(269.738 0 0)
(268.296 0 0)
(266.8 0 0)
(265.249 0 0)
(263.639 0 0)
(261.968 0 0)
(260.23 0 0)
(258.423 0 0)
(256.541 0 0)
(254.58 0 0)
(252.534 0 0)
(250.395 0 0)
(248.156 0 0)
(245.808 0 0)
(243.339 0 0)
(240.737 0 0)
(237.985 0 0)
(235.064 0 0)
(231.95 0 0)
(228.61 0 0)
(224.995 0 0)
(221.042 0 0)
(216.71 0 0)
(211.964 0 0)
(206.426 0 0)
(198.554 0 0)
(185.604 0 0)
(166.489 0 0)
(145.051 0 0)
(127.291 0 0)
(115.787 0 0)
(109.415 0 0)
(106.164 0 0)
(104.591 0 0)
(103.901 0 0)
(103.692 0 0)
(103.763 0 0)
(104.008 0 0)
(104.369 0 0)
(104.813 0 0)
(105.318 0 0)
(105.871 0 0)
(106.462 0 0)
(107.083 0 0)
(107.729 0 0)
(108.395 0 0)
(109.079 0 0)
(109.778 0 0)
(110.49 0 0)
(111.212 0 0)
(111.943 0 0)
(112.683 0 0)
(113.428 0 0)
(114.183 0 0)
(114.932 0 0)
(115.718 0 0)
(116.405 0 0)
(117.411 0 0)
(290.077 0 0)
(289.395 0 0)
(288.687 0 0)
(287.952 0 0)
(287.188 0 0)
(286.397 0 0)
(285.576 0 0)
(284.726 0 0)
(283.844 0 0)
(282.932 0 0)
(281.987 0 0)
(281.009 0 0)
(279.997 0 0)
(278.95 0 0)
(277.867 0 0)
(276.746 0 0)
(275.586 0 0)
(274.385 0 0)
(273.144 0 0)
(271.858 0 0)
(270.528 0 0)
(269.15 0 0)
(267.723 0 0)
(266.245 0 0)
(264.712 0 0)
(263.122 0 0)
(261.472 0 0)
(259.758 0 0)
(257.977 0 0)
(256.124 0 0)
(254.194 0 0)
(252.181 0 0)
(250.08 0 0)
(247.881 0 0)
(245.578 0 0)
(243.158 0 0)
(240.61 0 0)
(237.92 0 0)
(235.068 0 0)
(232.031 0 0)
(228.782 0 0)
(225.275 0 0)
(221.45 0 0)
(217.258 0 0)
(212.676 0 0)
(207.476 0 0)
(200.487 0 0)
(189.151 0 0)
(171.561 0 0)
(150.245 0 0)
(131.205 0 0)
(118.153 0 0)
(110.673 0 0)
(106.78 0 0)
(104.857 0 0)
(103.971 0 0)
(103.643 0 0)
(103.632 0 0)
(103.817 0 0)
(104.129 0 0)
(104.531 0 0)
(104.999 0 0)
(105.517 0 0)
(106.075 0 0)
(106.665 0 0)
(107.281 0 0)
(107.919 0 0)
(108.576 0 0)
(109.247 0 0)
(109.932 0 0)
(110.628 0 0)
(111.334 0 0)
(112.048 0 0)
(112.768 0 0)
(113.498 0 0)
(114.223 0 0)
(114.983 0 0)
(115.65 0 0)
(116.622 0 0)
(289.426 0 0)
(288.738 0 0)
(288.025 0 0)
(287.286 0 0)
(286.52 0 0)
(285.726 0 0)
(284.904 0 0)
(284.053 0 0)
(283.172 0 0)
(282.261 0 0)
(281.318 0 0)
(280.343 0 0)
(279.335 0 0)
(278.293 0 0)
(277.216 0 0)
(276.101 0 0)
(274.95 0 0)
(273.759 0 0)
(272.527 0 0)
(271.253 0 0)
(269.935 0 0)
(268.572 0 0)
(267.16 0 0)
(265.698 0 0)
(264.184 0 0)
(262.614 0 0)
(260.986 0 0)
(259.296 0 0)
(257.541 0 0)
(255.716 0 0)
(253.816 0 0)
(251.837 0 0)
(249.772 0 0)
(247.613 0 0)
(245.353 0 0)
(242.981 0 0)
(240.487 0 0)
(237.856 0 0)
(235.07 0 0)
(232.11 0 0)
(228.947 0 0)
(225.543 0 0)
(221.841 0 0)
(217.787 0 0)
(213.357 0 0)
(208.425 0 0)
(202.149 0 0)
(192.283 0 0)
(176.396 0 0)
(155.643 0 0)
(135.579 0 0)
(120.932 0 0)
(112.194 0 0)
(107.546 0 0)
(105.209 0 0)
(104.094 0 0)
(103.63 0 0)
(103.531 0 0)
(103.651 0 0)
(103.912 0 0)
(104.271 0 0)
(104.7 0 0)
(105.184 0 0)
(105.709 0 0)
(106.268 0 0)
(106.855 0 0)
(107.465 0 0)
(108.094 0 0)
(108.738 0 0)
(109.397 0 0)
(110.067 0 0)
(110.748 0 0)
(111.437 0 0)
(112.133 0 0)
(112.838 0 0)
(113.539 0 0)
(114.274 0 0)
(114.921 0 0)
(115.86 0 0)
(288.771 0 0)
(288.079 0 0)
(287.363 0 0)
(286.62 0 0)
(285.852 0 0)
(285.057 0 0)
(284.234 0 0)
(283.383 0 0)
(282.504 0 0)
(281.594 0 0)
(280.655 0 0)
(279.683 0 0)
(278.68 0 0)
(277.643 0 0)
(276.572 0 0)
(275.465 0 0)
(274.322 0 0)
(273.14 0 0)
(271.919 0 0)
(270.657 0 0)
(269.352 0 0)
(268.002 0 0)
(266.606 0 0)
(265.161 0 0)
(263.665 0 0)
(262.116 0 0)
(260.509 0 0)
(258.843 0 0)
(257.113 0 0)
(255.316 0 0)
(253.447 0 0)
(251.5 0 0)
(249.471 0 0)
(247.351 0 0)
(245.134 0 0)
(242.809 0 0)
(240.367 0 0)
(237.793 0 0)
(235.073 0 0)
(232.185 0 0)
(229.106 0 0)
(225.8 0 0)
(222.216 0 0)
(218.297 0 0)
(214.013 0 0)
(209.299 0 0)
(203.585 0 0)
(195.007 0 0)
(180.899 0 0)
(161.13 0 0)
(140.392 0 0)
(124.165 0 0)
(114.025 0 0)
(108.489 0 0)
(105.661 0 0)
(104.277 0 0)
(103.658 0 0)
(103.46 0 0)
(103.51 0 0)
(103.717 0 0)
(104.032 0 0)
(104.422 0 0)
(104.871 0 0)
(105.364 0 0)
(105.892 0 0)
(106.45 0 0)
(107.031 0 0)
(107.633 0 0)
(108.251 0 0)
(108.884 0 0)
(109.529 0 0)
(110.185 0 0)
(110.849 0 0)
(111.521 0 0)
(112.202 0 0)
(112.88 0 0)
(113.591 0 0)
(114.217 0 0)
(115.125 0 0)
(288.115 0 0)
(287.419 0 0)
(286.7 0 0)
(285.956 0 0)
(285.186 0 0)
(284.39 0 0)
(283.568 0 0)
(282.718 0 0)
(281.84 0 0)
(280.933 0 0)
(279.996 0 0)
(279.029 0 0)
(278.031 0 0)
(277 0 0)
(275.936 0 0)
(274.837 0 0)
(273.702 0 0)
(272.53 0 0)
(271.32 0 0)
(270.07 0 0)
(268.778 0 0)
(267.442 0 0)
(266.062 0 0)
(264.634 0 0)
(263.156 0 0)
(261.627 0 0)
(260.042 0 0)
(258.399 0 0)
(256.695 0 0)
(254.925 0 0)
(253.085 0 0)
(251.171 0 0)
(249.176 0 0)
(247.095 0 0)
(244.92 0 0)
(242.641 0 0)
(240.25 0 0)
(237.732 0 0)
(235.075 0 0)
(232.257 0 0)
(229.259 0 0)
(226.047 0 0)
(222.576 0 0)
(218.788 0 0)
(214.644 0 0)
(210.114 0 0)
(204.836 0 0)
(197.347 0 0)
(184.996 0 0)
(166.577 0 0)
(145.591 0 0)
(127.886 0 0)
(116.215 0 0)
(109.646 0 0)
(106.232 0 0)
(104.53 0 0)
(103.73 0 0)
(103.421 0 0)
(103.396 0 0)
(103.546 0 0)
(103.814 0 0)
(104.165 0 0)
(104.578 0 0)
(105.038 0 0)
(105.536 0 0)
(106.065 0 0)
(106.618 0 0)
(107.193 0 0)
(107.785 0 0)
(108.393 0 0)
(109.013 0 0)
(109.644 0 0)
(110.285 0 0)
(110.932 0 0)
(111.59 0 0)
(112.245 0 0)
(112.932 0 0)
(113.538 0 0)
(114.415 0 0)
(287.457 0 0)
(286.759 0 0)
(286.038 0 0)
(285.292 0 0)
(284.522 0 0)
(283.726 0 0)
(282.905 0 0)
(282.056 0 0)
(281.181 0 0)
(280.277 0 0)
(279.344 0 0)
(278.382 0 0)
(277.389 0 0)
(276.364 0 0)
(275.307 0 0)
(274.216 0 0)
(273.091 0 0)
(271.929 0 0)
(270.73 0 0)
(269.491 0 0)
(268.213 0 0)
(266.892 0 0)
(265.527 0 0)
(264.116 0 0)
(262.657 0 0)
(261.147 0 0)
(259.584 0 0)
(257.964 0 0)
(256.285 0 0)
(254.542 0 0)
(252.732 0 0)
(250.849 0 0)
(248.889 0 0)
(246.846 0 0)
(244.711 0 0)
(242.478 0 0)
(240.135 0 0)
(237.673 0 0)
(235.076 0 0)
(232.327 0 0)
(229.406 0 0)
(226.284 0 0)
(222.92 0 0)
(219.258 0 0)
(215.254 0 0)
(210.885 0 0)
(205.943 0 0)
(199.342 0 0)
(188.643 0 0)
(171.852 0 0)
(151.091 0 0)
(132.112 0 0)
(118.817 0 0)
(111.056 0 0)
(106.945 0 0)
(104.863 0 0)
(103.853 0 0)
(103.418 0 0)
(103.309 0 0)
(103.399 0 0)
(103.619 0 0)
(103.929 0 0)
(104.306 0 0)
(104.733 0 0)
(105.201 0 0)
(105.7 0 0)
(106.226 0 0)
(106.774 0 0)
(107.34 0 0)
(107.923 0 0)
(108.518 0 0)
(109.125 0 0)
(109.742 0 0)
(110.367 0 0)
(111.001 0 0)
(111.634 0 0)
(112.298 0 0)
(112.884 0 0)
(113.73 0 0)
(286.8 0 0)
(286.1 0 0)
(285.378 0 0)
(284.632 0 0)
(283.861 0 0)
(283.066 0 0)
(282.246 0 0)
(281.4 0 0)
(280.527 0 0)
(279.627 0 0)
(278.699 0 0)
(277.741 0 0)
(276.754 0 0)
(275.736 0 0)
(274.687 0 0)
(273.604 0 0)
(272.488 0 0)
(271.336 0 0)
(270.148 0 0)
(268.923 0 0)
(267.657 0 0)
(266.351 0 0)
(265.002 0 0)
(263.608 0 0)
(262.167 0 0)
(260.677 0 0)
(259.135 0 0)
(257.538 0 0)
(255.883 0 0)
(254.167 0 0)
(252.386 0 0)
(250.535 0 0)
(248.609 0 0)
(246.602 0 0)
(244.507 0 0)
(242.318 0 0)
(240.024 0 0)
(237.614 0 0)
(235.077 0 0)
(232.394 0 0)
(229.547 0 0)
(226.511 0 0)
(223.249 0 0)
(219.71 0 0)
(215.841 0 0)
(211.622 0 0)
(206.941 0 0)
(201.042 0 0)
(191.825 0 0)
(176.83 0 0)
(156.777 0 0)
(136.835 0 0)
(121.883 0 0)
(112.768 0 0)
(107.83 0 0)
(105.293 0 0)
(104.034 0 0)
(103.454 0 0)
(103.253 0 0)
(103.277 0 0)
(103.446 0 0)
(103.714 0 0)
(104.054 0 0)
(104.448 0 0)
(104.884 0 0)
(105.355 0 0)
(105.853 0 0)
(106.375 0 0)
(106.916 0 0)
(107.473 0 0)
(108.045 0 0)
(108.628 0 0)
(109.222 0 0)
(109.823 0 0)
(110.435 0 0)
(111.045 0 0)
(111.687 0 0)
(112.254 0 0)
(113.07 0 0)
(286.144 0 0)
(285.443 0 0)
(284.72 0 0)
(283.974 0 0)
(283.204 0 0)
(282.411 0 0)
(281.592 0 0)
(280.749 0 0)
(279.88 0 0)
(278.983 0 0)
(278.06 0 0)
(277.108 0 0)
(276.127 0 0)
(275.116 0 0)
(274.075 0 0)
(273.001 0 0)
(271.894 0 0)
(270.753 0 0)
(269.576 0 0)
(268.363 0 0)
(267.111 0 0)
(265.819 0 0)
(264.486 0 0)
(263.109 0 0)
(261.686 0 0)
(260.215 0 0)
(258.695 0 0)
(257.121 0 0)
(255.491 0 0)
(253.801 0 0)
(252.048 0 0)
(250.228 0 0)
(248.335 0 0)
(246.364 0 0)
(244.309 0 0)
(242.162 0 0)
(239.915 0 0)
(237.557 0 0)
(235.077 0 0)
(232.459 0 0)
(229.684 0 0)
(226.73 0 0)
(223.565 0 0)
(220.142 0 0)
(216.405 0 0)
(212.328 0 0)
(207.858 0 0)
(202.499 0 0)
(194.556 0 0)
(181.406 0 0)
(162.51 0 0)
(142.019 0 0)
(125.458 0 0)
(114.836 0 0)
(108.921 0 0)
(105.839 0 0)
(104.283 0 0)
(103.534 0 0)
(103.228 0 0)
(103.181 0 0)
(103.296 0 0)
(103.52 0 0)
(103.822 0 0)
(104.182 0 0)
(104.588 0 0)
(105.03 0 0)
(105.501 0 0)
(105.996 0 0)
(106.512 0 0)
(107.044 0 0)
(107.592 0 0)
(108.152 0 0)
(108.722 0 0)
(109.302 0 0)
(109.891 0 0)
(110.48 0 0)
(111.098 0 0)
(111.647 0 0)
(112.434 0 0)
(285.489 0 0)
(284.788 0 0)
(284.065 0 0)
(283.319 0 0)
(282.551 0 0)
(281.76 0 0)
(280.944 0 0)
(280.104 0 0)
(279.238 0 0)
(278.346 0 0)
(277.428 0 0)
(276.482 0 0)
(275.508 0 0)
(274.505 0 0)
(273.471 0 0)
(272.406 0 0)
(271.309 0 0)
(270.179 0 0)
(269.013 0 0)
(267.813 0 0)
(266.574 0 0)
(265.297 0 0)
(263.979 0 0)
(262.619 0 0)
(261.215 0 0)
(259.764 0 0)
(258.264 0 0)
(256.712 0 0)
(255.106 0 0)
(253.443 0 0)
(251.718 0 0)
(249.928 0 0)
(248.067 0 0)
(246.132 0 0)
(244.115 0 0)
(242.01 0 0)
(239.809 0 0)
(237.502 0 0)
(235.077 0 0)
(232.521 0 0)
(229.816 0 0)
(226.941 0 0)
(223.868 0 0)
(220.555 0 0)
(216.947 0 0)
(213.009 0 0)
(208.714 0 0)
(203.764 0 0)
(196.871 0 0)
(185.51 0 0)
(168.137 0 0)
(147.586 0 0)
(129.573 0 0)
(117.319 0 0)
(110.26 0 0)
(106.522 0 0)
(104.61 0 0)
(103.663 0 0)
(103.238 0 0)
(103.112 0 0)
(103.169 0 0)
(103.347 0 0)
(103.61 0 0)
(103.936 0 0)
(104.311 0 0)
(104.723 0 0)
(105.167 0 0)
(105.636 0 0)
(106.127 0 0)
(106.635 0 0)
(107.159 0 0)
(107.696 0 0)
(108.244 0 0)
(108.801 0 0)
(109.369 0 0)
(109.936 0 0)
(110.533 0 0)
(111.063 0 0)
(111.822 0 0)
(284.837 0 0)
(284.136 0 0)
(283.413 0 0)
(282.669 0 0)
(281.903 0 0)
(281.114 0 0)
(280.301 0 0)
(279.465 0 0)
(278.603 0 0)
(277.716 0 0)
(276.804 0 0)
(275.864 0 0)
(274.897 0 0)
(273.901 0 0)
(272.876 0 0)
(271.82 0 0)
(270.733 0 0)
(269.613 0 0)
(268.46 0 0)
(267.272 0 0)
(266.047 0 0)
(264.784 0 0)
(263.482 0 0)
(262.139 0 0)
(260.752 0 0)
(259.321 0 0)
(257.841 0 0)
(256.312 0 0)
(254.73 0 0)
(253.092 0 0)
(251.395 0 0)
(249.634 0 0)
(247.806 0 0)
(245.905 0 0)
(243.926 0 0)
(241.862 0 0)
(239.705 0 0)
(237.447 0 0)
(235.076 0 0)
(232.58 0 0)
(229.943 0 0)
(227.144 0 0)
(224.159 0 0)
(220.95 0 0)
(217.466 0 0)
(213.664 0 0)
(209.523 0 0)
(204.884 0 0)
(198.825 0 0)
(189.102 0 0)
(173.506 0 0)
(153.423 0 0)
(134.234 0 0)
(120.275 0 0)
(111.899 0 0)
(107.374 0 0)
(105.032 0 0)
(103.85 0 0)
(103.287 0 0)
(103.072 0 0)
(103.066 0 0)
(103.196 0 0)
(103.419 0 0)
(103.71 0 0)
(104.053 0 0)
(104.436 0 0)
(104.853 0 0)
(105.296 0 0)
(105.761 0 0)
(106.246 0 0)
(106.746 0 0)
(107.26 0 0)
(107.786 0 0)
(108.322 0 0)
(108.868 0 0)
(109.414 0 0)
(109.989 0 0)
(110.501 0 0)
(111.232 0 0)
(284.188 0 0)
(283.487 0 0)
(282.766 0 0)
(282.024 0 0)
(281.26 0 0)
(280.474 0 0)
(279.665 0 0)
(278.832 0 0)
(277.975 0 0)
(277.094 0 0)
(276.187 0 0)
(275.254 0 0)
(274.294 0 0)
(273.306 0 0)
(272.289 0 0)
(271.243 0 0)
(270.166 0 0)
(269.057 0 0)
(267.916 0 0)
(266.74 0 0)
(265.529 0 0)
(264.281 0 0)
(262.994 0 0)
(261.668 0 0)
(260.299 0 0)
(258.887 0 0)
(257.428 0 0)
(255.921 0 0)
(254.362 0 0)
(252.75 0 0)
(251.08 0 0)
(249.348 0 0)
(247.551 0 0)
(245.684 0 0)
(243.742 0 0)
(241.718 0 0)
(239.605 0 0)
(237.394 0 0)
(235.075 0 0)
(232.637 0 0)
(230.065 0 0)
(227.34 0 0)
(224.439 0 0)
(221.329 0 0)
(217.963 0 0)
(214.293 0 0)
(210.297 0 0)
(205.895 0 0)
(200.477 0 0)
(192.184 0 0)
(178.485 0 0)
(159.383 0 0)
(139.416 0 0)
(123.759 0 0)
(113.895 0 0)
(108.429 0 0)
(105.567 0 0)
(104.102 0 0)
(103.378 0 0)
(103.063 0 0)
(102.989 0 0)
(103.067 0 0)
(103.248 0 0)
(103.503 0 0)
(103.814 0 0)
(104.168 0 0)
(104.557 0 0)
(104.974 0 0)
(105.415 0 0)
(105.876 0 0)
(106.353 0 0)
(106.845 0 0)
(107.349 0 0)
(107.863 0 0)
(108.387 0 0)
(108.914 0 0)
(109.467 0 0)
(109.961 0 0)
(110.665 0 0)
(283.542 0 0)
(282.843 0 0)
(282.124 0 0)
(281.384 0 0)
(280.622 0 0)
(279.84 0 0)
(279.034 0 0)
(278.206 0 0)
(277.354 0 0)
(276.479 0 0)
(275.578 0 0)
(274.652 0 0)
(273.699 0 0)
(272.719 0 0)
(271.711 0 0)
(270.674 0 0)
(269.608 0 0)
(268.51 0 0)
(267.381 0 0)
(266.218 0 0)
(265.02 0 0)
(263.787 0 0)
(262.516 0 0)
(261.206 0 0)
(259.855 0 0)
(258.462 0 0)
(257.023 0 0)
(255.538 0 0)
(254.003 0 0)
(252.415 0 0)
(250.771 0 0)
(249.069 0 0)
(247.303 0 0)
(245.469 0 0)
(243.562 0 0)
(241.577 0 0)
(239.506 0 0)
(237.342 0 0)
(235.074 0 0)
(232.692 0 0)
(230.183 0 0)
(227.528 0 0)
(224.707 0 0)
(221.691 0 0)
(218.438 0 0)
(214.897 0 0)
(211.039 0 0)
(206.828 0 0)
(201.889 0 0)
(194.786 0 0)
(182.974 0 0)
(165.296 0 0)
(145.05 0 0)
(127.815 0 0)
(116.311 0 0)
(109.733 0 0)
(106.24 0 0)
(104.433 0 0)
(103.519 0 0)
(103.089 0 0)
(102.939 0 0)
(102.961 0 0)
(103.098 0 0)
(103.316 0 0)
(103.594 0 0)
(103.918 0 0)
(104.28 0 0)
(104.671 0 0)
(105.087 0 0)
(105.524 0 0)
(105.979 0 0)
(106.448 0 0)
(106.931 0 0)
(107.423 0 0)
(107.927 0 0)
(108.433 0 0)
(108.966 0 0)
(109.443 0 0)
(110.12 0 0)
(282.901 0 0)
(282.203 0 0)
(281.486 0 0)
(280.749 0 0)
(279.991 0 0)
(279.212 0 0)
(278.411 0 0)
(277.587 0 0)
(276.741 0 0)
(275.871 0 0)
(274.977 0 0)
(274.058 0 0)
(273.113 0 0)
(272.141 0 0)
(271.142 0 0)
(270.115 0 0)
(269.059 0 0)
(267.973 0 0)
(266.855 0 0)
(265.705 0 0)
(264.521 0 0)
(263.302 0 0)
(262.047 0 0)
(260.753 0 0)
(259.42 0 0)
(258.046 0 0)
(256.627 0 0)
(255.163 0 0)
(253.651 0 0)
(252.088 0 0)
(250.47 0 0)
(248.796 0 0)
(247.06 0 0)
(245.259 0 0)
(243.387 0 0)
(241.44 0 0)
(239.41 0 0)
(237.291 0 0)
(235.073 0 0)
(232.745 0 0)
(230.296 0 0)
(227.709 0 0)
(224.965 0 0)
(222.039 0 0)
(218.892 0 0)
(215.476 0 0)
(211.752 0 0)
(207.703 0 0)
(203.119 0 0)
(196.963 0 0)
(186.912 0 0)
(170.986 0 0)
(151.023 0 0)
(132.459 0 0)
(119.214 0 0)
(111.338 0 0)
(107.08 0 0)
(104.858 0 0)
(103.716 0 0)
(103.153 0 0)
(102.917 0 0)
(102.879 0 0)
(102.969 0 0)
(103.148 0 0)
(103.393 0 0)
(103.687 0 0)
(104.021 0 0)
(104.386 0 0)
(104.778 0 0)
(105.192 0 0)
(105.624 0 0)
(106.071 0 0)
(106.532 0 0)
(107.004 0 0)
(107.487 0 0)
(107.973 0 0)
(108.486 0 0)
(108.945 0 0)
(109.596 0 0)
(282.264 0 0)
(281.569 0 0)
(280.854 0 0)
(280.12 0 0)
(279.366 0 0)
(278.591 0 0)
(277.794 0 0)
(276.976 0 0)
(276.136 0 0)
(275.272 0 0)
(274.384 0 0)
(273.472 0 0)
(272.535 0 0)
(271.572 0 0)
(270.583 0 0)
(269.565 0 0)
(268.519 0 0)
(267.444 0 0)
(266.338 0 0)
(265.201 0 0)
(264.031 0 0)
(262.827 0 0)
(261.587 0 0)
(260.31 0 0)
(258.994 0 0)
(257.638 0 0)
(256.24 0 0)
(254.797 0 0)
(253.307 0 0)
(251.768 0 0)
(250.177 0 0)
(248.529 0 0)
(246.823 0 0)
(245.054 0 0)
(243.217 0 0)
(241.306 0 0)
(239.317 0 0)
(237.241 0 0)
(235.071 0 0)
(232.796 0 0)
(230.405 0 0)
(227.884 0 0)
(225.214 0 0)
(222.372 0 0)
(219.326 0 0)
(216.029 0 0)
(212.437 0 0)
(208.534 0 0)
(204.215 0 0)
(198.784 0 0)
(190.285 0 0)
(176.292 0 0)
(157.18 0 0)
(137.675 0 0)
(122.667 0 0)
(113.306 0 0)
(108.126 0 0)
(105.397 0 0)
(103.98 0 0)
(103.26 0 0)
(102.927 0 0)
(102.822 0 0)
(102.862 0 0)
(103.001 0 0)
(103.211 0 0)
(103.475 0 0)
(103.78 0 0)
(104.12 0 0)
(104.487 0 0)
(104.877 0 0)
(105.287 0 0)
(105.712 0 0)
(106.152 0 0)
(106.603 0 0)
(107.067 0 0)
(107.533 0 0)
(108.025 0 0)
(108.467 0 0)
(109.093 0 0)
(281.632 0 0)
(280.939 0 0)
(280.228 0 0)
(279.498 0 0)
(278.748 0 0)
(277.977 0 0)
(277.185 0 0)
(276.373 0 0)
(275.538 0 0)
(274.68 0 0)
(273.8 0 0)
(272.895 0 0)
(271.966 0 0)
(271.012 0 0)
(270.032 0 0)
(269.024 0 0)
(267.989 0 0)
(266.925 0 0)
(265.831 0 0)
(264.707 0 0)
(263.55 0 0)
(262.36 0 0)
(261.136 0 0)
(259.875 0 0)
(258.577 0 0)
(257.24 0 0)
(255.861 0 0)
(254.439 0 0)
(252.971 0 0)
(251.456 0 0)
(249.89 0 0)
(248.27 0 0)
(246.592 0 0)
(244.854 0 0)
(243.05 0 0)
(241.176 0 0)
(239.226 0 0)
(237.193 0 0)
(235.069 0 0)
(232.845 0 0)
(230.511 0 0)
(228.052 0 0)
(225.453 0 0)
(222.692 0 0)
(219.741 0 0)
(216.557 0 0)
(213.095 0 0)
(209.329 0 0)
(205.214 0 0)
(200.32 0 0)
(193.12 0 0)
(181.088 0 0)
(163.332 0 0)
(143.399 0 0)
(126.722 0 0)
(115.706 0 0)
(109.425 0 0)
(106.075 0 0)
(104.323 0 0)
(103.416 0 0)
(102.971 0 0)
(102.792 0 0)
(102.778 0 0)
(102.874 0 0)
(103.048 0 0)
(103.28 0 0)
(103.558 0 0)
(103.871 0 0)
(104.214 0 0)
(104.58 0 0)
(104.968 0 0)
(105.372 0 0)
(105.791 0 0)
(106.221 0 0)
(106.665 0 0)
(107.112 0 0)
(107.584 0 0)
(108.01 0 0)
(108.61 0 0)
(281.006 0 0)
(280.316 0 0)
(279.609 0 0)
(278.882 0 0)
(278.136 0 0)
(277.37 0 0)
(276.584 0 0)
(275.777 0 0)
(274.948 0 0)
(274.097 0 0)
(273.224 0 0)
(272.327 0 0)
(271.407 0 0)
(270.461 0 0)
(269.49 0 0)
(268.493 0 0)
(267.468 0 0)
(266.415 0 0)
(265.334 0 0)
(264.222 0 0)
(263.079 0 0)
(261.903 0 0)
(260.694 0 0)
(259.45 0 0)
(258.169 0 0)
(256.849 0 0)
(255.49 0 0)
(254.089 0 0)
(252.643 0 0)
(251.151 0 0)
(249.609 0 0)
(248.016 0 0)
(246.367 0 0)
(244.659 0 0)
(242.888 0 0)
(241.049 0 0)
(239.137 0 0)
(237.145 0 0)
(235.066 0 0)
(232.892 0 0)
(230.613 0 0)
(228.215 0 0)
(225.683 0 0)
(223 0 0)
(220.138 0 0)
(217.062 0 0)
(213.724 0 0)
(210.091 0 0)
(206.144 0 0)
(201.641 0 0)
(195.475 0 0)
(185.296 0 0)
(169.282 0 0)
(149.516 0 0)
(131.406 0 0)
(118.613 0 0)
(111.033 0 0)
(106.924 0 0)
(104.761 0 0)
(103.63 0 0)
(103.053 0 0)
(102.79 0 0)
(102.717 0 0)
(102.768 0 0)
(102.904 0 0)
(103.105 0 0)
(103.353 0 0)
(103.64 0 0)
(103.958 0 0)
(104.302 0 0)
(104.666 0 0)
(105.049 0 0)
(105.447 0 0)
(105.858 0 0)
(106.282 0 0)
(106.71 0 0)
(107.163 0 0)
(107.572 0 0)
(108.148 0 0)
(280.386 0 0)
(279.7 0 0)
(278.996 0 0)
(278.273 0 0)
(277.532 0 0)
(276.771 0 0)
(275.99 0 0)
(275.189 0 0)
(274.367 0 0)
(273.523 0 0)
(272.657 0 0)
(271.768 0 0)
(270.856 0 0)
(269.919 0 0)
(268.957 0 0)
(267.97 0 0)
(266.956 0 0)
(265.915 0 0)
(264.845 0 0)
(263.746 0 0)
(262.617 0 0)
(261.455 0 0)
(260.261 0 0)
(259.033 0 0)
(257.769 0 0)
(256.468 0 0)
(255.127 0 0)
(253.746 0 0)
(252.322 0 0)
(250.853 0 0)
(249.336 0 0)
(247.768 0 0)
(246.147 0 0)
(244.469 0 0)
(242.73 0 0)
(240.925 0 0)
(239.05 0 0)
(237.099 0 0)
(235.064 0 0)
(232.938 0 0)
(230.711 0 0)
(228.371 0 0)