/*--------------------------------*- C++ -*----------------------------------*\
| =========                 |                                                 |
| \\      /  F ield         | OpenFOAM: The Open Source CFD Toolbox           |
|  \\    /   O peration     | Version:  2312                                  |
|   \\  /    A nd           | Website:  www.openfoam.com                      |
|    \\/     M anipulation  |                                                 |
\*---------------------------------------------------------------------------*/
FoamFile
{
    version     2.0;
    format      ascii;
    arch        "LSB;label=32;scalar=64";
    class       volScalarField;
    location    "0.2";
    object      wave;
}
// * * * * * * * * * * * * * * * * * * * * * * * * * * * * * * * * * * * * * //

dimensions      [0 0 0 0 0 0 0];

internalField   nonuniform List<scalar> 
100
(
0.275715
0.424129
0.561887
0.68553
0.791951
0.878477
0.942933
0.9837
0.999755
0.990694
0.956744
0.898759
0.818195
0.717076
0.597942
0.463787
0.317981
0.164186
0.00626619
-0.151811
-0.306074
-0.452648
-0.58785
-0.708285
-0.810925
-0.893194
-0.953023
-0.98891
-0.999954
-0.985877
-0.947032
-0.884395
-0.799541
-0.694601
-0.57221
-0.435444
-0.287739
-0.132806
0.0254642
0.183095
0.336125
0.480711
0.613221
0.730326
0.829082
0.907011
0.962153
0.993124
0.999146
0.980067
0.936366
0.869142
0.780082
0.671426
0.545902
0.406663
0.257209
0.101292
-0.057169
-0.214194
-0.365838
-0.508291
-0.637975
-0.751631
-0.846405
-0.919915
-0.970315
-0.996339
-0.997332
-0.97327
-0.924757
-0.853013
-0.759838
-0.647575
-0.519044
-0.377473
-0.226419
-0.0696764
0.0888162
0.245078
0.395182
0.535359
0.662086
0.77218
0.862875
0.931893
0.9775
0.99855
0.994514
0.965493
0.912217
0.836025
0.738829
0.623073
0.491663
0.347902
0.195401
0.0379906
-0.120374
-0.275714
)
;

boundaryField
{
    movingWall
    {
        type            calculated;
        value           uniform 0;
    }
    fixedWalls
    {
        type            calculated;
        value           uniform 0;
    }
    frontAndBack
    {
        type            empty;
    }
}


// ************************************************************************* //
