/*--------------------------------*- C++ -*----------------------------------*\
| =========                 |                                                 |
| \\      /  F ield         | OpenFOAM: The Open Source CFD Toolbox           |
|  \\    /   O peration     | Version:  2206                                  |
|   \\  /    A nd           | Website:  www.openfoam.com                      |
|    \\/     M anipulation  |                                                 |
\*---------------------------------------------------------------------------*/
FoamFile
{
    version     2.0;
    format      ascii;
    arch        "LSB;label=32;scalar=64";
    class       volScalarField;
    location    "2.25";
    object      wave;
}
// * * * * * * * * * * * * * * * * * * * * * * * * * * * * * * * * * * * * * //

dimensions      [0 0 0 0 0 0 0];

internalField   nonuniform List<scalar> 
100
(
0.725843
0.608043
0.474967
0.329959
0.176662
0.0189269
-0.139284
-0.293996
-0.441322
-0.57756
-0.69929
-0.803451
-0.887428
-0.949111
-0.986951
-0.999995
-0.987918
-0.951022
-0.890234
-0.807082
-0.703653
-0.582548
-0.446808
-0.299842
-0.145344
0.0128048
0.170632
0.324173
0.46957
0.603171
0.721618
0.821937
0.901606
0.958626
0.991563
0.999589
0.982503
0.940735
0.875334
0.787942
0.680755
0.556466
0.418198
0.269423
0.11388
-0.0445236
-0.201809
-0.354025
-0.497346
-0.628174
-0.74322
-0.839594
-0.914877
-0.967175
-0.995176
-0.998176
-0.9761
-0.929501
-0.859552
-0.768009
-0.657171
-0.529824
-0.389167
-0.238733
-0.0823015
0.0761976
0.232783
0.383519
0.524621
0.652544
0.764073
0.856407
0.927226
0.974751
0.997788
0.995758
0.968713
0.917332
0.842905
0.747302
0.632926
0.502649
0.359745
0.207802
0.0506398
-0.107795
-0.263522
-0.412628
-0.551368
-0.676257
-0.784157
-0.872357
-0.938641
-0.981345
-0.999395
-0.992338
-0.960351
-0.904238
-0.825409
-0.725843
)
;

boundaryField
{
    movingWall
    {
        type            calculated;
        value           uniform 0;
    }
    fixedWalls
    {
        type            calculated;
        value           uniform 0;
    }
    frontAndBack
    {
        type            empty;
    }
}


// ************************************************************************* //
