/*--------------------------------*- C++ -*----------------------------------*\
| =========                 |                                                 |
| \\      /  F ield         | OpenFOAM: The Open Source CFD Toolbox           |
|  \\    /   O peration     | Version:  2312                                  |
|   \\  /    A nd           | Website:  www.openfoam.com                      |
|    \\/     M anipulation  |                                                 |
\*---------------------------------------------------------------------------*/
FoamFile
{
    version     2.0;
    format      ascii;
    arch        "LSB;label=32;scalar=64";
    class       volVectorField;
    location    "1.8";
    object      flux;
}
// * * * * * * * * * * * * * * * * * * * * * * * * * * * * * * * * * * * * * //

dimensions      [0 1 -1 1 0 0 0];

internalField   nonuniform List<vector> 
100
(
(3.55439 0 0)
(3.65447 0 0)
(3.73902 0 0)
(3.8089 0 0)
(3.86495 0 0)
(3.90797 0 0)
(3.93875 0 0)
(3.95806 0 0)
(3.96662 0 0)
(3.96516 0 0)
(3.95437 0 0)
(3.9349 0 0)
(3.90741 0 0)
(3.8725 0 0)
(3.83077 0 0)
(3.78279 0 0)
(3.7291 0 0)
(3.67022 0 0)
(3.60666 0 0)
(3.53888 0 0)
(3.46734 0 0)
(3.39248 0 0)
(3.3147 0 0)
(3.23439 0 0)
(3.15193 0 0)
(3.06766 0 0)
(2.98191 0 0)
(2.895 0 0)
(2.80721 0 0)
(2.71883 0 0)
(2.63011 0 0)
(2.54129 0 0)
(2.45259 0 0)
(2.36424 0 0)
(2.27642 0 0)
(2.18931 0 0)
(2.10308 0 0)
(2.01789 0 0)
(1.93387 0 0)
(1.85116 0 0)
(1.76986 0 0)
(1.69009 0 0)
(1.61194 0 0)
(1.53549 0 0)
(1.46083 0 0)
(1.38801 0 0)
(1.31709 0 0)
(1.24813 0 0)
(1.18116 0 0)
(1.11621 0 0)
(1.05331 0 0)
(0.992489 0 0)
(0.933751 0 0)
(0.877107 0 0)
(0.822557 0 0)
(0.7701 0 0)
(0.719727 0 0)
(0.671427 0 0)
(0.625184 0 0)
(0.580976 0 0)
(0.53878 0 0)
(0.49857 0 0)
(0.460314 0 0)
(0.423981 0 0)
(0.389534 0 0)
(0.356937 0 0)
(0.326147 0 0)
(0.297125 0 0)
(0.269826 0 0)
(0.244205 0 0)
(0.220215 0 0)
(0.197808 0 0)
(0.176936 0 0)
(0.157548 0 0)
(0.139593 0 0)
(0.12302 0 0)
(0.107777 0 0)
(0.0938103 0 0)
(0.0810669 0 0)
(0.0694933 0 0)
(0.0590354 0 0)
(0.049639 0 0)
(0.0412497 0 0)
(0.033813 0 0)
(0.0272742 0 0)
(0.0215786 0 0)
(0.0166715 0 0)
(0.0124981 0 0)
(0.00900382 0 0)
(0.00613394 0 0)
(0.00383385 0 0)
(0.00204902 0 0)
(0.00072497 0 0)
(-0.000192714 0 0)
(-0.000758371 0 0)
(-0.00102628 0 0)
(-0.00105066 0 0)
(-0.000885692 0 0)
(-0.000585496 0 0)
(-0.000204178 0 0)
)
;

boundaryField
{
    movingWall
    {
        type            calculated;
        value           uniform (3.50036 0 0);
    }
    fixedWalls
    {
        type            calculated;
        value           nonuniform List<vector> 
201
(
(3.55439 0 0)
(3.65447 0 0)
(3.73902 0 0)
(3.8089 0 0)
(3.86495 0 0)
(3.90797 0 0)
(3.93875 0 0)
(3.95806 0 0)
(3.96662 0 0)
(3.96516 0 0)
(3.95437 0 0)
(3.9349 0 0)
(3.90741 0 0)
(3.8725 0 0)
(3.83077 0 0)
(3.78279 0 0)
(3.7291 0 0)
(3.67022 0 0)
(3.60666 0 0)
(3.53888 0 0)
(3.46734 0 0)
(3.39248 0 0)
(3.3147 0 0)
(3.23439 0 0)
(3.15193 0 0)
(3.06766 0 0)
(2.98191 0 0)
(2.895 0 0)
(2.80721 0 0)
(2.71883 0 0)
(2.63011 0 0)
(2.54129 0 0)
(2.45259 0 0)
(2.36424 0 0)
(2.27642 0 0)
(2.18931 0 0)
(2.10308 0 0)
(2.01789 0 0)
(1.93387 0 0)
(1.85116 0 0)
(1.76986 0 0)
(1.69009 0 0)
(1.61194 0 0)
(1.53549 0 0)
(1.46083 0 0)
(1.38801 0 0)
(1.31709 0 0)
(1.24813 0 0)
(1.18116 0 0)
(1.11621 0 0)
(1.05331 0 0)
(0.992489 0 0)
(0.933751 0 0)
(0.877107 0 0)
(0.822557 0 0)
(0.7701 0 0)
(0.719727 0 0)
(0.671427 0 0)
(0.625184 0 0)
(0.580976 0 0)
(0.53878 0 0)
(0.49857 0 0)
(0.460314 0 0)
(0.423981 0 0)
(0.389534 0 0)
(0.356937 0 0)
(0.326147 0 0)
(0.297125 0 0)
(0.269826 0 0)
(0.244205 0 0)
(0.220215 0 0)
(0.197808 0 0)
(0.176936 0 0)
(0.157548 0 0)
(0.139593 0 0)
(0.12302 0 0)
(0.107777 0 0)
(0.0938103 0 0)
(0.0810669 0 0)
(0.0694933 0 0)
(0.0590354 0 0)
(0.049639 0 0)
(0.0412497 0 0)
(0.033813 0 0)
(0.0272742 0 0)
(0.0215786 0 0)
(0.0166715 0 0)
(0.0124981 0 0)
(0.00900382 0 0)
(0.00613394 0 0)
(0.00383385 0 0)
(0.00204902 0 0)
(0.00072497 0 0)
(-0.000192714 0 0)
(-0.000758371 0 0)
(-0.00102628 0 0)
(-0.00105066 0 0)
(-0.000885692 0 0)
(-0.000585496 0 0)
(-0.000204178 0 0)
(0 0 0)
(3.55439 0 0)
(3.65447 0 0)
(3.73902 0 0)
(3.8089 0 0)
(3.86495 0 0)
(3.90797 0 0)
(3.93875 0 0)
(3.95806 0 0)
(3.96662 0 0)
(3.96516 0 0)
(3.95437 0 0)
(3.9349 0 0)
(3.90741 0 0)
(3.8725 0 0)
(3.83077 0 0)
(3.78279 0 0)
(3.7291 0 0)
(3.67022 0 0)
(3.60666 0 0)
(3.53888 0 0)
(3.46734 0 0)
(3.39248 0 0)
(3.3147 0 0)
(3.23439 0 0)
(3.15193 0 0)
(3.06766 0 0)
(2.98191 0 0)
(2.895 0 0)
(2.80721 0 0)
(2.71883 0 0)
(2.63011 0 0)
(2.54129 0 0)
(2.45259 0 0)
(2.36424 0 0)
(2.27642 0 0)
(2.18931 0 0)
(2.10308 0 0)
(2.01789 0 0)
(1.93387 0 0)
(1.85116 0 0)
(1.76986 0 0)
(1.69009 0 0)
(1.61194 0 0)
(1.53549 0 0)
(1.46083 0 0)
(1.38801 0 0)
(1.31709 0 0)
(1.24813 0 0)
(1.18116 0 0)
(1.11621 0 0)
(1.05331 0 0)
(0.992489 0 0)
(0.933751 0 0)
(0.877107 0 0)
(0.822557 0 0)
(0.7701 0 0)
(0.719727 0 0)
(0.671427 0 0)
(0.625184 0 0)
(0.580976 0 0)
(0.53878 0 0)
(0.49857 0 0)
(0.460314 0 0)
(0.423981 0 0)
(0.389534 0 0)
(0.356937 0 0)
(0.326147 0 0)
(0.297125 0 0)
(0.269826 0 0)
(0.244205 0 0)
(0.220215 0 0)
(0.197808 0 0)
(0.176936 0 0)
(0.157548 0 0)
(0.139593 0 0)
(0.12302 0 0)
(0.107777 0 0)
(0.0938103 0 0)
(0.0810669 0 0)
(0.0694933 0 0)
(0.0590354 0 0)
(0.049639 0 0)
(0.0412497 0 0)
(0.033813 0 0)
(0.0272742 0 0)
(0.0215786 0 0)
(0.0166715 0 0)
(0.0124981 0 0)
(0.00900382 0 0)
(0.00613394 0 0)
(0.00383385 0 0)
(0.00204902 0 0)
(0.00072497 0 0)
(-0.000192714 0 0)
(-0.000758371 0 0)
(-0.00102628 0 0)
(-0.00105066 0 0)
(-0.000885692 0 0)
(-0.000585496 0 0)
(-0.000204178 0 0)
)
;
    }
    frontAndBack
    {
        type            empty;
    }
}


// ************************************************************************* //
