/*--------------------------------*- C++ -*----------------------------------*\
| =========                 |                                                 |
| \\      /  F ield         | OpenFOAM: The Open Source CFD Toolbox           |
|  \\    /   O peration     | Version:  2312                                  |
|   \\  /    A nd           | Website:  www.openfoam.com                      |
|    \\/     M anipulation  |                                                 |
\*---------------------------------------------------------------------------*/
FoamFile
{
    version     2.0;
    format      ascii;
    arch        "LSB;label=32;scalar=64";
    class       volScalarField;
    location    "1.8";
    object      gradTx;
}
// * * * * * * * * * * * * * * * * * * * * * * * * * * * * * * * * * * * * * //

dimensions      [0 -1 0 1 0 0 0];

internalField   nonuniform List<scalar> 
100
(
3.55439
3.65447
3.73902
3.8089
3.86495
3.90797
3.93875
3.95806
3.96662
3.96516
3.95437
3.9349
3.90741
3.8725
3.83077
3.78279
3.7291
3.67022
3.60666
3.53888
3.46734
3.39248
3.3147
3.23439
3.15193
3.06766
2.98191
2.895
2.80721
2.71883
2.63011
2.54129
2.45259
2.36424
2.27642
2.18931
2.10308
2.01789
1.93387
1.85116
1.76986
1.69009
1.61194
1.53549
1.46083
1.38801
1.31709
1.24813
1.18116
1.11621
1.05331
0.992489
0.933751
0.877107
0.822557
0.7701
0.719727
0.671427
0.625184
0.580976
0.53878
0.49857
0.460314
0.423981
0.389534
0.356937
0.326147
0.297125
0.269826
0.244205
0.220215
0.197808
0.176936
0.157548
0.139593
0.12302
0.107777
0.0938103
0.0810669
0.0694933
0.0590354
0.049639
0.0412497
0.033813
0.0272742
0.0215786
0.0166715
0.0124981
0.00900382
0.00613394
0.00383385
0.00204902
0.00072497
-0.000192714
-0.000758371
-0.00102628
-0.00105066
-0.000885692
-0.000585496
-0.000204178
)
;

boundaryField
{
    movingWall
    {
        type            calculated;
        value           uniform 3.50036;
    }
    fixedWalls
    {
        type            calculated;
        value           nonuniform List<scalar> 
201
(
3.55439
3.65447
3.73902
3.8089
3.86495
3.90797
3.93875
3.95806
3.96662
3.96516
3.95437
3.9349
3.90741
3.8725
3.83077
3.78279
3.7291
3.67022
3.60666
3.53888
3.46734
3.39248
3.3147
3.23439
3.15193
3.06766
2.98191
2.895
2.80721
2.71883
2.63011
2.54129
2.45259
2.36424
2.27642
2.18931
2.10308
2.01789
1.93387
1.85116
1.76986
1.69009
1.61194
1.53549
1.46083
1.38801
1.31709
1.24813
1.18116
1.11621
1.05331
0.992489
0.933751
0.877107
0.822557
0.7701
0.719727
0.671427
0.625184
0.580976
0.53878
0.49857
0.460314
0.423981
0.389534
0.356937
0.326147
0.297125
0.269826
0.244205
0.220215
0.197808
0.176936
0.157548
0.139593
0.12302
0.107777
0.0938103
0.0810669
0.0694933
0.0590354
0.049639
0.0412497
0.033813
0.0272742
0.0215786
0.0166715
0.0124981
0.00900382
0.00613394
0.00383385
0.00204902
0.00072497
-0.000192714
-0.000758371
-0.00102628
-0.00105066
-0.000885692
-0.000585496
-0.000204178
0
3.55439
3.65447
3.73902
3.8089
3.86495
3.90797
3.93875
3.95806
3.96662
3.96516
3.95437
3.9349
3.90741
3.8725
3.83077
3.78279
3.7291
3.67022
3.60666
3.53888
3.46734
3.39248
3.3147
3.23439
3.15193
3.06766
2.98191
2.895
2.80721
2.71883
2.63011
2.54129
2.45259
2.36424
2.27642
2.18931
2.10308
2.01789
1.93387
1.85116
1.76986
1.69009
1.61194
1.53549
1.46083
1.38801
1.31709
1.24813
1.18116
1.11621
1.05331
0.992489
0.933751
0.877107
0.822557
0.7701
0.719727
0.671427
0.625184
0.580976
0.53878
0.49857
0.460314
0.423981
0.389534
0.356937
0.326147
0.297125
0.269826
0.244205
0.220215
0.197808
0.176936
0.157548
0.139593
0.12302
0.107777
0.0938103
0.0810669
0.0694933
0.0590354
0.049639
0.0412497
0.033813
0.0272742
0.0215786
0.0166715
0.0124981
0.00900382
0.00613394
0.00383385
0.00204902
0.00072497
-0.000192714
-0.000758371
-0.00102628
-0.00105066
-0.000885692
-0.000585496
-0.000204178
)
;
    }
    frontAndBack
    {
        type            empty;
    }
}


// ************************************************************************* //
