/*--------------------------------*- C++ -*----------------------------------*\
| =========                 |                                                 |
| \\      /  F ield         | OpenFOAM: The Open Source CFD Toolbox           |
|  \\    /   O peration     | Version:  2312                                  |
|   \\  /    A nd           | Website:  www.openfoam.com                      |
|    \\/     M anipulation  |                                                 |
\*---------------------------------------------------------------------------*/
FoamFile
{
    version     2.0;
    format      ascii;
    arch        "LSB;label=32;scalar=64";
    class       surfaceScalarField;
    location    "0.717";
    object      phi;
}
// * * * * * * * * * * * * * * * * * * * * * * * * * * * * * * * * * * * * * //

dimensions      [0 3 -1 0 0 0 0];

oriented        oriented;

internalField   nonuniform List<scalar> 
62015
(
76.5086
0.402416
-76.7537
76.2602
0.394922
76.0089
0.387192
75.7551
0.379232
75.4993
0.371048
75.2418
0.362646
74.9831
0.354032
74.7234
0.345214
74.4631
0.336199
74.2024
0.326991
73.9418
0.317599
73.6814
0.30803
73.4215
0.29829
73.1623
0.288387
72.904
0.278328
72.6468
0.26812
72.3909
0.257772
72.1363
0.24729
71.8833
0.236683
71.6318
0.225958
71.3821
0.215123
71.134
0.204188
70.8876
0.193158
70.643
0.182044
70.4001
0.170854
70.1588
0.159595
69.919
0.148277
69.6807
0.136909
69.4436
0.1255
69.2076
0.114059
68.9725
0.102594
68.7379
0.0911161
68.5037
0.0796348
68.2693
0.0681587
68.0345
0.0566989
67.7988
0.0452646
67.5617
0.0338674
67.3226
0.0225165
67.0808
0.0112237
66.8357
0
66.5864
-0.0111434
66.332
-0.0221935
66.0715
-0.0331399
65.8037
-0.0439677
65.5273
-0.0546652
65.2408
-0.0652171
64.9425
-0.0756096
64.6305
-0.0858258
64.3024
-0.0958501
63.9556
-0.105663
63.5868
-0.115245
63.1918
-0.124573
62.7673
-0.133623
62.3101
-0.142367
61.8082
-0.15078
61.2291
-0.158809
60.5666
-0.166327
59.9568
-0.173285
59.5451
-0.180148
58.5877
-0.187471
54.7673
-0.192396
46.713
-0.185465
37.3104
-0.161054
30.6864
-0.131794
27.5935
-0.113471
26.5466
-0.107182
26.3396
-0.107283
26.4422
-0.109936
26.6633
-0.113538
26.9364
-0.11751
27.2373
-0.121644
27.5564
-0.125863
27.8893
-0.130132
28.2343
-0.134434
28.5883
-0.138765
28.9556
-0.143096
29.32
-0.147494
29.7287
-0.151725
-0.156504
30.035
74.3412
0.794159
-74.5923
74.0877
0.779241
73.832
0.763869
73.5747
0.748053
73.316
0.731806
73.0564
0.71514
72.7961
0.698067
72.5355
0.680599
72.2749
0.66275
72.0145
0.644531
71.7547
0.625957
71.4955
0.60704
71.2374
0.587795
70.9804
0.568235
70.7247
0.548374
70.4706
0.528227
70.2182
0.507808
69.9675
0.487131
69.7187
0.466213
69.472
0.445067
69.2272
0.42371
68.9845
0.402157
68.744
0.380423
68.5055
0.358526
68.2691
0.336481
68.0347
0.314305
67.8022
0.292015
67.5716
0.269628
67.3426
0.247161
67.1151
0.224631
66.8889
0.202057
66.6638
0.179457
66.4395
0.156849
66.2157
0.134252
65.992
0.111685
65.7679
0.0891681
65.5432
0.0667204
65.3171
0.0443623
65.0892
0.0221153
64.8588
0
64.6251
-0.0219613
64.3874
-0.0437457
64.1448
-0.0653305
63.8961
-0.0866911
63.6403
-0.107801
63.3761
-0.128637
63.1019
-0.149168
62.816
-0.169365
62.5164
-0.189198
62.201
-0.208633
61.8669
-0.227632
61.5108
-0.246157
61.1287
-0.264159
60.7178
-0.281589
60.2742
-0.298398
59.7796
-0.314531
59.201
-0.329833
58.5672
-0.344032
58.0604
-0.357284
57.6777
-0.370948
56.1734
-0.385048
51.1171
-0.38933
42.3639
-0.362884
33.7566
-0.305294
28.5163
-0.250663
26.3302
-0.222344
25.6706
-0.214889
25.6016
-0.217141
25.7491
-0.22309
25.982
-0.230412
26.2545
-0.238279
26.5497
-0.246393
26.8603
-0.254639
27.1838
-0.262962
27.5167
-0.27135
27.8626
-0.279741
28.2065
-0.28826
28.5919
-0.296467
-0.305699
28.8846
72.2296
1.17541
-72.4857
71.9718
1.15315
71.7127
1.13023
71.4526
1.10667
71.1918
1.08249
70.9306
1.0577
70.6693
1.03233
70.4083
1.00638
70.1478
0.979882
69.888
0.952849
69.6293
0.925301
69.3717
0.897258
69.1155
0.868739
68.8609
0.839765
68.608
0.810355
68.357
0.780531
68.1081
0.750313
67.8613
0.719722
67.6168
0.688781
67.3745
0.657511
67.1347
0.625935
66.8973
0.594075
66.6622
0.561954
66.4297
0.529596
66.1995
0.497024
65.9716
0.464262
65.746
0.431334
65.5226
0.398266
65.3013
0.365082
65.0818
0.331808
64.864
0.298469
64.6477
0.265092
64.4326
0.231703
64.2185
0.19833
64.0049
0.165
63.7917
0.131741
63.5782
0.0985825
63.3641
0.0655521
63.1489
0.0326816
62.9319
0
62.7125
-0.0324605
62.4899
-0.0646672
62.2634
-0.0965871
62.0321
-0.128186
61.7948
-0.159428
61.5505
-0.190274
61.2978
-0.220688
61.0353
-0.250626
60.7612
-0.280045
60.4735
-0.308898
60.17
-0.337135
59.8479
-0.3647
59.5036
-0.391533
59.1337
-0.417562
58.7359
-0.442712
58.3036
-0.46692
57.8121
-0.490073
57.2362
-0.511858
56.6524
-0.531928
56.2568
-0.551104
55.7775
-0.571756
53.4524
-0.590532
47.1523
-0.5843
38.1689
-0.524514
30.7013
-0.431175
26.7442
-0.359857
25.2614
-0.329285
24.8786
-0.324161
24.9049
-0.329757
25.0824
-0.339316
25.3218
-0.350353
25.5918
-0.361991
25.8804
-0.373912
26.183
-0.385982
26.4956
-0.39816
26.8212
-0.410353
27.1457
-0.42273
27.5088
-0.434673
-0.448052
27.7875
70.1696
1.54631
-70.4295
69.9088
1.5168
69.6472
1.48645
69.3852
1.45527
69.1231
1.42329
68.8612
1.39053
68.5997
1.35702
68.3389
1.32277
68.0791
1.2878
67.8205
1.25216
67.5633
1.21585
67.3076
1.1789
67.0538
1.14134
66.8018
1.10319
66.552
1.06448
66.3044
1.02524
66.0592
0.98549
65.8164
0.945261
65.5762
0.90458
65.3385
0.863477
65.1036
0.821978
64.8713
0.780114
64.6418
0.737914
64.415
0.695408
64.1908
0.652627
63.9693
0.609602
63.7503
0.566363
63.5339
0.522942
63.3197
0.479373
63.1078
0.435687
62.898
0.391917
62.6899
0.348098
62.4835
0.304264
62.2785
0.26045
62.0745
0.21669
61.8712
0.173021
61.6683
0.12948
61.4652
0.0861034
61.2616
0.0429306
61.057
0
60.8506
-0.0426481
60.6419
-0.0849724
60.4302
-0.126931
60.2146
-0.168479
59.9942
-0.209573
59.7679
-0.250164
59.5347
-0.290204
59.2931
-0.329641
59.0418
-0.36842
58.7789
-0.406483
58.5026
-0.443768
58.2104
-0.480208
57.8996
-0.515729
57.5665
-0.550247
57.2084
-0.583666
56.823
-0.615895
56.3992
-0.646849
55.9073
-0.67631
55.3422
-0.703762
54.8343
-0.729035
54.5316
-0.754196
53.765
-0.781804
50.3696
-0.80011
43.0006
-0.769294
34.3053
-0.665273
28.1637
-0.541305
25.305
-0.463752
24.3433
-0.436553
24.1533
-0.435695
24.244
-0.445175
24.4405
-0.458417
24.6825
-0.473077
24.9486
-0.488331
25.2306
-0.503865
25.5237
-0.519574
25.8298
-0.535319
26.1357
-0.551305
26.4778
-0.566753
-0.583997
26.7428
68.1593
1.90699
-68.4217
67.8965
1.87034
67.6335
1.83267
67.3706
1.79401
67.1081
1.75438
66.8462
1.71381
66.5853
1.67232
66.3254
1.62995
66.067
1.58672
65.8101
1.54266
65.5549
1.4978
65.3017
1.45217
65.0506
1.40579
64.8017
1.35871
64.5552
1.31096
64.3113
1.26255
64.07
1.21354
63.8314
1.16394
63.5956
1.1138
63.3627
1.06315
63.1327
1.01202
62.9057
0.960446
62.6816
0.908468
62.4604
0.856121
62.2422
0.80344
62.0269
0.750464
61.8144
0.69723
61.6047
0.643777
61.3975
0.590143
61.1929
0.536368
60.9906
0.482492
60.7905
0.428556
60.5924
0.374602
60.3959
0.32067
60.2009
0.266803
60.0071
0.213046
59.814
0.159441
59.6213
0.106035
59.4286
0.0528719
59.2354
0
59.0412
-0.0525333
58.8453
-0.104679
58.6472
-0.156387
58.4461
-0.207604
58.2411
-0.258277
58.0314
-0.30835
57.8159
-0.357765
57.5935
-0.406462
57.3628
-0.454376
57.1224
-0.501439
56.8705
-0.54758
56.6051
-0.592722
56.3241
-0.636779
56.0242
-0.67966
55.7022
-0.721256
55.3559
-0.761451
54.982
-0.800141
54.5638
-0.8372
54.0711
-0.872242
53.5322
-0.904572
53.1218
-0.934668
52.8498
-0.966245
51.5653
-0.999633
46.9791
-1.00824
38.9164
-0.937216
30.9627
-0.785132
26.1361
-0.641244
24.138
-0.566349
23.541
-0.545637
23.4798
-0.549804
23.6121
-0.563283
23.8196
-0.580129
24.0613
-0.598266
24.3227
-0.616948
24.5966
-0.635921
24.8839
-0.654974
25.1719
-0.674326
25.4942
-0.693056
-0.713898
25.7456
66.1978
2.2576
-66.4617
65.9341
2.21393
65.6706
2.16908
65.4077
2.12308
65.1456
2.07595
64.8846
2.02773
64.6248
1.97845
64.3666
1.92814
64.11
1.87683
63.8553
1.82456
63.6028
1.77137
63.3524
1.71727
63.1044
1.66232
62.859
1.60655
62.6162
1.54999
62.3761
1.49268
62.139
1.43465
61.9048
1.37596
61.6736
1.31663
61.4455
1.25671
61.2206
1.19623
60.9988
1.13524
60.7802
1.07378
60.5647
1.01189
60.3524
0.949607
60.1432
0.886986
59.937
0.824064
59.7339
0.760888
59.5335
0.697502
59.336
0.633952
59.141
0.570284
58.9485
0.506546
58.7582
0.442785
58.57
0.37905
58.3835
0.31539
58.1986
0.251855
58.0148
0.188496
57.8319
0.125365
57.6494
0.0625154
57.467
0
57.2841
-0.0621255
57.1002
-0.123805
56.9147
-0.18498
56.727
-0.245592
56.5363
-0.305578
56.3418
-0.364876
56.1426
-0.423421
55.9377
-0.481141
55.7259
-0.537968
55.5059
-0.593823
55.2762
-0.648627
55.0352
-0.702294
54.7807
-0.75473
54.5105
-0.805837
54.2214
-0.8555
53.9106
-0.903588
53.5763
-0.949966
53.2129
-0.994525
52.7976
-1.03706
52.3076
-1.07694
51.8149
-1.11346
51.509
-1.14839
51.1586
-1.18687
49.136
-1.22262
43.4102
-1.20839
35.1224
-1.08385
28.1988
-0.888028
24.5363
-0.736604
23.1725
-0.670239
22.8229
-0.657224
22.8458
-0.666497
23.0041
-0.68386
23.217
-0.704153
23.4566
-0.725577
23.7114
-0.74752
23.9804
-0.76963
24.2512
-0.792112
24.5544
-0.813908
-0.838093
24.7928
64.2847
2.5983
-64.549
64.0209
2.54774
63.7578
2.49585
63.4957
2.44265
63.2347
2.38819
62.9752
2.33249
62.7173
2.27559
62.4612
2.21753
62.2071
2.15835
61.9551
2.09808
61.7055
2.03676
61.4584
1.97443
61.2139
1.91113
60.9722
1.84689
60.7334
1.78177
60.4975
1.71581
60.2647
1.64903
60.035
1.5815
59.8086
1.51325
59.5855
1.44433
59.3657
1.37478
59.1492
1.30466
58.936
1.234
58.7262
1.16285
58.5198
1.09127
58.3166
1.0193
58.1167
0.94699
57.9199
0.874392
57.7262
0.801557
57.5355
0.728535
57.3476
0.65538
57.1624
0.582144
56.9797
0.508883
56.7993
0.435648
56.621
0.362497
56.4446
0.289487
56.2696
0.216673
56.0959
0.144114
55.9231
0.0718697
55.7507
0
55.5784
-0.0714332
55.4057
-0.142366
55.232
-0.212736
55.0568
-0.282475
54.8793
-0.351516
54.6989
-0.419789
54.5148
-0.487219
54.326
-0.553734
54.1315
-0.619251
53.9302
-0.683691
53.7208
-0.746964
53.5017
-0.808978
53.2713
-0.869632
53.0277
-0.928821
52.7682
-0.986426
52.4899
-1.04231
52.1904
-1.09633
51.8681
-1.14833
51.5136
-1.19818
51.0998
-1.24555
50.6204
-1.28953
50.1943
-1.32977
49.9767
-1.36996
49.4037
-1.4153
46.4835
-1.4469
39.8261
-1.39436
31.7595
-1.2087
25.9728
-0.979729
23.2623
-0.831594
22.3494
-0.776727
22.165
-0.771477
22.2424
-0.785601
22.4162
-0.806632
22.631
-0.830163
22.866
-0.854708
23.117
-0.879604
23.371
-0.904975
23.656
-0.929624
-0.956903
23.8817
62.4195
2.92927
-62.6834
62.1564
2.87196
61.8945
2.81316
61.6338
2.75293
61.3746
2.69129
61.1172
2.62829
60.8617
2.56396
60.6082
2.49835
60.357
2.43148
60.1082
2.36341
59.862
2.29418
59.6185
2.22383
59.3778
2.15241
59.1401
2.07995
58.9054
2.00651
58.6739
1.93213
58.4456
1.85686
58.2207
1.78075
57.9991
1.70385
57.781
1.62619
57.5664
1.54785
57.3552
1.46886
57.1476
1.38928
56.9434
1.30917
56.7427
1.22857
56.5455
1.14754
56.3517
1.06613
56.1612
0.9844
55.974
0.902409
55.7899
0.82021
55.6089
0.737863
55.4307
0.655426
55.2553
0.572957
55.0824
0.490519
54.9119
0.408171
54.7435
0.325976
54.577
0.243997
54.412
0.162298
54.2483
0.0809431
54.0854
0
53.9231
-0.0804642
53.7608
-0.160381
53.5981
-0.239678
53.4345
-0.318286
53.2693
-0.396128
53.1019
-0.473129
52.9317
-0.549211
52.7577
-0.62429
52.5791
-0.698283
52.3949
-0.7711
52.204
-0.842648
52.005
-0.912829
51.7964
-0.981536
51.5766
-1.04866
51.3436
-1.11407
51.0948
-1.17764
50.8273
-1.23921
50.5394
-1.29861
50.2288
-1.3557
49.8816
-1.4103
49.4695
-1.46186
49.0122
-1.50926
48.6683
-1.55303
48.496
-1.59913
47.5432
-1.65011
43.6614
-1.6677
36.3819
-1.56164
28.8833
-1.31455
24.1968
-1.06595
22.2244
-0.928783
21.6257
-0.886263
21.5514
-0.888272
21.6635
-0.906862
21.8463
-0.931288
22.0595
-0.957877
22.2921
-0.985223
22.5296
-1.01322
22.797
-1.04051
-1.07064
23.0105
60.6018
3.25069
-60.8646
60.3402
3.18677
60.08
3.12123
59.8214
3.05412
59.5646
2.98548
59.3097
2.91534
59.057
2.84377
58.8067
2.77078
58.5588
2.69644
58.3135
2.62078
58.0709
2.54385
57.8313
2.4657
57.5947
2.38638
57.3612
2.30593
57.1309
2.2244
56.9039
2.14186
56.6804
2.05834
56.4602
1.97389
56.2436
1.88859
56.0306
1.80247
55.8212
1.71559
55.6153
1.62801
55.4131
1.53978
55.2146
1.45097
55.0196
1.36163
54.8283
1.27182
54.6405
1.18159
54.4561
1.09102
54.2752
1.00016
54.0975
0.909067
53.9231
0.817814
53.7518
0.726462
53.5834
0.635074
53.4177
0.543716
53.2546
0.452456
53.0939
0.361359
52.9353
0.270495
52.7786
0.179934
52.6235
0.0897448
52.4696
0
52.3166
-0.0892275
52.1641
-0.177863
52.0117
-0.265831
51.8588
-0.353053
51.7051
-0.439451
51.5498
-0.524941
51.3924
-0.609441
51.2321
-0.692862
51.0682
-0.775115
50.8996
-0.856106
50.7255
-0.935736
50.5448
-1.0139
50.356
-1.09049
50.1578
-1.16539
49.9485
-1.23848
49.726
-1.30961
49.4878
-1.37863
49.2313
-1.44537
48.9552
-1.50965
48.6557
-1.57131
48.3141
-1.63012
47.9061
-1.68522
47.4842
-1.73545
47.2291
-1.78289
47.0349
-1.83558
45.5585
-1.88912
40.7556
-1.88009
33.1978
-1.70832
26.4832
-1.4062
22.7735
-1.15123
21.3537
-1.02942
20.9722
-0.998816
20.9711
-1.00735
21.1054
-1.02997
21.2917
-1.05756
21.5045
-1.08686
21.7255
-1.11718
21.9756
-1.14688
-1.17962
22.1773
58.831
3.56277
-59.0921
58.5715
3.49237
58.3136
3.42024
58.0576
3.34642
57.8036
3.27094
57.5518
3.19386
57.3024
3.11521
57.0555
3.03505
56.8112
2.95342
56.5697
2.87038
56.3312
2.78596
56.0957
2.70023
55.8633
2.61322
55.6342
2.52501
55.4085
2.43564
55.1862
2.34516
54.9674
2.25363
54.7522
2.16111
54.5406
2.06765
54.3327
1.97331
54.1284
1.87816
53.928
1.78225
53.7312
1.68564
53.5382
1.5884
53.3489
1.49059
53.1633
1.39227
52.9813
1.2935
52.803
1.19435
52.6282
1.0949
52.4568
0.995194
52.2888
0.895312
52.124
0.795321
51.9623
0.695291
51.8036
0.595291
51.6476
0.495393
51.4942
0.395669
51.3432
0.296193
51.1943
0.197039
51.0472
0.0982825
50.9018
0
50.7575
-0.0977304
50.6142
-0.194829
50.4714
-0.291216
50.3287
-0.386807
50.1855
-0.481519
50.0415
-0.575264
49.8959
-0.667955
49.7482
-0.759499
49.5977
-0.849801
49.4436
-0.938763
49.2849
-1.02628
49.1208
-1.11225
48.95
-1.19656
48.7713
-1.27908
48.5833
-1.35969
48.3844
-1.43825
48.1724
-1.51461
47.9447
-1.5886
47.6993
-1.66001
47.4351
-1.72867
47.1459
-1.79442
46.8089
-1.85689
46.4094
-1.91491
46.0361
-1.96757
45.8643
-2.01912
45.5638
-2.07869
43.4576
-2.12947
37.8641
-2.07985
30.3472
-1.83517
24.5082
-1.48909
21.6161
-1.23865
20.6013
-1.13389
20.3695
-1.11412
20.4173
-1.12839
20.5646
-1.15466
20.754
-1.18501
20.9574
-1.21721
21.1904
-1.24904
-1.28414
21.3806
57.1067
3.86569
-57.3654
56.8498
3.78898
56.5947
3.71041
56.3417
3.63004
56.091
3.5479
55.8426
3.46404
55.5967
3.37851
55.3536
3.29136
55.1132
3.20265
54.8758
3.11241
54.6414
3.02072
54.4103
2.92761
54.1824
2.83315
53.9578
2.7374
53.7368
2.6404
53.5192
2.54222
53.3053
2.44292
53.095
2.34256
52.8885
2.2412
52.6857
2.13889
52.4867
2.03572
52.2916
1.93173
52.1002
1.827
51.9127
1.72159
51.7289
1.61557
51.549
1.509
51.3728
1.40196
51.2003
1.29451
51.0314
1.18672
50.8661
1.07867
50.7043
0.970433
50.5458
0.862073
50.3906
0.753668
50.2384
0.645294
50.0892
0.537025
49.9428
0.42894
49.799
0.321115
49.6575
0.21363
49.5181
0.106564
49.3806
0
49.2446
-0.105981
49.1099
-0.211294
48.9761
-0.315855
48.8427
-0.419575
48.7094
-0.522367
48.5758
-0.624139
48.4412
-0.724799
48.3052
-0.824249
48.167
-0.922392
48.026
-1.01913
47.8815
-1.11434
47.7325
-1.20793
47.5781
-1.29978
47.4171
-1.38977
47.2484
-1.47776
47.0705
-1.56361
46.8818
-1.64718
46.6801
-1.72829
46.4629
-1.80677
46.2287
-1.88239
45.9763
-1.95497
45.6964
-2.02435
45.3638
-2.08996
44.979
-2.1503
44.6653
-2.20518
44.5582
-2.26149
44.0618
-2.32749
41.2729
-2.36803
35.079
-2.26423
27.8587
-1.94522
22.8902
-1.56822
20.6547
-1.32993
19.9332
-1.24206
19.8051
-1.2318
19.8848
-1.25109
20.0417
-1.28049
20.2249
-1.31376
20.4402
-1.34735
-1.3845
20.6189
55.4282
4.15966
-55.6841
55.1743
4.07679
54.9224
3.99195
54.6728
3.90519
54.4256
3.81655
54.181
3.7261
53.939
3.63387
53.6999
3.53993
53.4637
3.44432
53.2305
3.3471
53.0006
3.24833
52.7739
3.14806
52.5506
3.04636
52.3307
2.94328
52.1144
2.83888
51.9017
2.73323
51.6927
2.62639
51.4875
2.51842
51.286
2.40939
51.0883
2.29937
50.8946
2.18841
50.7046
2.0766
50.5186
1.96399
50.3365
1.85067
50.1582
1.73669
49.9838
1.62213
49.8132
1.50707
49.6464
1.39157
49.4833
1.27572
49.3239
1.15959
49.168
1.04325
49.0156
0.92678
48.8666
0.810262
48.7208
0.693772
48.5781
0.577391
48.4383
0.461201
48.3013
0.345283
48.1668
0.229721
48.0347
0.114598
47.9047
0
47.7764
-0.113986
47.6498
-0.227272
47.5243
-0.339769
47.3997
-0.451386
47.2757
-0.562029
47.1516
-0.671604
47.0272
-0.780015
46.9019
-0.887161
46.7751
-0.992941
46.6462
-1.09725
46.5146
-1.19997
46.3795
-1.30101
46.2399
-1.40023
46.095
-1.49751
45.9437
-1.59272
45.7848
-1.68573
45.6168
-1.77637
45.4382
-1.8645
45.2467
-1.94993
45.04
-2.03245
44.8172
-2.11183
44.5763
-2.1879
44.3047
-2.26047
43.9773
-2.32868
43.6142
-2.39083
43.3668
-2.44795
43.295
-2.50971
42.5202
-2.58066
39.053
-2.60179
32.4735
-2.43239
25.7255
-2.04279
21.5595
-1.64752
19.8367
-1.42577
19.3266
-1.35353
19.2697
-1.35148
19.3724
-1.37499
19.5285
-1.40759
19.7243
-1.44222
-1.48104
19.891
53.7947
4.4449
-54.0473
53.5442
4.35602
53.2959
4.26506
53.05
4.17208
52.8067
4.07712
52.5661
3.98024
52.3282
3.8815
52.0933
3.78094
51.8615
3.67863
51.6328
3.57463
51.4073
3.46898
51.1853
3.36176
50.9666
3.25302
50.7516
3.14284
50.5401
3.03126
50.3323
2.91836
50.1283
2.80421
49.928
2.68887
49.7316
2.5724
49.5391
2.45489
49.3505
2.33639
49.1658
2.21699
48.985
2.09676
48.8082
1.97576
48.6353
1.85407
48.4663
1.73177
48.3012
1.60894
48.1399
1.48565
47.9825
1.36199
47.8287
1.23802
47.6786
1.11383
47.5321
0.989507
47.389
0.865127
47.2493
0.740773
47.1128
0.616531
46.9793
0.492485
46.8488
0.368722
46.7209
0.245327
46.5956
0.12239
46.4726
0
46.3517
-0.121753
46.2326
-0.242778
46.115
-0.36298
45.9986
-0.482265
45.883
-0.600537
45.768
-0.717698
45.6529
-0.833647
45.5375
-0.948282
45.4212
-1.0615
45.3035
-1.17318
45.1837
-1.28323
45.0611
-1.39153
44.9351
-1.49794
44.8048
-1.60236
44.6693
-1.70465
44.5274
-1.80466
44.3781
-1.90225
44.2199
-1.99726
44.0512
-2.08952
43.8698
-2.17883
43.6737
-2.26496
43.4621
-2.34768
43.2324
-2.42684
42.9686
-2.50216
42.6479
-2.57247
42.3135
-2.63602
42.1341
-2.69558
42.0607
-2.76337
40.9438
-2.83665
36.8536
-2.82841
30.0958
-2.58539
23.9178
-2.13264
20.4534
-1.72973
19.1238
-1.52623
18.7653
-1.46788
18.7597
-1.47266
18.8718
-1.50021
19.0428
-1.53434
-1.57417
19.1962
52.2055
4.72161
-52.4546
51.9587
4.62687
51.7143
4.52996
51.4725
4.43092
51.2332
4.32981
50.9968
4.22669
50.7633
4.1216
50.5328
4.01462
50.3055
3.9058
50.0813
3.7952
49.8606
3.68288
49.6432
3.56891
49.4294
3.45334
49.2191
3.33626
49.0125
3.21772
48.8097
3.09779
48.6106
2.97654
48.4154
2.85405
48.224
2.73038
48.0366
2.6056
47.8531
2.4798
47.6735
2.35305
47.4979
2.22542
47.3263
2.09699
47.1587
1.96783
46.995
1.83804
46.8353
1.70768
46.6794
1.57684
46.5274
1.4456
46.3791
1.31404
46.2346
1.18225
46.0937
1.05031
45.9563
0.918316
45.8224
0.786343
45.6918
0.654482
45.5644
0.522821
45.44
0.391452
45.3184
0.260464
45.1996
0.129949
45.0833
0
44.9692
-0.129289
44.8571
-0.257824
44.7469
-0.385507
44.6381
-0.51224
44.5305
-0.637924
44.4237
-0.762458
44.3174
-0.885737
44.2111
-1.00766
44.1044
-1.12811
43.9969
-1.24699
43.8879
-1.36417
43.777
-1.47955
43.6633
-1.593
43.5462
-1.70438
43.425
-1.81358
43.2985
-1.92046
43.1659
-2.02485
43.026
-2.12662
42.8774
-2.22558
42.7184
-2.32155
42.547
-2.41433
42.3615
-2.50368
42.1613
-2.58936
41.9423
-2.67122
41.6858
-2.74888
41.3742
-2.82081
41.0746
-2.88546
40.9593
-2.94779
40.8457
-3.0219
39.3487
-3.09388
34.728
-3.04662
27.97
-2.72586
22.394
-2.21926
19.5204
-1.81646
18.4882
-1.63103
18.2406
-1.58447
18.2657
-1.59537
18.3985
-1.62512
-1.66451
18.5347
50.6599
4.99
-50.905
50.4171
4.88956
50.1768
4.78685
49.9391
4.68192
49.7042
4.57483
49.4722
4.46563
49.2432
4.35439
49.0172
4.24116
48.7945
4.12602
48.5751
4.00901
48.359
3.89021
48.1465
3.76969
47.9375
3.6475
47.7321
3.52372
47.5304
3.39842
47.3325
3.27168
47.1384
3.14355
46.9481
3.01412
46.7618
2.88347
46.5794
2.75166
46.401
2.61878
46.2265
2.4849
46.056
2.3501
45.8896
2.21447
45.7271
2.07808
45.5686
1.94102
45.414
1.80337
45.2634
1.66521
45.1166
1.52664
44.9737
1.38773
44.8345
1.24857
44.699
1.10926
44.5672
0.969882
44.4388
0.830524
44.3138
0.691279
44.1921
0.552239
44.0736
0.413496
43.958
0.275145
43.8453
0.137281
43.7352
0
43.6276
-0.136601
43.5222
-0.272425
43.4188
-0.407369
43.3171
-0.541336
43.2169
-0.67422
43.1178
-0.80592
43.0195
-0.936327
42.9217
-1.06534
42.8239
-1.19283
42.7258
-1.31871
42.6267
-1.44285
42.5263
-1.56513
42.4239
-1.68544
42.3189
-1.80363
42.2105
-1.91959
42.098
-2.03317
41.9805
-2.14423
41.857
-2.25261
41.7262
-2.35815
41.5871
-2.46067
41.4377
-2.55998
41.2763
-2.65585
41.1012
-2.74802
40.9122
-2.83629
40.7035
-2.9205
40.4544
-3.00009
40.1546
-3.07323
39.8941
-3.13878
39.8349
-3.2043
39.6459
-3.28463
37.7594
-3.35097
32.7211
-3.2564
26.0995
-2.85747
21.1093
-2.3064
18.7191
-1.90856
17.9124
-1.73955
17.7403
-1.70324
17.7998
-1.71799
-1.75331
17.9091
49.1569
5.25028
-49.3979
48.9183
5.14429
48.6823
5.03594
48.4491
4.92528
48.2187
4.81237
47.9912
4.69728
47.7668
4.58005
47.5455
4.46076
47.3275
4.33948
47.1128
4.21625
46.9016
4.09117
46.6939
3.96428
46.4897
3.83567
46.2892
3.7054
46.0925
3.57355
45.8995
3.44019
45.7103
3.3054
45.5251
3.16925
45.3437
3.03182
45.1663
2.8932
44.9928
2.75345
44.8234
2.61267
44.6579
2.47093
44.4965
2.32832
44.339
2.18492
44.1856
2.04082
44.0361
1.89611
43.8906
1.75087
43.7489
1.60518
43.6111
1.45915
43.4771
1.31286
43.3468
1.16641
43.2202
1.01987
43.0972
0.873361
42.9776
0.726959
42.8614
0.580765
42.7484
0.434875
42.6385
0.289385
42.5315
0.144394
42.4273
-2.89403e-07
42.3258
-0.143695
42.2266
-0.286592
42.1296
-0.428587
42.0346
-0.569577
41.9412
-0.709457
41.8493
-0.84812
41.7585
-0.985457
41.6685
-1.12136
41.5789
-1.25571
41.4893
-1.38841
41.3994
-1.51932
41.3086
-1.64834
41.2165
-1.77533
41.1224
-1.90017
41.0257
-2.02273
40.9258
-2.14287
40.8219
-2.26045
40.7131
-2.37531
40.5984
-2.48729
40.4767
-2.59623
40.3468
-2.70193
40.2069
-2.8042
40.0553
-2.90279
39.8907
-2.99745
39.7128
-3.08796
39.5141
-3.17418
39.2725
-3.25534
38.9872
-3.32931
38.7681
-3.39567
38.7541
-3.46474
38.4626
-3.55077
36.2045
-3.60702
30.8661
-3.459
24.4732
-2.98439
20.021
-2.39708
18.0199
-2.00613
17.3781
-1.85166
17.272
-1.82251
-1.84372
17.3285
47.6957
5.50266
-47.9324
47.4616
5.39127
47.2301
5.27744
47.0014
5.16122
46.7756
5.04266
46.5528
4.92183
46.3331
4.79879
46.1166
4.67362
45.9033
4.54637
45.6935
4.41712
45.4871
4.28593
45.2842
4.15287
45.085
4.01803
44.8894
3.88147
44.6975
3.74326
44.5095
3.6035
44.3252
3.46224
44.1449
3.31958
43.9684
3.17559
43.7959
3.03036
43.6274
2.88396
43.4629
2.73649
43.3023
2.58803
43.1458
2.43866
42.9933
2.28847
42.8448
2.13755
42.7002
1.98599
42.5596
1.83388
42.4229
1.68132
42.29
1.52839
42.161
1.37518
42.0358
1.2218
41.9142
1.06834
41.7963
0.914893
41.6818
0.761556
41.5708
0.608427
41.4631
0.455608
41.3585
0.303195
41.257
0.151292
41.1584
0
41.0625
-0.150579
40.9692
-0.30034
40.8782
-0.449179
40.7894
-0.596989
40.7024
-0.743663
40.6172
-0.889093
40.5333
-1.03317
40.4504
-1.17577
40.3684
-1.3168
40.2868
-1.45613
40.2052
-1.59364
40.1232
-1.72921
40.0404
-1.86273
39.9563
-1.99405
39.8703
-2.12306
39.7818
-2.24961
39.6901
-2.37356
39.5945
-2.49476
39.4941
-2.61306
39.3881
-2.72828
39.2753
-2.84025
39.1544
-2.94878
39.0239
-3.05366
38.882
-3.15464
38.7278
-3.25144
38.5608
-3.34388
38.3719
-3.43179
38.1386
-3.51419
37.8699
-3.58867
37.6922
-3.65582
37.7115
-3.7287
37.3021
-3.8196
34.7123
-3.86172
29.184
-3.65674
23.071
-3.11092
19.0936
-2.4934
17.396
-2.10953
16.8859
-1.96571
-1.94454
16.8197
46.2755
5.74734
-46.5077
46.0459
5.63072
45.8191
5.51156
45.595
5.38992
45.3739
5.26588
45.1559
5.13948
44.941
5.01081
44.7293
4.87992
44.5209
4.74689
44.3159
4.61178
44.1144
4.47467
43.9164
4.33564
43.722
4.19475
43.5313
4.05209
43.3443
3.90773
43.1612
3.76174
42.9818
3.61423
42.8063
3.46525
42.6347
3.31491
42.4671
3.16327
42.3034
3.01043
42.1437
2.85648
41.988
2.7015
41.8362
2.54558
41.6885
2.38882
41.5448
2.23129
41.405
2.07311
41.2692
1.91435
41.1373
1.75511
41.0092
1.5955
40.885
1.4356
40.7646
1.27551
40.6479
1.11533
40.5348
0.955162
40.4252
0.795102
40.3192
0.635252
40.2165
0.475715
40.117
0.31659
40.0207
0.157984
39.9273
0
39.8368
-0.157257
39.7489
-0.31368
39.6636
-0.469162
39.5805
-0.623595
39.4995
-0.776869
39.4204
-0.928872
39.3429
-1.07949
39.2668
-1.22862
39.1917
-1.37613
39.1173
-1.52192
39.0434
-1.66586
38.9695
-1.80782
38.8952
-1.94769
38.8202
-2.08534
38.7438
-2.22064
38.6656
-2.35345
38.585
-2.48362
38.5013
-2.61102
38.4138
-2.73549
38.3217
-2.85687
38.2241
-2.97498
38.1199
-3.08965
38.008
-3.20068
37.8866
-3.30784
37.7543
-3.41087
37.6105
-3.50951
37.4542
-3.60358
37.2749
-3.6929
37.0506
-3.77622
36.8002
-3.85098
36.662
-3.9189
36.7038
-3.9957
36.1737
-4.09047
33.3083
-4.11542
27.6846
-3.8528
21.8703
-3.24103
18.2934
-2.59741
16.8347
-2.21772
-2.08136
16.4624
44.8954
5.98455
-45.123
44.6705
5.86283
44.4483
5.73849
44.2291
5.61161
44.0128
5.48223
43.7995
5.35044
43.5894
5.21629
43.3826
5.07986
43.1791
4.94122
42.979
4.80043
42.7823
4.65759
42.5892
4.51275
42.3997
4.366
42.2139
4.21742
42.0317
4.06709
41.8534
3.91509
41.6789
3.7615
41.5082
3.60641
41.3414
3.4499
41.1785
3.29207
41.0196
3.13299
40.8646
2.97276
40.7136
2.81147
40.5666
2.64921
40.4235
2.48607
40.2844
2.32215
40.1493
2.15754
40.0181
1.99234
39.8908
1.82664
39.7674
1.66055
39.6478
1.49416
39.532
1.32757
39.42
1.16089
39.3115
0.994205
39.2067
0.827631
39.1053
0.661266
39.0074
0.495214
38.9128
0.329583
38.8213
0.164475
38.7329
0
38.6474
-0.163736
38.5647
-0.326624
38.4846
-0.488555
38.4069
-0.649418
38.3315
-0.809102
38.2581
-0.967493
38.1866
-1.12448
38.1166
-1.27994
38.0479
-1.43377
37.9803
-1.58584
37.9133
-1.73603
37.8468
-1.88422
37.7804
-2.03028
37.7135
-2.1741
37.6459
-2.31553
37.577
-2.45444
37.5064
-2.5907
37.4334
-2.72416
37.3574
-2.85466
37.2778
-2.98206
37.1938
-3.10619
37.1044
-3.22686
37.0087
-3.3439
36.9054
-3.4571
36.7931
-3.56624
36.6703
-3.67103
36.5367
-3.77122
36.391
-3.86666
36.2213
-3.95711
36.0068
-4.0411
35.7755
-4.11592
35.6733
-4.18461
35.729
-4.26523
35.0885
-4.36285
32.0128
-4.36915
26.3707
-4.05074
20.8461
-3.37879
17.5872
-2.71062
-2.32237
16.4841
43.5545
6.21447
-43.7773
43.3343
6.0878
43.117
5.95845
42.9025
5.82646
42.6911
5.69192
42.4827
5.55488
42.2775
5.41542
42.0755
5.27362
41.8768
5.12953
41.6816
4.98324
41.4898
4.83483
41.3016
4.68437
41.1169
4.53195
40.9359
4.37763
40.7586
4.22152
40.585
4.06368
40.4152
3.90421
40.2493
3.7432
40.0872
3.58072
39.929
3.41688
39.7747
3.25175
39.6244
3.08544
39.478
2.91803
39.3355
2.74963
39.197
2.58032
39.0625
2.4102
38.9319
2.23937
38.8052
2.06793
38.6824
1.89598
38.5634
1.72361
38.4483
1.55093
38.337
1.37805
38.2293
1.20505
38.1254
1.03206
38.025
0.859171
37.9282
0.686491
37.8347
0.514126
37.7447
0.342183
37.6578
0.170772
37.5741
0
37.4933
-0.170022
37.4154
-0.339184
37.3403
-0.507374
37.2677
-0.674481
37.1974
-0.840389
37.1294
-1.00499
37.0633
-1.16816
36.999
-1.32978
36.9362
-1.48974
36.8748
-1.64792
36.8143
-1.8042
36.7545
-1.95846
36.6951
-2.11056
36.6358
-2.26038
36.5761
-2.4078
36.5157
-2.55267
36.4541
-2.69486
36.3907
-2.83423
36.3252
-2.97063
36.2567
-3.10392
36.1847
-3.23392
36.1085
-3.36047
36.0271
-3.48339
35.9397
-3.60249
35.845
-3.71757
35.7416
-3.82839
35.6281
-3.93467
35.5045
-4.03614
35.3692
-4.13269
35.2094
-4.22404
35.0054
-4.30847
34.793
-4.38322
34.7223
-4.45259
34.7867
-4.53674
34.0572
-4.63646
30.841
-4.62435
25.2426
-4.25407
19.9285
-3.53215
-2.79886
17.4627
42.2518
6.43731
-42.4699
42.0365
6.30585
41.824
6.17161
41.6144
6.03468
41.4078
5.89512
41.2043
5.753
41.004
5.6084
40.8069
5.46137
40.6131
5.31201
40.4227
5.16039
40.2358
5.00658
40.0523
4.85067
39.8725
4.69274
39.6962
4.53288
39.5237
4.37115
39.3548
4.20767
39.1897
4.0425
39.0285
3.87574
38.871
3.70748
38.7174
3.53782
38.5677
3.36684
38.4219
3.19463
38.28
3.0213
38.142
2.84695
38.008
2.67166
37.8778
2.49554
37.7516
2.31868
37.6292
2.1412
37.5107
1.96318
37.3961
1.78473
37.2853
1.60597
37.1782
1.42698
37.0748
1.24788
36.9752
1.06877
36.8791
0.889756
36.7865
0.710953
36.6974
0.532466
36.6116
0.354405
36.5291
0.176879
36.4498
-2.89486e-07
36.3735
-0.176121
36.3002
-0.351371
36.2296
-0.525637
36.1617
-0.698804
36.0963
-0.870758
36.0332
-1.04138
35.9722
-1.21056
35.9132
-1.37818
35.8559
-1.54411
35.8001
-1.70824
35.7455
-1.87044
35.6919
-2.03059
35.639
-2.18857
35.5865
-2.34425
35.5341
-2.49749
35.4813
-2.64818
35.4278
-2.79616
35.3732
-2.9413
35.3169
-3.08347
35.2585
-3.2225
35.1973
-3.35824
35.1327
-3.49053
35.0641
-3.61921
34.9905
-3.74408
34.9111
-3.86496
34.8248
-3.98163
34.7301
-4.09387
34.6258
-4.20137
34.512
-4.30388
34.387
-4.40131
34.2373
-4.49334
34.0445
-4.57803
33.8501
-4.6526
33.8057
-4.72251
33.8774
-4.80967
33.0856
-4.91154
29.8249
-4.87989
24.1309
-4.48487
-3.59738
20.3551
40.9866
6.65327
-41.1998
40.7761
6.51715
40.5685
6.37819
40.3638
6.23646
40.1621
6.09204
39.9635
5.94499
39.768
5.79539
39.5758
5.64331
39.3868
5.48883
39.2013
5.33204
39.0191
5.173
38.8405
5.01181
38.6654
4.84855
38.4938
4.6833
38.326
4.51615
38.1618
4.34718
38.0013
4.17649
37.8446
4.00417
37.6917
3.83031
37.5426
3.65501
37.3974
3.47836
37.256
3.30045
37.1185
3.12138
36.9849
2.94126
36.8551
2.76018
36.7292
2.57825
36.6072
2.39555
36.4891
2.21221
36.3748
2.02832
36.2643
1.84399
36.1576
1.65932
36.0547
1.47442
35.9554
1.28939
35.8598
1.10436
35.7678
0.919413
35.6793
0.734675
35.5943
0.550254
35.5126
0.366259
35.4343
0.182804
35.3591
0
35.287
-0.182038
35.2179
-0.363196
35.1517
-0.543358
35.0882
-0.722411
35.0272
-0.900235
34.9687
-1.07672
34.9125
-1.25173
34.8583
-1.42517
34.806
-1.5969
34.7554
-1.76681
34.7063
-1.93478
34.6584
-2.10068
34.6114
-2.26438
34.5651
-2.42576
34.5192
-2.58469
34.4734
-2.74103
34.4273
-2.89466
34.3805
-3.04544
34.3325
-3.19322
34.2831
-3.33787
34.2315
-3.47922
34.1774
-3.61712
34.12
-3.75141
34.0587
-3.88192
33.9927
-4.00847
33.9212
-4.13084
33.8431
-4.24885
33.7569
-4.36225
33.6616
-4.47073
33.5576
-4.57407
33.4427
-4.67217
33.3033
-4.76468
33.1223
-4.84949
32.944
-4.92385
32.9228
-4.99374
32.9881
-5.08511
32.2555
-5.17894
28.5614