/*--------------------------------*- C++ -*----------------------------------*\
| =========                 |                                                 |
| \\      /  F ield         | OpenFOAM: The Open Source CFD Toolbox           |
|  \\    /   O peration     | Version:  2312                                  |
|   \\  /    A nd           | Website:  www.openfoam.com                      |
|    \\/     M anipulation  |                                                 |
\*---------------------------------------------------------------------------*/
FoamFile
{
    version     2.0;
    format      ascii;
    arch        "LSB;label=32;scalar=64";
    class       surfaceScalarField;
    location    "0.068";
    object      phi;
}
// * * * * * * * * * * * * * * * * * * * * * * * * * * * * * * * * * * * * * //

dimensions      [0 3 -1 0 0 0 0];

oriented        oriented;

internalField   nonuniform List<scalar> 
62015
(
52.8797
0.278013
-52.4319
53.3065
0.275897
53.7137
0.27343
54.1029
0.27062
54.4754
0.267477
54.8325
0.264006
55.1755
0.260217
55.5055
0.256116
55.8236
0.25171
56.1307
0.247006
56.428
0.242011
56.7161
0.236732
56.9961
0.231174
57.2687
0.225346
57.5347
0.219253
57.7948
0.212901
58.0498
0.206298
58.3002
0.199449
58.5468
0.192361
58.7901
0.185041
59.0306
0.177494
59.2691
0.169728
59.5059
0.161749
59.7416
0.153563
59.9767
0.145178
60.2116
0.136599
60.4467
0.127833
60.6825
0.118887
60.9193
0.109769
61.1576
0.100483
61.3977
0.0910386
61.6399
0.0814404
61.8846
0.0716973
62.132
0.0618147
62.3824
0.0518006
62.6362
0.0416614
62.8935
0.031405
63.1546
0.0210375
63.4198
0.0105668
63.6891
0
63.9629
-0.010656
64.2413
-0.0213929
64.5244
-0.0322051
64.8123
-0.0430833
65.1053
-0.0540217
65.4034
-0.0650119
65.7067
-0.0760471
66.0154
-0.087119
66.3293
-0.0982215
66.6488
-0.109346
66.9736
-0.120485
67.304
-0.131631
67.6398
-0.142777
67.9811
-0.153915
68.3279
-0.165037
68.6801
-0.176136
69.0375
-0.187205
69.4003
-0.198235
69.7688
-0.20922
70.142
-0.220152
70.5172
-0.231023
70.9027
-0.241815
71.3046
-0.252549
71.6691
-0.263246
72.0083
-0.273692
72.6227
-0.283905
73.1588
-0.295127
72.2033
-0.305988
73.1062
-0.310126
80.9783
-0.321909
70.9003
-0.366394
30.9412
-0.32896
3.49465
-0.142066
0.0126226
-0.0149312
-0.000804065
-3.39479e-05
1.40618e-06
3.47498e-06
1.57257e-07
-1.03235e-08
-1.04547e-09
-6.69313e-10
5.96972e-12
-2.55974e-11
51.904
0.554378
-51.5088
52.2816
0.54972
52.6422
0.544399
52.9872
0.538433
53.3179
0.531834
53.6354
0.524616
53.9406
0.516793
54.2347
0.508376
54.5185
0.499381
54.793
0.489817
55.059
0.479699
55.3173
0.469038
55.5687
0.457846
55.8139
0.446136
56.0535
0.433919
56.2883
0.421207
56.5189
0.408013
56.7459
0.394348
56.9698
0.380225
57.1913
0.365656
57.4107
0.350652
57.6287
0.335227
57.8456
0.319393
58.0621
0.303162
58.2784
0.286546
58.4951
0.269559
58.7124
0.252212
58.9309
0.23452
59.1509
0.216494
59.3726
0.198148
59.5965
0.179495
59.8228
0.160547
60.0519
0.141319
60.284
0.121824
60.5194
0.102075
60.7583
0.0820853
61.001
0.0618693
61.2477
0.0414404
61.4986
0.0208129
61.7539
0
62.0138
-0.0209839
62.2784
-0.0421247
62.5478
-0.0634086
62.8223
-0.0848214
63.1019
-0.106348
63.3867
-0.127975
63.6769
-0.149688
63.9724
-0.171472
64.2735
-0.193313
64.58
-0.215197
64.8921
-0.237108
65.2098
-0.259032
65.5331
-0.280956
65.8619
-0.302863
66.1963
-0.32474
66.5363
-0.346572
66.8818
-0.368345
67.2325
-0.390043
67.5887
-0.411651
67.9507
-0.433157
68.3171
-0.454548
68.686
-0.475802
69.0657
-0.496889
69.4605
-0.517858
69.8155
-0.538737
70.1557
-0.559072
70.7746
-0.579005
71.256
-0.601079
70.2772
-0.621892
71.4489
-0.628949
79.1577
-0.654639
67.8587
-0.744632
28.4787
-0.653018
2.95992
-0.268372
0.00670311
-0.0254376
-0.000663972
-2.07738e-05
1.91656e-06
5.67725e-06
1.23669e-07
-2.61402e-08
-1.10727e-09
-1.05497e-09
50.9372
0.828868
-50.5901
51.2692
0.821291
51.5868
0.812776
51.8909
0.803344
52.1828
0.793014
52.4633
0.781804
52.7334
0.76973
52.994
0.756811
53.2459
0.743064
53.4898
0.728506
53.7266
0.713153
53.957
0.697022
54.1815
0.680131
54.401
0.662495
54.6159
0.644132
54.8269
0.625059
55.0346
0.605292
55.2395
0.584849
55.4421
0.563746
55.6429
0.542
55.8424
0.51963
56.041
0.496652
56.2392
0.473085
56.4374
0.448945
56.636
0.424251
56.8354
0.399021
57.0359
0.373273
57.2379
0.347025
57.4417
0.320297
57.6477
0.293106
57.8562
0.265472
58.0674
0.237414
58.2816
0.20895
58.4991
0.1801
58.72
0.150884
58.9448
0.121322
59.1735
0.0914321
59.4063
0.0612349
59.6436
0.0307513
59.8853
0
60.1318
-0.030998
60.3831
-0.0622221
60.6394
-0.093652
60.9009
-0.125268
61.1675
-0.157048
61.4395
-0.188972
61.7169
-0.221019
61.9997
-0.253169
62.2882
-0.2854
62.5822
-0.317691
62.8818
-0.350022
63.1871
-0.382371
63.4981
-0.414716
63.8147
-0.447038
64.137
-0.479315
64.4649
-0.511525
64.7984
-0.543648
65.1374
-0.575662
65.4817
-0.607547
65.8315
-0.639279
66.1872
-0.67084
66.5472
-0.702214
66.9098
-0.733366
67.2838
-0.764253
67.6715
-0.79496
68.0178
-0.825511
68.3583
-0.855181
68.9801
-0.884339
69.4086
-0.916928
68.4122
-0.946752
69.8688
-0.955399
77.3426
-0.997841
64.6561
-1.13372
25.9028
-0.966347
2.43547
-0.374053
0.00205454
-0.0313224
-0.000524903
2.69241e-05
2.36337e-06
7.12664e-06
-4.61097e-08
1.00856e-07
49.9644
1.10103
-49.6607
50.2552
1.09022
50.5337
1.07822
50.8007
1.06507
51.0573
1.05078
51.3041
1.03537
51.5422
1.01887
51.7721
1.00129
51.9947
0.982664
52.2107
0.963002
52.4206
0.942328
52.6252
0.920664
52.8251
0.898028
53.0208
0.874442
53.2129
0.849928
53.4019
0.824505
53.5884
0.798196
53.7727
0.771021
53.9555
0.743001
54.1372
0.71416
54.3181
0.684517
54.4987
0.654097
54.6794
0.62292
54.8605
0.59101
55.0425
0.55839
55.2257
0.525082
55.4105
0.491109
55.5971
0.456496
55.7858
0.421265
55.977
0.385442
56.1709
0.349049
56.3678
0.312111
56.5679
0.274654
56.7716
0.236702
56.9789
0.198279
57.1902
0.159411
57.4056
0.120123
57.6253
0.080442
57.8496
0.0403923
58.0784
0
58.3121
-0.0407086
58.5507
-0.0817071
58.7945
-0.12297
59.0434
-0.164469
59.2976
-0.206179
59.5572
-0.248073
59.8223
-0.290124
60.0929
-0.332306
60.3691
-0.37459
60.651
-0.416951
60.9386
-0.45936
61.2318
-0.501791
61.5308
-0.544217
61.8355
-0.58661
62.1459
-0.628943
62.462
-0.671189
62.7838
-0.713321
63.1111
-0.75531
63.444
-0.797131
63.7822
-0.838756
64.1259
-0.880157
64.4754
-0.921308
64.8292
-0.96219
65.1857
-1.00276
65.5542
-1.04295
65.9349
-1.0829
66.2722
-1.12261
66.6147
-1.16106
67.2401
-1.19901
67.605
-1.24176
66.5974
-1.27936
68.3971
-1.28875
75.5373
-1.35203
61.242
-1.53012
23.2016
-1.2633
1.93294
-0.464493
-0.00156881
-0.0350059
-0.000425541
8.3363e-05
8.50182e-06
2.58275e-06
48.9813
1.3704
-48.7165
49.2351
1.35609
49.4783
1.34038
49.7119
1.32329
49.9364
1.30485
50.1528
1.28508
50.3618
1.26401
50.5639
1.24166
50.7598
1.21804
50.9503
1.1932
51.1357
1.16714
51.3168
1.1399
51.4941
1.1115
51.6681
1.08196
51.8392
1.0513
52.008
1.01955
52.175
0.986745
52.3405
0.952896
52.505
0.918034
52.669
0.882184
52.8327
0.845372
52.9967
0.807624
53.1611
0.768968
53.3265
0.729429
53.4931
0.689035
53.6613
0.647815
53.8313
0.605794
54.0035
0.563003
54.1781
0.519469
54.3554
0.475222
54.5357
0.430288
54.7192
0.3847
54.9062
0.338486
55.0968
0.291675
55.2913
0.244299
55.4899
0.196387
55.6927
0.14797
55.9
0.0990793
56.1119
0.0497453
56.3286
0
56.5501
-0.0501254
56.7767
-0.1006
57.0084
-0.15139
57.2454
-0.202465
57.4877
-0.253793
57.7355
-0.305341
57.9888
-0.357076
58.2476
-0.408966
58.5121
-0.460979
58.7823
-0.513081
59.0582
-0.565241
59.3399
-0.617424
59.6273
-0.669598
59.9204
-0.721731
60.2193
-0.773789
60.5239
-0.825738
60.8342
-0.877548
61.1501
-0.929184
61.4716
-0.980613
61.7987
-1.0318
62.1311
-1.08272
62.4689
-1.13333
62.8126
-1.18361
63.1604
-1.23353
63.511
-1.28302
63.8741
-1.33204
64.2478
-1.38074
64.577
-1.4291
64.9214
-1.47581
65.5463
-1.52211
65.8535
-1.57453
64.853
-1.6189
66.9445
-1.62873
73.6966
-1.71522
58.1377
-1.93031
20.9622
-1.55251
1.56869
-0.553122
-0.00364972
-0.0390521
0.000142381
-0.000373908
47.9884
1.63655
-47.7585
48.2089
1.61853
48.4205
1.59891
48.6239
1.57772
48.8196
1.55498
49.0085
1.53072
49.1911
1.50497
49.368
1.47775
49.5398
1.44908
49.707
1.41899
49.8702
1.38752
50.0299
1.35468
50.1866
1.3205
50.3407
1.28501
50.4927
1.24824
50.643
1.21021
50.7921
1.17096
50.9403
1.13051
51.0881
1.08888
51.2357
1.04612
51.3837
1.00225
51.5322
0.957292
51.6817
0.911288
51.8325
0.864264
51.9848
0.816254
52.139
0.767287
52.2954
0.717396
52.4542
0.666613
52.6156
0.614973
52.78
0.562507
52.9476
0.509248
53.1186
0.455233
53.2932
0.400493
53.4716
0.345064
53.6541
0.288982
53.8407
0.23228
54.0317
0.174996
54.2273
0.117163
54.4275
0.0588192
54.6326
0
54.8426
-0.0592578
55.0578
-0.118917
55.2781
-0.178942
55.5037
-0.239294
55.7347
-0.299937
55.9712
-0.360831
56.2132
-0.421942
56.4608
-0.483229
56.7141
-0.544656
56.973
-0.606184
57.2377
-0.667775
57.5082
-0.729391
57.7844
-0.790994
58.0663
-0.852545
58.354
-0.914006
58.6475
-0.97534
58.9467
-1.03651
59.2515
-1.09747
59.5619
-1.15819
59.878
-1.21863
60.1995
-1.27875
60.5263
-1.33851
60.8585
-1.39788
61.1965
-1.45682
61.5385
-1.5153
61.8836
-1.57325
62.2411
-1.6306
62.6082
-1.68757
62.9306
-1.74407
63.2749
-1.79854
63.894
-1.85271
64.1614
-1.91424
63.1834
-1.96477
65.4449
-1.97503
71.8499
-2.08414
55.6677
-2.33265
19.4341
-1.84803
1.35656
-0.654295
-0.0453532
-0.00395892
46.9882
1.89913
-46.7896
47.179
1.87723
47.3621
1.85355
47.5383
1.82813
47.7081
1.80097
47.8721
1.77212
48.0308
1.74161
48.1849
1.70945
48.3348
1.67567
48.481
1.64032
48.624
1.6034
48.7642
1.56496
48.9021
1.52502
49.0381
1.48361
49.1726
1.44076
49.306
1.3965
49.4387
1.35086
49.5711
1.30388
49.7034
1.25559
49.8361
1.20602
49.9695
1.15519
50.1039
1.10316
50.2395
1.04994
50.3768
0.995581
50.5159
0.94011
50.6572
0.883564
50.8009
0.825979
50.9473
0.767391
51.0965
0.707838
51.2489
0.647357
51.4046
0.585985
51.5639
0.523761
51.727
0.460724
51.894
0.396912
52.0651
0.332365
52.2405
0.267122
52.4204
0.201223
52.6049
0.134709
52.7941
0.0676217
52.9883
0
53.1874
-0.0681139
53.3917
-0.136678
53.6011
-0.205651
53.816
-0.274991
54.0362
-0.344655
54.2619
-0.414602
54.4931
-0.484788
54.73
-0.555171
54.9725
-0.625707
55.2207
-0.696355
55.4746
-0.76707
55.7343
-0.83781
55.9997
-0.908532
56.2709
-0.979191
56.5478
-1.04975
56.8305
-1.12015
57.1188
-1.19037
57.4129
-1.26035
57.7126
-1.33005
58.0178
-1.39943
58.3286
-1.46845
58.6448
-1.53706
58.9663
-1.60522
59.2931
-1.67289
59.6256
-1.74002
59.9621
-1.8066
60.3017
-1.87253
60.6536
-1.93773
61.0145
-2.00248
61.3317
-2.06664
61.6726
-2.1284
62.281
-2.18991
62.5326
-2.2599
61.585
-2.31651
63.8648
-2.3272
70.0403
-2.45531
53.971
-2.73635
18.6644
-2.16889
-0.74852
1.74404
45.984
2.15787
-45.8135
46.148
2.13195
46.3055
2.10409
46.4572
2.07432
46.6035
2.04266
46.7451
2.00915
46.8823
1.97381
47.0157
1.93667
47.1457
1.89776
47.2728
1.85711
47.3974
1.81476
47.5199
1.77072
47.6407
1.72504
47.7602
1.67774
47.8787
1.62887
47.9967
1.57844
48.1144
1.5265
48.2322
1.47307
48.3505
1.41821
48.4694
1.36193
48.5894
1.30428
48.7108
1.24529
48.8337
1.185
48.9585
1.12345
49.0854
1.06067
49.2147
0.996714
49.3467
0.93161
49.4815
0.865401
49.6194
0.798128
49.7606
0.729833
49.9052
0.660555
50.0536
0.590339
50.2058
0.519226
50.3621
0.44726
50.5226
0.374483
50.6875
0.300941
50.8569
0.226676
51.031
0.151734
51.2099
0.0761605
51.3937
0
51.5825
-0.0767016
51.7765
-0.153898
51.9757
-0.231544
52.1802
-0.309591
52.3902
-0.387994
52.6056
-0.466706
52.8266
-0.545678
53.0531
-0.624864
53.2854
-0.704217
53.5232
-0.783688
53.7668
-0.863231
54.0161
-0.942796
54.2712
-1.02234
54.532
-1.1018
54.7985
-1.18115
55.0707
-1.26033
55.3486
-1.33929
55.6322
-1.41799
55.9214
-1.49638
56.2162
-1.5744
56.5165
-1.65202
56.8223
-1.72919
57.1334
-1.80585
57.4497
-1.88196
57.7713
-1.95748
58.0985
-2.03236
58.4297
-2.10657
58.7639
-2.18001
59.11
-2.25259
59.4652
-2.32462
59.7787
-2.39597
60.113
-2.4646
60.7061
-2.53284
60.9668
-2.6106
60.0556
-2.67343
62.1842
-2.68619
68.3757
-2.81629
52.3902
-3.19808
-2.24597
28.2831
44.9788
2.41253
-44.8334
45.1187
2.38249
45.2531
2.35035
45.3827
2.31616
45.5079
2.27993
45.6292
2.2417
45.7469
2.20149
45.8616
2.15935
45.9736
2.11529
46.0834
2.06935
46.1913
2.02157
46.2976
1.97196
46.4029
1.92058
46.5073
1.86744
46.6113
1.8126
46.7151
1.75607
46.8191
1.6979
46.9236
1.63813
47.0289
1.57679
47.1352
1.51392
47.2429
1.44956
47.3522
1.38375
47.4634
1.31652
47.5767
1.24793
47.6924
1.17801
47.8106
1.10681
47.9317
1.03436
48.0558
0.960709
48.1831
0.885906
48.3138
0.809993
48.4482
0.733014
48.5863
0.655017
48.7285
0.576046
48.8747
0.496149
49.0253
0.415373
49.1803
0.333766
49.3398
0.251376
49.5041
0.168253
49.6732
0.0844441
49.8472
0
50.0263
-0.0850297
50.2105
-0.170595
50.4
-0.256645
50.5948
-0.343129
50.795
-0.429996
51.0006
-0.517195
51.2118
-0.604674
51.4285
-0.692382
51.6509
-0.780266
51.8789
-0.868276
52.1125
-0.956358
52.3519
-1.04446
52.597
-1.13253
52.8477
-1.22052
53.1042
-1.30836
53.3664
-1.39603
53.6342
-1.48344
53.9077
-1.57057
54.1867
-1.65735
54.4713
-1.74373
54.7614
-1.82967
55.057
-1.9151
55.3579
-1.99999
55.6641
-2.08426
55.9755
-2.16789
56.292
-2.25081
56.614
-2.33297
56.9401
-2.41435
57.269
-2.49484
57.6091
-2.57434
57.9591
-2.65317
58.27
-2.73125
58.5952
-2.80628
59.1643
-2.88092
59.4844
-2.96407
58.4436
-3.042
61.309
-3.01972
62.8853
-3.2962
-3.24908
61.7827
43.9752
2.66293
-43.8524
44.0934
2.62867
44.2071
2.59219
44.3168
2.55351
44.4229
2.51267
44.5259
2.46969
44.626
2.42461
44.7237
2.37744
44.8194
2.32824
44.9134
2.27702
45.0061
2.22383
45.0978
2.1687
45.1889
2.11166
45.2796
2.05274
45.3702
1.99199
45.4612
1.92944
45.5526
1.86513
45.6449
1.79911
45.7383
1.7314
45.8331
1.66205
45.9295
1.5911
46.0277
1.5186
46.1281
1.44459
46.2307
1.3691
46.336
1.2922
46.444
1.21391
46.5549
1.13429
46.6691
1.05338
46.7866
0.971235
46.9076
0.887897
47.0324
0.803418
47.161
0.717845
47.2937
0.631229
47.4305
0.543619
47.5718
0.455068
47.7174
0.365626
47.8677
0.275346
48.0228
0.184279
48.1826
0.0924795
48.3474
0
48.5173
-0.0931057
48.6923
-0.186784
48.8725
-0.280979
49.0581
-0.375637
49.2489
-0.470703
49.4453
-0.566121
49.6471
-0.661837
49.8544
-0.757793
50.0674
-0.853935
50.2859
-0.950205
50.51
-1.04655
50.7399
-1.14291
50.9753
-1.23923
51.2164
-1.33545
51.4632
-1.43152
51.7157
-1.52738
51.9737
-1.62298
52.2374
-1.71825
52.5066
-1.81315
52.7813
-1.90761
53.0615
-2.00159
53.3471
-2.09501
53.6381
-2.18784
53.9344
-2.28001
54.2358
-2.37147
54.5423
-2.46217
54.8539
-2.55204
55.1708
-2.64104
55.4919
-2.72913
55.8156
-2.81622
56.1498
-2.90217
56.4939
-2.98736
56.8078
-3.0715
57.1007
-3.15353
57.7377
-3.22983
57.7567
-3.33301
57.7651
-3.37556
58.6539
-3.46222
-3.55366
59.7171
42.9757
2.9089
-42.8732
43.0744
2.87038
43.1694
2.8295
43.2612
2.78631
43.35
2.74082
43.4364
2.69308
43.5206
2.6431
43.603
2.59093
43.6839
2.53659
43.7636
2.48013
43.8425
2.42157
43.9209
2.36094
43.999
2.2983
44.0772
2.23367
44.1557
2.16709
44.2349
2.0986
44.3149
2.02825
44.396
1.95606
44.4785
1.8821
44.5626
1.80639
44.6486
1.72899
44.7367
1.64993
44.827
1.56926
44.9199
1.48704
45.0155
1.4033
45.114
1.31809
45.2156
1.23147
45.3205
1.14348
45.4289
1.05417
45.5409
0.963604
45.6567
0.871819
45.7764
0.778873
45.9003
0.684819
46.0283
0.589711
46.1608
0.493603
46.2977
0.396549
46.4393
0.298606
46.5856
0.199829
46.7368
0.100274
46.8929
0
47.054
-0.100937
47.2203
-0.20248
47.3917
-0.30457
47.5685
-0.407148
47.7505
-0.510156
47.938
-0.613534
48.1309
-0.717224
48.3293
-0.821165
48.5332
-0.925298
48.7426
-1.02956
48.9577
-1.1339
49.1783
-1.23825
49.4045
-1.34255
49.6364
-1.44674
49.8738
-1.55076
50.1169
-1.65455
50.3655
-1.75805
50.6197
-1.8612
50.8793
-1.96394
51.1445
-2.06621
51.4151
-2.16796
51.691
-2.26911
51.9723
-2.36962
52.2589
-2.46942
52.5506
-2.56845
52.8474
-2.66666
53.1492
-2.76399
53.4558
-2.86038
53.7678
-2.95577
54.0839
-3.05014
54.403
-3.14334
54.7288
-3.2354
55.0766
-3.32603
55.3607
-3.41735
55.7235
-3.50097
56.1677
-3.59256
56.3925
-3.68071
56.6447
-3.75638
-3.83987
56.8459
41.9823
3.15034
-41.8981
42.0635
3.1075
42.1416
3.0622
42.2172
3.01447
42.2905
2.96433
42.3619
2.91182
42.4317
2.85696
42.5002
2.7998
42.5677
2.74036
42.6345
2.67868
42.7008
2.61479
42.7671
2.54873
42.8335
2.48055
42.9003
2.41027
42.9677
2.33794
43.0361
2.2636
43.1056
2.1873
43.1765
2.10907
43.249
2.02896
43.3234
1.94701
43.3998
1.86327
43.4785
1.77779
43.5597
1.69062
43.6435
1.6018
43.7302
1.51138
43.8199
1.41942
43.9129
1.32597
44.0092
1.23107
44.1091
1.13479
44.2126
1.03717
44.3201
0.938272
44.4315
0.838151
44.5471
0.736862
44.6669
0.634463
44.7912
0.53101
44.9199
0.426562
45.0533
0.321177
45.1914
0.214915
45.3344
0.107836
45.4822
0
45.6351
-0.108533
45.7931
-0.2177
45.9562
-0.327441
46.1246
-0.437693
46.2982
-0.548394
46.4772
-0.659481
46.6616
-0.770892
46.8514
-0.882563
47.0467
-0.994431
47.2475
-1.10643
47.4538
-1.2185
47.6656
-1.33058
47.883
-1.44259
48.1059
-1.55449
48.3344
-1.6662
48.5684
-1.77766
48.8079
-1.8888
49.0529
-1.99957
49.3033
-2.10989
49.5592
-2.21971
49.8204
-2.32896
50.087
-2.43759
50.3589
-2.54551
50.6359
-2.65269
50.9181
-2.75904
51.2054
-2.86452
51.4977
-2.96905
51.7948
-3.07258
52.0967
-3.17505
52.4035
-3.2764
52.7156
-3.37655
53.0272
-3.4756
53.3537
-3.57281
53.6814
-3.66981
53.9866
-3.76444
54.3332
-3.85649
54.7023
-3.9501
55.0284
-4.04107
-4.12924
55.36
40.9968
3.38714
-40.929
41.0622
3.33997
41.1252
3.29023
41.1862
3.23795
41.2455
3.18316
41.3034
3.12589
41.3601
3.06618
41.416
3.00405
41.4714
2.93954
41.5264
2.87269
41.5814
2.80353
41.6367
2.7321
41.6924
2.65845
41.7488
2.5826
41.8061
2.50461
41.8647
2.42451
41.9246
2.34236
41.9861
2.25818
42.0495
2.17204
42.1149
2.08397
42.1826
1.99403
42.2527
1.90227
42.3254
1.80873
42.4008
1.71346
42.4793
1.61652
42.5609
1.51797
42.6458
1.41785
42.7342
1.31622
42.8262
1.21313
42.9219
1.10865
43.0216
1.00283
43.1252
0.895726
43.2331
0.7874
43.3452
0.677912
43.4618
0.567322
43.5828
0.455691
43.7085
0.34308
43.8389
0.229553
43.9741
0.115171
44.1141
0
44.2592
-0.115898
44.4093
-0.232458
44.5646
-0.349614
44.725
-0.467302
44.8906
-0.585456
45.0616
-0.70401
45.2378
-0.822897
45.4195
-0.94205
45.6065
-1.0614
45.799
-1.18089
45.9969
-1.30044
46.2003
-1.42
46.4092
-1.53948
46.6235
-1.65882
46.8433
-1.77797
47.0686
-1.89684
47.2993
-2.01537
47.5354
-2.1335
47.7769
-2.25116
48.0238
-2.36827
48.2759
-2.48479
48.5334
-2.60062
48.7961
-2.71573
49.0639
-2.83002
49.3369
-2.94345
49.6148
-3.05595
49.8978
-3.16744
50.1856
-3.27788
50.4782
-3.38718
50.7752
-3.49531
51.0777
-3.60215
51.3836
-3.70778
51.6925
-3.81189
52.0113
-3.91455
52.3309
-4.01613
52.6456
-4.11565
52.9737
-4.21336
53.3194
-4.30988
-4.40608
53.637
40.0208
3.61923
-39.9677
40.072
3.56772
40.1214
3.51354
40.1692
3.45672
40.2159
3.3973
40.2615
3.3353
40.3065
3.27075
40.3511
3.20369
40.3954
3.13416
40.4398
3.06219
40.4845
2.98782
40.5297
2.91109
40.5757
2.83204
40.6227
2.75071
40.6708
2.66714
40.7204
2.58139
40.7716
2.49348
40.8246
2.40347
40.8796
2.31142
40.9368
2.21736
40.9964
2.12134
41.0585
2.02342
41.1234
1.92366
41.1912
1.82209
41.2621
1.71879
41.3361
1.6138
41.4136
1.50717
41.4946
1.39898
41.5792
1.28927
41.6677
1.1781
41.7601
1.06554
41.8565
0.951643
41.9571
0.836475
42.0621
0.720095
42.1714
0.60257
42.2852
0.483961
42.4036
0.364334
42.5267
0.243754
42.6546
0.122287
42.7873
0
42.925
-0.123041
43.0676
-0.246767
43.2154
-0.371111
43.3683
-0.496005
43.5263
-0.621378
43.6896
-0.747164
43.8581
-0.87329
44.0319
-0.999689
44.2111
-1.12629
44.3956
-1.25302
44.5855
-1.37981
44.7808
-1.5066
44.9815
-1.6333
45.1875
-1.75985
45.399
-1.88619
45.6159
-2.01223
45.8381
-2.1379
46.0656
-2.26315
46.2985
-2.38789
46.5367
-2.51206
46.7801
-2.63559
47.0287
-2.7584
47.2825
-2.88044
47.5414
-3.00162
47.8053
-3.12189
48.0742
-3.24116
48.348
-3.35939
48.6266
-3.47649
48.91
-3.59241
49.198
-3.70708
49.4905
-3.82041
49.788
-3.93237
50.089
-4.04292
50.394
-4.15188
50.7052
-4.25929
51.0202
-4.36518
51.3334
-4.46938
51.6593
-4.57115
-4.67306
51.9706
39.0555
3.84656
-39.0157
39.094
3.79072
39.1311
3.73211
39.1671
3.67077
39.2024
3.60674
39.237
3.54003
39.2714
3.4707
39.3057
3.39876
39.3401
3.32426
39.3748
3.24723
39.4102
3.16772
39.4463
3.08576
39.4835
3.00139
39.5219
2.91466
39.5616
2.82561
39.603
2.73429
39.6462
2.64074
39.6914
2.54502
39.7387
2.44716
39.7884
2.34723
39.8406
2.24527
39.8955
2.14133
39.9532
2.03548
40.0139
1.92777
40.0777
1.81825
40.1448
1.70697
40.2154
1.59401
40.2895
1.47942
40.3674
1.36325
40.4491
1.24558
40.5347
1.12645
40.6244
1.00595
40.7182
0.884126
40.8164
0.761049
40.9189
0.636784
41.0259
0.511398
41.1375
0.384958
41.2537
0.257532
41.3747
0.12919
41.5005
0
41.6311
-0.129968
41.7668
-0.260642
41.9074
-0.391953
42.0531
-0.523828
42.2039
-0.656197
42.3599
-0.788986
42.521
-0.922123
42.6874
-1.05554
42.859
-1.18915
43.0359
-1.32289
43.2181
-1.45669
43.4056
-1.59047
43.5985
-1.72416
43.7966
-1.85769
44
-1.99097
44.2088
-2.12394
44.4228
-2.25653
44.6421
-2.38866
44.8666
-2.52025
45.0964
-2.65123
45.3313
-2.78154
45.5713
-2.9111
45.8165
-3.03983
46.0666
-3.16767
46.3218
-3.29454
46.5818
-3.42037
46.8467
-3.5451
47.1164
-3.66865
47.3908
-3.79095
47.6699
-3.91193
47.9533
-4.03154
48.2413
-4.14968
48.5338
-4.26632
48.8302
-4.38138
49.1304
-4.49478
49.4361
-4.60642
49.7437
-4.71651
50.0602
-4.82418
-4.9317
50.3601
38.1022
4.0691
-38.0742
38.1292
4.00894
38.1553
3.94593
38.1807
3.8801
38.2057
3.81149
38.2304
3.74012
38.2552
3.66604
38.2802
3.58928
38.3056
3.50987
38.3316
3.42785
38.3585
3.34326
38.3864
3.25615
38.4156
3.16655
38.4462
3.07451
38.4783
2.98007
38.5123
2.88329
38.5482
2.78421
38.5862
2.68287
38.6265
2.57934
38.6693
2.47366
38.7147
2.36589
38.7629
2.25607
38.814
2.14427
38.8681
2.03055
38.9255
1.91496
38.9862
1.79756
39.0504
1.67842
39.1182
1.55759
39.1897
1.43514
39.265
1.31113
39.3443
1.18562
39.4277
1.05869
39.5152
0.930395
39.6071
0.800807
39.7032
0.669994
39.8038
0.538025
39.909
0.40497
40.0188
0.2709
40.1332
0.135886
40.2524
-2.73807e-07
40.3765
-0.136685
40.5054
-0.274096
40.6393
-0.41216
40.7782
-0.550802
40.9221
-0.689946
41.0711
-0.82952
41.2252
-0.969446
41.3845
-1.10965
41.5489
-1.25005
41.7185
-1.39058
41.8934
-1.53116
42.0734
-1.67171
42.2587
-1.81216
42.4492
-1.95243
42.6449
-2.09244
42.8459
-2.23211
43.052
-2.37137
43.2633
-2.51015
43.4798
-2.64837
43.7014
-2.78594
43.9281
-2.9228
44.1598
-3.05887
44.3966
-3.19408
44.6383
-3.32835
44.8849
-3.4616
45.1364
-3.59377
45.3926
-3.72477
45.6536
-3.85455
45.9192
-3.98302
46.1894
-4.11011
46.4641
-4.23576
46.7431
-4.35989
47.0264
-4.48244
47.3142
-4.60333
47.6057
-4.72252
47.9017
-4.83986
48.1999
-4.95552
48.5082
-5.0687
-5.18182
48.8003
37.1618
4.28684
-37.1445
37.1785
4.22238
37.1947
4.15499
37.2105
4.08471
37.2263
4.01157
37.2421
3.93559
37.2582
3.85682
37.2749
3.77529
37.2922
3.69103
37.3103
3.60409
37.3296
3.51451
37.35
3.42232
37.3719
3.32758
37.3954
3.23032
37.4206
3.1306
37.4478
3.02846
37.4771
2.92395
37.5086
2.81712
37.5425
2.70803
37.579
2.59673
37.6181
2.48326
37.6602
2.3677
37.7052
2.2501
37.7533
2.13051
37.8047
2.009
37.8595
1.88563
37.9177
1.76046
37.9796
1.63356
38.0453
1.50498
38.1147
1.37481
38.1882
1.24309
38.2656
1.1099
38.3473
0.975319
38.4331
0.839404
38.5233
0.702229
38.6179
0.563867
38.717
0.424389
38.8207
0.283869
38.929
0.142382
39.042
0
39.1598
-0.1432
39.2824
-0.287143
39.4099
-0.431751
39.5423
-0.57695
39.6797
-0.72266
39.822
-0.868805
39.9694
-1.01531
40.1219
-1.16208
40.2795
-1.30906
40.4421
-1.45616
40.6099
-1.6033
40.7828
-1.7504
40.9608
-1.89739
41.144
-2.04417
41.3323
-2.19069
41.5257
-2.33684
41.7242
-2.48256
41.9279
-2.62777
42.1366
-2.77239
42.3503
-2.91633
42.569
-3.05952
42.7927
-3.20189
43.0213
-3.34335
43.2548
-3.48383
43.4932
-3.62325
43.7363
-3.76154
43.9841
-3.89861
44.2366
-4.0344
44.4937
-4.16883
44.7552
-4.30183
45.0212
-4.43331
45.2916
-4.56322
45.5662
-4.69148
45.845
-4.81801
46.1278
-4.94277
46.4151
-5.06561
46.7043
-5.18672
47.0034
-5.3052
-5.42366
47.2869
36.2351
4.49977
-36.2273
36.2426
4.43105
36.2499
4.35933
36.2572
4.28463
36.2646
4.20701
36.2725
4.12647
36.2808
4.04307
36.2899
3.95683
36.2999
3.8678
36.3109
3.77602
36.3232
3.68152
36.337
3.58435
36.3523
3.48455
36.3693
3.38217
36.3883
3.27726
36.4093
3.16987
36.4325
3.06004
36.4581
2.94784
36.4861
2.8333
36.5168
2.7165
36.5503
2.59748
36.5867
2.4763
36.6261
2.35303
36.6687
2.22772
36.7146
2.10044
36.7638
1.97124
36.8166
1.8402
36.8731
1.70738
36.9332
1.57284
36.9972
1.43666
37.0652
1.2989
37.1372
1.15964
37.2133
1.01894
37.2936
0.876872
37.3782
0.733517
37.4671
0.588945
37.5605
0.443232
37.6585
0.296452
37.761
0.148683
37.8681
0
37.98
-0.149518
38.0966
-0.299793
38.218
-0.450746
38.3442
-0.602299
38.4754
-0.75437
38.6114
-0.906881
38.7524
-1.05975
38.8984
-1.21289
39.0493
-1.36624
39.2053
-1.51969
39.3663
-1.67318
39.5324
-1.82662
39.7035
-1.97993
39.8796
-2.13303
40.0608
-2.28583
40.2469
-2.43825
40.4382
-2.59021
40.6344
-2.74164
40.8355
-2.89244
41.0416
-3.04254
41.2527
-3.19186
41.4686
-3.34031
41.6894
-3.48782
41.9149
-3.6343
42.1452
-3.77968
42.3802
-3.92388
42.6198
-4.06681
42.8641
-4.20841
43.1128
-4.3486
43.366
-4.48729
43.6235
-4.62442
43.8854
-4.7599
44.1514
-4.89368
44.4216
-5.02566
44.6957
-5.1558
44.9743
-5.28395
45.2549
-5.41031
45.5451
-5.53393
-5.65756
45.8203
35.3228
4.70791
-35.3236
35.3221
4.63497
35.3215
4.55895
35.3211
4.4799
35.3211
4.39784
35.3217
4.31281
35.3231
4.22484
35.3254
4.13397
35.3288
4.04024
35.3334
3.94368
35.3395
3.84435
35.3471
3.74228
35.3565
3.63752
35.3677
3.53012
35.3809
3.42013
35.3963
3.30758
35.414
3.19255
35.4342
3.07508
35.4569
2.95523
35.4823
2.83305
35.5106
2.7086
35.5418
2.58194
35.5761
2.45313
35.6136
2.32224
35.6544
2.18933
35.6986
2.05445
35.7463
1.91769
35.7977
1.77911
35.8528
1.63877
35.9117
1.49675
35.9745
1.35311
36.0414
1.20793
36.1123
1.06128
36.1874
0.913244
36.2667
0.763885
36.3504
0.613283
36.4385
0.461515
36.531
0.30866
36.628
0.154795
36.7296
0
36.8358
-0.155645
36.9467
-0.312061
37.0624
-0.469164
37.1828
-0.626874
37.308
-0.785109
37.438
-0.943785
37.5729
-1.10282
37.7127
-1.26213
37.8573
-1.42163
38.0069
-1.58124
38.1615
-1.74088
38.3209
-1.90045
38.4854
-2.05988
38.6547
-2.21908
38.829
-2.37796
39.0083
-2.53644
39.1924
-2.69445
39.3814
-2.85188
39.5754
-3.00867
39.7741
-3.16472
39.9777
-3.31995
40.1861
-3.47428
40.3993
-3.62763
40.6171
-3.77991
40.8396
-3.93105
41.0668
-4.08096
41.2984
-4.22956
41.5346
-4.37677
41.7752
-4.52251
42.0202
-4.66671
42.2695
-4.80929
42.5231
-4.95016
42.7807
-5.08926
43.0425
-5.2265
43.3082
-5.36184
43.5782
-5.49512
43.8503
-5.62654
44.1318
-5.75513
-5.88373
44.3989
34.4256
4.91127
-34.434
34.4176
4.83416
34.4098
4.7539
34.4025
4.67054
34.3959
4.58412
34.39
4.49465
34.3851
4.40218
34.3813
4.30675
34.3788
4.2084
34.3777
4.10716
34.3781
4.00308
34.3802
3.8962
34.3842
3.78657
34.3902
3.67424
34.3983
3.55926
34.4086
3.44168
34.4213
3.32156
34.4365
3.19893
34.4544
3.07388
34.475
2.94644
34.4984
2.81669
34.5249
2.68468
34.5545
2.55047
34.5873
2.41414
34.6234
2.27573
34.6629
2.13533
34.706
1.993
34.7526
1.8488
34.803
1.70281
34.8572
1.5551
34.9153
1.40575
34.9773
1.25482
35.0434
1.1024
35.1136
0.94855
35.188
0.793358
35.2667
0.636901
35.3497
0.479256
35.4372
0.320504
35.529
0.160724
35.6254
0
35.7263
-0.161588
35.8318
-0.323956
35.942
-0.487021
36.0568
-0.650699
36.1763
-0.814906
36.3006
-0.979556
36.4297
-1.14456
36.5636
-1.30984
36.7022
-1.47531
36.8457
-1.64088
36.994
-1.80646
37.1472
-1.97197
37.3052
-2.13731
37.4681
-2.30242
37.6358
-2.46718
37.8083
-2.63153
37.9857
-2.79537
38.1678
-2.95862
38.3548
-3.12119
38.5465
-3.28299
38.7429
-3.44394
38.944
-3.60395
39.1498
-3.76295
39.3601
-3.92083
39.5751
-4.07753
39.7946
-4.23296
40.0185
-4.38703
40.2469
-4.53966
40.4797
-4.69077
40.7167
-4.84028
40.958
-4.98812
41.2034
-5.1342
41.4529
-5.27844
41.7065
-5.42076
41.9638
-5.56112
42.2256
-5.69935
42.4893
-5.83566
42.7623
-5.96904
-6.10245
43.0214
33.544
5.10989
-33.5591
33.5293
5.02866
33.5152
4.94422
33.5018
4.85662
33.4892
4.76588
33.4775
4.67205
33.467
4.57516
33.4578
4.47524
33.4499
4.37234
33.4436
4.2665
33.439
4.15776
33.4362
4.04616
33.4353
3.93177
33.4365
3.81461
33.4399
3.69475
33.4456
3.57224
33.4538
3.44712
33.4645
3.31947
33.4779
3.18933
33.4942
3.05676
33.5133
2.92183
33.5354
2.7846
33.5606
2.64512
33.5891
2.50348
33.6209
2.35972
33.6561
2.21393
33.6948
2.06617
33.7372
1.91651
33.7832
1.76502
33.833
1.61178
33.8866
1.45687
33.9442
1.30035
34.0057
1.14231
34.0714
0.982822
34.1412
0.821965
34.2152
0.659821
34.2934
0.49647
34.376
0.331994
34.463
0.166477
34.5544
-2.73757e-07
34.6503
-0.167351
34.7507
-0.335491
34.8557
-0.504335
34.9652
-0.673797
35.0794
-0.84379
35.1982
-1.01423
35.3217
-1.18502
35.4499
-1.35608
35.5828
-1.52732
35.7205
-1.69866
35.8629
-1.86999
36.01
-2.04125
36.1619
-2.21232
36.3185
-2.38313
36.4799
-2.55359
36.646
-2.72361
36.8168
-2.89309
36.9923
-3.06196
37.1725
-3.23012
37.3573
-3.39748
37.5468
-3.56396
37.7409
-3.72946
37.9395
-3.89391
38.1427
-4.05721
38.3503
-4.21929
38.5624
-4.38004
38.7789
-4.53939
38.9997
-4.69726
39.2248
-4.85356
39.4541
-5.00821
39.6875
-5.16112
39.9251
-5.31222
40.1667
-5.46143
40.4122
-5.60866
40.6615
-5.75386
40.9151
-5.89687
41.1707
-6.03789
41.4352
-6.17591
-6.31394
41.6865
32.6782
5.30381
-32.6994
32.6577
5.21851
32.6379
5.12995
32.619
5.03817
32.6011
4.94319
32.5843
4.84507
32.5688
4.74382
32.5546
4.6395
32.542
4.53214
32.5311
4.42178
32.5219
4.30847
32.5146
4.19225
32.5094
4.07318
32.5063
3.9513
32.5055
3.82666
32.5071
3.69932
32.5111
3.56933
32.5178
3.43676
32.5272
3.30165
32.5394
3.16407
32.5545
3.02409
32.5726
2.88175
32.5939
2.73714
32.6184
2.59032
32.6462
2.44135
32.6775
2.29031
32.7122
2.13726
32.7505
1.98229
32.7924
1.82545
32.8381
1.66683
32.8876
1.50651
32.941
1.34456
32.9984
1.18106
33.0597
1.01609
33.1252
0.849729
33.1948
0.682063
33.2686
0.513172
33.3467
0.343142
33.429
0.172056
33.5157
0
33.6068
-0.17294
33.7024
-0.346677
33.8024
-0.521123
33.9069
-0.696191
34.016
-0.871791
34.1296
-1.04783
34.2478
-1.22423
34.3706
-1.40089
34.4981
-1.57773
34.6301
-1.75464
34.7668
-1.93155
34.9082
-2.10836
35.0541
-2.28498
35.2048
-2.46131
35.36
-2.63728
35.5199
-2.81278
35.6845
-2.98772
35.8536
-3.16202
36.0273
-3.33558
36.2055
-3.50832
36.3883
-3.68014
36.5756
-3.85095
36.7673
-4.02067
36.9635
-4.18921
37.1641
-4.35647
37.369
-4.52237
37.5782
-4.68683
37.7916
-4.84975
38.0093
-5.01106
38.2311
-5.17067
38.4569
-5.32849
38.6868