/*--------------------------------*- C++ -*----------------------------------*\
| =========                 |                                                 |
| \\      /  F ield         | OpenFOAM: The Open Source CFD Toolbox           |
|  \\    /   O peration     | Version:  2312                                  |
|   \\  /    A nd           | Website:  www.openfoam.com                      |
|    \\/     M anipulation  |                                                 |
\*---------------------------------------------------------------------------*/
FoamFile
{
    version     2.0;
    format      ascii;
    arch        "LSB;label=32;scalar=64";
    class       volVectorField;
    location    "0.678";
    object      U;
}
// * * * * * * * * * * * * * * * * * * * * * * * * * * * * * * * * * * * * * //

dimensions      [0 1 -1 0 0 0 0];

internalField   nonuniform List<vector> 
31205
(
(206.168 0 0)
(203.237 0 0)
(200.213 0 0)
(197.09 0 0)
(193.86 0 0)
(190.515 0 0)
(187.046 0 0)
(183.445 0 0)
(179.698 0 0)
(175.794 0 0)
(171.718 0 0)
(167.455 0 0)
(162.987 0 0)
(158.298 0 0)
(153.371 0 0)
(148.2 0 0)
(142.795 0 0)
(137.204 0 0)
(131.534 0 0)
(125.96 0 0)
(120.706 0 0)
(115.993 0 0)
(111.984 0 0)
(108.756 0 0)
(106.296 0 0)
(104.534 0 0)
(103.372 0 0)
(102.704 0 0)
(102.435 0 0)
(102.483 0 0)
(102.785 0 0)
(103.287 0 0)
(103.948 0 0)
(104.737 0 0)
(105.628 0 0)
(106.603 0 0)
(107.645 0 0)
(108.743 0 0)
(109.886 0 0)
(111.067 0 0)
(112.278 0 0)
(113.515 0 0)
(114.774 0 0)
(116.049 0 0)
(117.339 0 0)
(118.641 0 0)
(119.953 0 0)
(121.272 0 0)
(122.597 0 0)
(123.927 0 0)
(125.26 0 0)
(126.596 0 0)
(127.933 0 0)
(129.272 0 0)
(130.61 0 0)
(131.948 0 0)
(133.285 0 0)
(134.62 0 0)
(135.954 0 0)
(137.285 0 0)
(138.614 0 0)
(139.94 0 0)
(141.263 0 0)
(142.583 0 0)
(143.899 0 0)
(145.211 0 0)
(146.52 0 0)
(147.825 0 0)
(149.126 0 0)
(150.423 0 0)
(151.715 0 0)
(153.003 0 0)
(154.287 0 0)
(155.565 0 0)
(156.844 0 0)
(158.099 0 0)
(159.411 0 0)
(160.531 0 0)
(162.218 0 0)
(203.518 0 0)
(200.585 0 0)
(197.558 0 0)
(194.431 0 0)
(191.196 0 0)
(187.846 0 0)
(184.371 0 0)
(180.761 0 0)
(177.005 0 0)
(173.089 0 0)
(169.001 0 0)
(164.723 0 0)
(160.241 0 0)
(155.538 0 0)
(150.603 0 0)
(145.437 0 0)
(140.062 0 0)
(134.548 0 0)
(129.023 0 0)
(123.675 0 0)
(118.721 0 0)
(114.354 0 0)
(110.7 0 0)
(107.799 0 0)
(105.618 0 0)
(104.08 0 0)
(103.086 0 0)
(102.541 0 0)
(102.357 0 0)
(102.461 0 0)
(102.795 0 0)
(103.313 0 0)
(103.978 0 0)
(104.761 0 0)
(105.639 0 0)
(106.596 0 0)
(107.615 0 0)
(108.687 0 0)
(109.803 0 0)
(110.953 0 0)
(112.134 0 0)
(113.339 0 0)
(114.564 0 0)
(115.806 0 0)
(117.063 0 0)
(118.33 0 0)
(119.608 0 0)
(120.892 0 0)
(122.183 0 0)
(123.479 0 0)
(124.778 0 0)
(126.079 0 0)
(127.383 0 0)
(128.687 0 0)
(129.991 0 0)
(131.296 0 0)
(132.599 0 0)
(133.901 0 0)
(135.202 0 0)
(136.5 0 0)
(137.796 0 0)
(139.09 0 0)
(140.381 0 0)
(141.668 0 0)
(142.952 0 0)
(144.233 0 0)
(145.51 0 0)
(146.784 0 0)
(148.053 0 0)
(149.319 0 0)
(150.58 0 0)
(151.838 0 0)
(153.091 0 0)
(154.338 0 0)
(155.587 0 0)
(156.813 0 0)
(158.092 0 0)
(159.189 0 0)
(160.826 0 0)
(200.728 0 0)
(197.79 0 0)
(194.758 0 0)
(191.624 0 0)
(188.382 0 0)
(185.022 0 0)
(181.537 0 0)
(177.915 0 0)
(174.145 0 0)
(170.214 0 0)
(166.107 0 0)
(161.812 0 0)
(157.311 0 0)
(152.593 0 0)
(147.652 0 0)
(142.499 0 0)
(137.174 0 0)
(131.769 0 0)
(126.432 0 0)
(121.357 0 0)
(116.743 0 0)
(112.749 0 0)
(109.462 0 0)
(106.891 0 0)
(104.986 0 0)
(103.665 0 0)
(102.835 0 0)
(102.408 0 0)
(102.305 0 0)
(102.463 0 0)
(102.83 0 0)
(103.364 0 0)
(104.032 0 0)
(104.81 0 0)
(105.676 0 0)
(106.614 0 0)
(107.612 0 0)
(108.659 0 0)
(109.747 0 0)
(110.869 0 0)
(112.019 0 0)
(113.193 0 0)
(114.387 0 0)
(115.596 0 0)
(116.82 0 0)
(118.054 0 0)
(119.298 0 0)
(120.549 0 0)
(121.806 0 0)
(123.068 0 0)
(124.334 0 0)
(125.602 0 0)
(126.872 0 0)
(128.144 0 0)
(129.415 0 0)
(130.687 0 0)
(131.957 0 0)
(133.227 0 0)
(134.495 0 0)
(135.762 0 0)
(137.026 0 0)
(138.288 0 0)
(139.547 0 0)
(140.803 0 0)
(142.056 0 0)
(143.306 0 0)
(144.552 0 0)
(145.795 0 0)
(147.034 0 0)
(148.269 0 0)
(149.501 0 0)
(150.728 0 0)
(151.951 0 0)
(153.169 0 0)
(154.388 0 0)
(155.585 0 0)
(156.833 0 0)
(157.907 0 0)
(159.497 0 0)
(197.873 0 0)
(194.929 0 0)
(191.888 0 0)
(188.745 0 0)
(185.492 0 0)
(182.12 0 0)
(178.621 0 0)
(174.983 0 0)
(171.195 0 0)
(167.244 0 0)
(163.117 0 0)
(158.799 0 0)
(154.278 0 0)
(149.545 0 0)
(144.604 0 0)
(139.477 0 0)
(134.227 0 0)
(128.966 0 0)
(123.858 0 0)
(119.092 0 0)
(114.843 0 0)
(111.231 0 0)
(108.307 0 0)
(106.054 0 0)
(104.411 0 0)
(103.295 0 0)
(102.618 0 0)
(102.302 0 0)
(102.277 0 0)
(102.486 0 0)
(102.883 0 0)
(103.433 0 0)
(104.105 0 0)
(104.877 0 0)
(105.732 0 0)
(106.654 0 0)
(107.631 0 0)
(108.655 0 0)
(109.717 0 0)
(110.811 0 0)
(111.932 0 0)
(113.076 0 0)
(114.239 0 0)
(115.417 0 0)
(116.609 0 0)
(117.811 0 0)
(119.023 0 0)
(120.241 0 0)
(121.466 0 0)
(122.696 0 0)
(123.929 0 0)
(125.165 0 0)
(126.403 0 0)
(127.642 0 0)
(128.881 0 0)
(130.121 0 0)
(131.36 0 0)
(132.598 0 0)
(133.834 0 0)
(135.07 0 0)
(136.303 0 0)
(137.533 0 0)
(138.762 0 0)
(139.987 0 0)
(141.21 0 0)
(142.429 0 0)
(143.645 0 0)
(144.858 0 0)
(146.067 0 0)
(147.273 0 0)
(148.475 0 0)
(149.673 0 0)
(150.867 0 0)
(152.056 0 0)
(153.246 0 0)
(154.414 0 0)
(155.632 0 0)
(156.682 0 0)
(158.229 0 0)
(194.992 0 0)
(192.039 0 0)
(188.988 0 0)
(185.834 0 0)
(182.568 0 0)
(179.182 0 0)
(175.666 0 0)
(172.01 0 0)
(168.202 0 0)
(164.229 0 0)
(160.078 0 0)
(155.738 0 0)
(151.198 0 0)
(146.456 0 0)
(141.525 0 0)
(136.446 0 0)
(131.302 0 0)
(126.224 0 0)
(121.383 0 0)
(116.952 0 0)
(113.078 0 0)
(109.842 0 0)
(107.264 0 0)
(105.308 0 0)
(103.905 0 0)
(102.975 0 0)
(102.438 0 0)
(102.223 0 0)
(102.267 0 0)
(102.522 0 0)
(102.948 0 0)
(103.511 0 0)
(104.186 0 0)
(104.954 0 0)
(105.797 0 0)
(106.703 0 0)
(107.661 0 0)
(108.662 0 0)
(109.699 0 0)
(110.767 0 0)
(111.86 0 0)
(112.975 0 0)
(114.108 0 0)
(115.256 0 0)
(116.417 0 0)
(117.589 0 0)
(118.769 0 0)
(119.956 0 0)
(121.15 0 0)
(122.348 0 0)
(123.549 0 0)
(124.754 0 0)
(125.96 0 0)
(127.168 0 0)
(128.376 0 0)
(129.584 0 0)
(130.793 0 0)
(132 0 0)
(133.206 0 0)
(134.41 0 0)
(135.613 0 0)
(136.814 0 0)
(138.012 0 0)
(139.207 0 0)
(140.4 0 0)
(141.59 0 0)
(142.777 0 0)
(143.96 0 0)
(145.14 0 0)
(146.317 0 0)
(147.49 0 0)
(148.659 0 0)
(149.825 0 0)
(150.985 0 0)
(152.146 0 0)
(153.287 0 0)
(154.475 0 0)
(155.501 0 0)
(157.007 0 0)
(192.101 0 0)
(189.138 0 0)
(186.077 0 0)
(182.91 0 0)
(179.63 0 0)
(176.228 0 0)
(172.694 0 0)
(169.018 0 0)
(165.188 0 0)
(161.192 0 0)
(157.018 0 0)
(152.657 0 0)
(148.103 0 0)
(143.362 0 0)
(138.459 0 0)
(133.456 0 0)
(128.453 0 0)
(123.597 0 0)
(119.053 0 0)
(114.975 0 0)
(111.473 0 0)
(108.598 0 0)
(106.342 0 0)
(104.656 0 0)
(103.469 0 0)
(102.706 0 0)
(102.293 0 0)
(102.167 0 0)
(102.274 0 0)
(102.57 0 0)
(103.019 0 0)
(103.594 0 0)
(104.272 0 0)
(105.034 0 0)
(105.866 0 0)
(106.756 0 0)
(107.694 0 0)
(108.674 0 0)
(109.687 0 0)
(110.729 0 0)
(111.796 0 0)
(112.883 0 0)
(113.987 0 0)
(115.106 0 0)
(116.237 0 0)
(117.378 0 0)
(118.528 0 0)
(119.685 0 0)
(120.848 0 0)
(122.016 0 0)
(123.187 0 0)
(124.361 0 0)
(125.537 0 0)
(126.714 0 0)
(127.892 0 0)
(129.07 0 0)
(130.248 0 0)
(131.425 0 0)
(132.601 0 0)
(133.776 0 0)
(134.949 0 0)
(136.12 0 0)
(137.289 0 0)
(138.455 0 0)
(139.619 0 0)
(140.78 0 0)
(141.938 0 0)
(143.093 0 0)
(144.244 0 0)
(145.392 0 0)
(146.537 0 0)
(147.678 0 0)
(148.816 0 0)
(149.948 0 0)
(151.082 0 0)
(152.195 0 0)
(153.354 0 0)
(154.357 0 0)
(155.824 0 0)
(189.207 0 0)
(186.234 0 0)
(183.161 0 0)
(179.98 0 0)
(176.685 0 0)
(173.266 0 0)
(169.713 0 0)
(166.016 0 0)
(162.164 0 0)
(158.145 0 0)
(153.95 0 0)
(149.572 0 0)
(145.012 0 0)
(140.286 0 0)
(135.435 0 0)
(130.539 0 0)
(125.716 0 0)
(121.116 0 0)
(116.892 0 0)
(113.173 0 0)
(110.035 0 0)
(107.498 0 0)
(105.537 0 0)
(104.095 0 0)
(103.101 0 0)
(102.485 0 0)
(102.182 0 0)
(102.134 0 0)
(102.295 0 0)
(102.626 0 0)
(103.096 0 0)
(103.68 0 0)
(104.359 0 0)
(105.114 0 0)
(105.935 0 0)
(106.809 0 0)
(107.729 0 0)
(108.687 0 0)
(109.677 0 0)
(110.695 0 0)
(111.735 0 0)
(112.795 0 0)
(113.872 0 0)
(114.962 0 0)
(116.065 0 0)
(117.177 0 0)
(118.298 0 0)
(119.425 0 0)
(120.558 0 0)
(121.696 0 0)
(122.838 0 0)
(123.982 0 0)
(125.128 0 0)
(126.276 0 0)
(127.424 0 0)
(128.573 0 0)
(129.722 0 0)
(130.87 0 0)
(132.017 0 0)
(133.162 0 0)
(134.307 0 0)
(135.449 0 0)
(136.589 0 0)
(137.727 0 0)
(138.863 0 0)
(139.995 0 0)
(141.125 0 0)
(142.252 0 0)
(143.375 0 0)
(144.496 0 0)
(145.613 0 0)
(146.726 0 0)
(147.836 0 0)
(148.941 0 0)
(150.048 0 0)
(151.134 0 0)
(152.265 0 0)
(153.245 0 0)
(154.674 0 0)
(186.312 0 0)
(183.328 0 0)
(180.242 0 0)
(177.047 0 0)
(173.736 0 0)
(170.299 0 0)
(166.726 0 0)
(163.008 0 0)
(159.134 0 0)
(155.094 0 0)
(150.881 0 0)
(146.492 0 0)
(141.938 0 0)
(137.246 0 0)
(132.476 0 0)
(127.723 0 0)
(123.115 0 0)
(118.801 0 0)
(114.913 0 0)
(111.55 0 0)
(108.758 0 0)
(106.535 0 0)
(104.841 0 0)
(103.616 0 0)
(102.793 0 0)
(102.307 0 0)
(102.1 0 0)
(102.121 0 0)
(102.329 0 0)
(102.69 0 0)
(103.177 0 0)
(103.769 0 0)
(104.446 0 0)
(105.195 0 0)
(106.004 0 0)
(106.863 0 0)
(107.764 0 0)
(108.701 0 0)
(109.669 0 0)
(110.662 0 0)
(111.677 0 0)
(112.711 0 0)
(113.761 0 0)
(114.824 0 0)
(115.898 0 0)
(116.982 0 0)
(118.075 0 0)
(119.174 0 0)
(120.278 0 0)
(121.387 0 0)
(122.5 0 0)
(123.615 0 0)
(124.733 0 0)
(125.852 0 0)
(126.971 0 0)
(128.092 0 0)
(129.212 0 0)
(130.331 0 0)
(131.45 0 0)
(132.568 0 0)
(133.684 0 0)
(134.798 0 0)
(135.91 0 0)
(137.02 0 0)
(138.128 0 0)
(139.233 0 0)
(140.336 0 0)
(141.435 0 0)
(142.532 0 0)
(143.625 0 0)
(144.715 0 0)
(145.801 0 0)
(146.885 0 0)
(147.963 0 0)
(149.043 0 0)
(150.103 0 0)
(151.207 0 0)
(152.164 0 0)
(153.555 0 0)
(183.416 0 0)
(180.42 0 0)
(177.32 0 0)
(174.111 0 0)
(170.782 0 0)
(167.327 0 0)
(163.734 0 0)
(159.995 0 0)
(156.1 0 0)
(152.041 0 0)
(147.816 0 0)
(143.427 0 0)
(138.894 0 0)
(134.262 0 0)
(129.604 0 0)
(125.029 0 0)
(120.671 0 0)
(116.663 0 0)
(113.117 0 0)
(110.1 0 0)
(107.634 0 0)
(105.698 0 0)
(104.244 0 0)
(103.213 0 0)
(102.54 0 0)
(102.168 0 0)
(102.044 0 0)
(102.125 0 0)
(102.373 0 0)
(102.76 0 0)
(103.262 0 0)
(103.858 0 0)
(104.534 0 0)
(105.275 0 0)
(106.072 0 0)
(106.915 0 0)
(107.799 0 0)
(108.715 0 0)
(109.661 0 0)
(110.631 0 0)
(111.621 0 0)
(112.63 0 0)
(113.653 0 0)
(114.69 0 0)
(115.737 0 0)
(116.794 0 0)
(117.859 0 0)
(118.93 0 0)
(120.007 0 0)
(121.088 0 0)
(122.173 0 0)
(123.26 0 0)
(124.35 0 0)
(125.441 0 0)
(126.532 0 0)
(127.625 0 0)
(128.717 0 0)
(129.809 0 0)
(130.9 0 0)
(131.99 0 0)
(133.079 0 0)
(134.166 0 0)
(135.251 0 0)
(136.334 0 0)
(137.415 0 0)
(138.493 0 0)
(139.569 0 0)
(140.642 0 0)
(141.712 0 0)
(142.778 0 0)
(143.842 0 0)
(144.902 0 0)
(145.96 0 0)
(147.012 0 0)
(148.065 0 0)
(149.101 0 0)
(150.177 0 0)
(151.112 0 0)
(152.467 0 0)
(180.519 0 0)
(177.509 0 0)
(174.396 0 0)
(171.17 0 0)
(167.825 0 0)
(164.35 0 0)
(160.738 0 0)
(156.978 0 0)
(153.065 0 0)
(148.992 0 0)
(144.761 0 0)
(140.385 0 0)
(135.896 0 0)
(131.35 0 0)
(126.839 0 0)
(122.478 0 0)
(118.395 0 0)
(114.708 0 0)
(111.501 0 0)
(108.815 0 0)
(106.651 0 0)
(104.975 0 0)
(103.735 0 0)
(102.875 0 0)
(102.335 0 0)
(102.062 0 0)
(102.011 0 0)
(102.144 0 0)
(102.427 0 0)
(102.836 0 0)
(103.349 0 0)
(103.949 0 0)
(104.621 0 0)
(105.354 0 0)
(106.139 0 0)
(106.967 0 0)
(107.833 0 0)
(108.73 0 0)
(109.653 0 0)
(110.601 0 0)
(111.567 0 0)
(112.551 0 0)
(113.55 0 0)
(114.56 0 0)
(115.582 0 0)
(116.612 0 0)
(117.65 0 0)
(118.694 0 0)
(119.744 0 0)
(120.798 0 0)
(121.855 0 0)
(122.916 0 0)
(123.978 0 0)
(125.042 0 0)
(126.107 0 0)
(127.172 0 0)
(128.238 0 0)
(129.303 0 0)
(130.367 0 0)
(131.43 0 0)
(132.492 0 0)
(133.553 0 0)
(134.612 0 0)
(135.668 0 0)
(136.723 0 0)
(137.775 0 0)
(138.824 0 0)
(139.871 0 0)
(140.915 0 0)
(141.956 0 0)
(142.994 0 0)
(144.029 0 0)
(145.06 0 0)
(146.087 0 0)
(147.115 0 0)
(148.126 0 0)
(149.175 0 0)
(150.089 0 0)
(151.409 0 0)
(177.619 0 0)
(174.596 0 0)
(171.468 0 0)
(168.226 0 0)
(164.862 0 0)
(161.369 0 0)
(157.737 0 0)
(153.96 0 0)
(150.031 0 0)
(145.951 0 0)
(141.726 0 0)
(137.381 0 0)
(132.958 0 0)
(128.532 0 0)
(124.201 0 0)
(120.084 0 0)
(116.297 0 0)
(112.935 0 0)
(110.058 0 0)
(107.684 0 0)
(105.795 0 0)
(104.353 0 0)
(103.305 0 0)
(102.595 0 0)
(102.171 0 0)
(101.986 0 0)
(101.999 0 0)
(102.176 0 0)
(102.49 0 0)
(102.917 0 0)
(103.439 0 0)
(104.04 0 0)
(104.708 0 0)
(105.433 0 0)
(106.205 0 0)
(107.018 0 0)
(107.866 0 0)
(108.744 0 0)
(109.647 0 0)
(110.572 0 0)
(111.515 0 0)
(112.475 0 0)
(113.449 0 0)
(114.435 0 0)
(115.431 0 0)
(116.436 0 0)
(117.448 0 0)
(118.466 0 0)
(119.489 0 0)
(120.517 0 0)
(121.548 0 0)
(122.582 0 0)
(123.618 0 0)
(124.656 0 0)
(125.694 0 0)
(126.733 0 0)
(127.772 0 0)
(128.811 0 0)
(129.849 0 0)
(130.887 0 0)
(131.923 0 0)
(132.958 0 0)
(133.991 0 0)
(135.022 0 0)
(136.05 0 0)
(137.077 0 0)
(138.101 0 0)
(139.123 0 0)
(140.141 0 0)
(141.157 0 0)
(142.17 0 0)
(143.18 0 0)
(144.186 0 0)
(145.188 0 0)
(146.191 0 0)
(147.178 0 0)
(148.202 0 0)
(149.094 0 0)
(150.379 0 0)
(174.716 0 0)
(171.679 0 0)
(168.536 0 0)
(165.277 0 0)
(161.896 0 0)
(158.384 0 0)
(154.734 0 0)
(150.941 0 0)
(147.003 0 0)
(142.925 0 0)
(138.721 0 0)
(134.428 0 0)
(130.101 0 0)
(125.827 0 0)
(121.709 0 0)
(117.86 0 0)
(114.38 0 0)
(111.341 0 0)
(108.779 0 0)
(106.693 0 0)
(105.056 0 0)
(103.823 0 0)
(102.944 0 0)
(102.367 0 0)
(102.045 0 0)
(101.935 0 0)
(102.004 0 0)
(102.22 0 0)
(102.559 0 0)
(103.002 0 0)
(103.53 0 0)
(104.132 0 0)
(104.795 0 0)
(105.511 0 0)
(106.271 0 0)
(107.069 0 0)
(107.899 0 0)
(108.758 0 0)
(109.64 0 0)
(110.544 0 0)
(111.465 0 0)
(112.402 0 0)
(113.352 0 0)
(114.314 0 0)
(115.285 0 0)
(116.265 0 0)
(117.252 0 0)
(118.245 0 0)
(119.243 0 0)
(120.245 0 0)
(121.25 0 0)
(122.259 0 0)
(123.269 0 0)
(124.281 0 0)
(125.294 0 0)
(126.307 0 0)
(127.321 0 0)
(128.335 0 0)
(129.348 0 0)
(130.36 0 0)
(131.37 0 0)
(132.38 0 0)
(133.388 0 0)
(134.394 0 0)
(135.398 0 0)
(136.4 0 0)
(137.399 0 0)
(138.396 0 0)
(139.39 0 0)
(140.381 0 0)
(141.369 0 0)
(142.355 0 0)
(143.337 0 0)
(144.315 0 0)
(145.294 0 0)
(146.256 0 0)
(147.255 0 0)
(148.126 0 0)
(149.378 0 0)
(171.81 0 0)
(168.759 0 0)
(165.6 0 0)
(162.324 0 0)
(158.925 0 0)
(155.396 0 0)
(151.731 0 0)
(147.928 0 0)
(143.988 0 0)
(139.924 0 0)
(135.76 0 0)
(131.544 0 0)
(127.344 0 0)
(123.254 0 0)
(119.377 0 0)
(115.813 0 0)
(112.644 0 0)
(109.919 0 0)
(107.653 0 0)
(105.831 0 0)
(104.42 0 0)
(103.373 0 0)
(102.643 0 0)
(102.183 0 0)
(101.95 0 0)
(101.907 0 0)
(102.024 0 0)
(102.273 0 0)
(102.634 0 0)
(103.089 0 0)
(103.623 0 0)
(104.224 0 0)
(104.881 0 0)
(105.588 0 0)
(106.335 0 0)
(107.118 0 0)
(107.932 0 0)
(108.772 0 0)
(109.635 0 0)
(110.517 0 0)
(111.417 0 0)
(112.331 0 0)
(113.258 0 0)
(114.196 0 0)
(115.144 0 0)
(116.099 0 0)
(117.062 0 0)
(118.03 0 0)
(119.004 0 0)
(119.981 0 0)
(120.962 0 0)
(121.945 0 0)
(122.931 0 0)
(123.918 0 0)
(124.906 0 0)
(125.895 0 0)
(126.884 0 0)
(127.872 0 0)
(128.861 0 0)
(129.848 0 0)
(130.834 0 0)
(131.819 0 0)
(132.803 0 0)
(133.785 0 0)
(134.764 0 0)
(135.742 0 0)
(136.717 0 0)
(137.69 0 0)
(138.66 0 0)
(139.627 0 0)
(140.592 0 0)
(141.553 0 0)
(142.512 0 0)
(143.466 0 0)
(144.421 0 0)
(145.36 0 0)
(146.335 0 0)
(147.186 0 0)
(148.405 0 0)
(168.901 0 0)
(165.835 0 0)
(162.66 0 0)
(159.368 0 0)
(155.952 0 0)
(152.408 0 0)
(148.732 0 0)
(144.925 0 0)
(140.995 0 0)
(136.96 0 0)
(132.859 0 0)
(128.748 0 0)
(124.707 0 0)
(120.83 0 0)
(117.215 0 0)
(113.946 0 0)
(111.085 0 0)
(108.658 0 0)
(106.666 0 0)
(105.085 0 0)
(103.876 0 0)
(102.995 0 0)
(102.396 0 0)
(102.038 0 0)
(101.883 0 0)
(101.898 0 0)
(102.057 0 0)
(102.335 0 0)
(102.715 0 0)
(103.18 0 0)
(103.717 0 0)
(104.316 0 0)
(104.967 0 0)
(105.664 0 0)
(106.399 0 0)
(107.167 0 0)
(107.964 0 0)
(108.786 0 0)
(109.63 0 0)
(110.492 0 0)
(111.37 0 0)
(112.263 0 0)
(113.167 0 0)
(114.083 0 0)
(115.007 0 0)
(115.939 0 0)
(116.878 0 0)
(117.823 0 0)
(118.772 0 0)
(119.726 0 0)
(120.682 0 0)
(121.642 0 0)
(122.603 0 0)
(123.566 0 0)
(124.53 0 0)
(125.495 0 0)
(126.46 0 0)
(127.424 0 0)
(128.388 0 0)
(129.352 0 0)
(130.314 0 0)
(131.276 0 0)
(132.235 0 0)
(133.193 0 0)
(134.149 0 0)
(135.103 0 0)
(136.055 0 0)
(137.004 0 0)
(137.951 0 0)
(138.895 0 0)
(139.836 0 0)
(140.775 0 0)
(141.71 0 0)
(142.641 0 0)
(143.573 0 0)
(144.49 0 0)
(145.44 0 0)
(146.272 0 0)
(147.458 0 0)
(165.989 0 0)
(162.908 0 0)
(159.717 0 0)
(156.409 0 0)
(152.979 0 0)
(149.424 0 0)
(145.742 0 0)
(141.941 0 0)
(138.033 0 0)
(134.049 0 0)
(130.036 0 0)
(126.061 0 0)
(122.208 0 0)
(118.569 0 0)
(115.23 0 0)
(112.259 0 0)
(109.694 0 0)
(107.548 0 0)
(105.808 0 0)
(104.443 0 0)
(103.414 0 0)
(102.679 0 0)
(102.196 0 0)
(101.928 0 0)
(101.841 0 0)
(101.906 0 0)
(102.101 0 0)
(102.404 0 0)
(102.799 0 0)
(103.272 0 0)
(103.811 0 0)
(104.407 0 0)
(105.052 0 0)
(105.738 0 0)
(106.461 0 0)
(107.215 0 0)
(107.996 0 0)
(108.8 0 0)
(109.625 0 0)
(110.467 0 0)
(111.325 0 0)
(112.197 0 0)
(113.08 0 0)
(113.973 0 0)
(114.875 0 0)
(115.784 0 0)
(116.7 0 0)
(117.622 0 0)
(118.548 0 0)
(119.478 0 0)
(120.412 0 0)
(121.348 0 0)
(122.286 0 0)
(123.225 0 0)
(124.166 0 0)
(125.107 0 0)
(126.048 0 0)
(126.99 0 0)
(127.931 0 0)
(128.871 0 0)
(129.81 0 0)
(130.748 0 0)
(131.685 0 0)
(132.62 0 0)
(133.553 0 0)
(134.484 0 0)
(135.413 0 0)
(136.339 0 0)
(137.263 0 0)
(138.184 0 0)
(139.103 0 0)
(140.019 0 0)
(140.932 0 0)
(141.84 0 0)
(142.75 0 0)
(143.644 0 0)
(144.571 0 0)
(145.383 0 0)
(146.538 0 0)
(163.074 0 0)
(159.978 0 0)
(156.772 0 0)
(153.45 0 0)
(150.009 0 0)
(146.447 0 0)
(142.768 0 0)
(138.984 0 0)
(135.118 0 0)
(131.208 0 0)
(127.311 0 0)
(123.501 0 0)
(119.863 0 0)
(116.48 0 0)
(113.425 0 0)
(110.745 0 0)
(108.463 0 0)
(106.577 0 0)
(105.065 0 0)
(103.894 0 0)
(103.025 0 0)
(102.418 0 0)
(102.037 0 0)
(101.847 0 0)
(101.819 0 0)
(101.929 0 0)
(102.155 0 0)
(102.479 0 0)
(102.886 0 0)
(103.366 0 0)
(103.906 0 0)
(104.498 0 0)
(105.136 0 0)
(105.812 0 0)
(106.523 0 0)
(107.262 0 0)
(108.027 0 0)
(108.814 0 0)
(109.62 0 0)
(110.444 0 0)
(111.282 0 0)
(112.133 0 0)
(112.995 0 0)
(113.867 0 0)
(114.747 0 0)
(115.634 0 0)
(116.528 0 0)
(117.427 0 0)
(118.331 0 0)
(119.239 0 0)
(120.149 0 0)
(121.063 0 0)
(121.978 0 0)
(122.895 0 0)
(123.812 0 0)
(124.731 0 0)
(125.65 0 0)
(126.568 0 0)
(127.487 0 0)
(128.404 0 0)
(129.321 0 0)
(130.236 0 0)
(131.15 0 0)
(132.063 0 0)
(132.974 0 0)
(133.882 0 0)
(134.789 0 0)
(135.693 0 0)
(136.595 0 0)
(137.494 0 0)
(138.391 0 0)
(139.284 0 0)
(140.175 0 0)
(141.062 0 0)
(141.949 0 0)
(142.822 0 0)
(143.726 0 0)
(144.52 0 0)
(145.644 0 0)
(160.156 0 0)
(157.046 0 0)
(153.827 0 0)
(150.494 0 0)
(147.046 0 0)
(143.485 0 0)
(139.82 0 0)
(136.069 0 0)
(132.265 0 0)
(128.454 0 0)
(124.702 0 0)
(121.085 0 0)
(117.683 0 0)
(114.568 0 0)
(111.796 0 0)
(109.397 0 0)
(107.38 0 0)
(105.731 0 0)
(104.425 0 0)
(103.426 0 0)
(102.699 0 0)
(102.205 0 0)
(101.913 0 0)
(101.792 0 0)
(101.816 0 0)
(101.964 0 0)
(102.216 0 0)
(102.558 0 0)
(102.977 0 0)
(103.46 0 0)
(104 0 0)
(104.588 0 0)
(105.219 0 0)
(105.885 0 0)
(106.583 0 0)
(107.308 0 0)
(108.058 0 0)
(108.828 0 0)
(109.617 0 0)
(110.421 0 0)
(111.24 0 0)
(112.071 0 0)
(112.913 0 0)
(113.764 0 0)
(114.623 0 0)
(115.489 0 0)
(116.362 0 0)
(117.239 0 0)
(118.121 0 0)
(119.007 0 0)
(119.895 0 0)
(120.787 0 0)
(121.68 0 0)
(122.574 0 0)
(123.47 0 0)
(124.366 0 0)
(125.263 0 0)
(126.16 0 0)
(127.056 0 0)
(127.952 0 0)
(128.846 0 0)
(129.74 0 0)
(130.632 0 0)
(131.523 0 0)
(132.412 0 0)
(133.299 0 0)
(134.184 0 0)
(135.066 0 0)
(135.946 0 0)
(136.824 0 0)
(137.699 0 0)
(138.571 0 0)
(139.441 0 0)
(140.306 0 0)
(141.172 0 0)
(142.024 0 0)
(142.906 0 0)
(143.681 0 0)
(144.775 0 0)
(157.236 0 0)
(154.114 0 0)
(150.884 0 0)
(147.544 0 0)
(144.096 0 0)
(140.545 0 0)
(136.908 0 0)
(133.21 0 0)
(129.492 0 0)
(125.808 0 0)
(122.229 0 0)
(118.827 0 0)
(115.676 0 0)
(112.833 0 0)
(110.337 0 0)
(108.205 0 0)
(106.432 0 0)
(104.999 0 0)
(103.877 0 0)
(103.032 0 0)
(102.428 0 0)
(102.035 0 0)
(101.82 0 0)
(101.759 0 0)
(101.829 0 0)
(102.009 0 0)
(102.285 0 0)
(102.642 0 0)
(103.069 0 0)
(103.556 0 0)
(104.095 0 0)
(104.678 0 0)
(105.3 0 0)
(105.956 0 0)
(106.642 0 0)
(107.354 0 0)
(108.088 0 0)
(108.842 0 0)
(109.613 0 0)
(110.4 0 0)
(111.2 0 0)
(112.011 0 0)
(112.833 0 0)
(113.664 0 0)
(114.503 0 0)
(115.349 0 0)
(116.2 0 0)
(117.057 0 0)
(117.917 0 0)
(118.782 0 0)
(119.649 0 0)
(120.519 0 0)
(121.391 0 0)
(122.264 0 0)
(123.138 0 0)
(124.013 0 0)
(124.888 0 0)
(125.764 0 0)
(126.639 0 0)
(127.513 0 0)
(128.386 0 0)
(129.258 0 0)
(130.129 0 0)
(130.999 0 0)
(131.867 0 0)
(132.732 0 0)
(133.596 0 0)
(134.458 0 0)
(135.317 0 0)
(136.173 0 0)
(137.027 0 0)
(137.878 0 0)
(138.727 0 0)
(139.572 0 0)
(140.417 0 0)
(141.248 0 0)
(142.109 0 0)
(142.865 0 0)
(143.931 0 0)
(154.317 0 0)
(151.185 0 0)
(147.948 0 0)
(144.607 0 0)
(141.167 0 0)
(137.64 0 0)
(134.047 0 0)
(130.424 0 0)
(126.817 0 0)
(123.288 0 0)
(119.905 0 0)
(116.737 0 0)
(113.844 0 0)
(111.271 0 0)
(109.04 0 0)
(107.157 0 0)
(105.607 0 0)
(104.369 0 0)
(103.41 0 0)
(102.701 0 0)
(102.207 0 0)
(101.901 0 0)
(101.755 0 0)
(101.746 0 0)
(101.855 0 0)
(102.064 0 0)
(102.36 0 0)
(102.73 0 0)
(103.163 0 0)
(103.652 0 0)
(104.188 0 0)
(104.766 0 0)
(105.381 0 0)
(106.027 0 0)
(106.7 0 0)
(107.398 0 0)
(108.118 0 0)
(108.856 0 0)
(109.61 0 0)
(110.379 0 0)
(111.161 0 0)
(111.954 0 0)
(112.757 0 0)
(113.568 0 0)
(114.387 0 0)
(115.213 0 0)
(116.044 0 0)
(116.88 0 0)
(117.72 0 0)
(118.564 0 0)
(119.411 0 0)
(120.26 0 0)
(121.111 0 0)
(121.963 0 0)
(122.817 0 0)
(123.671 0 0)
(124.525 0 0)
(125.38 0 0)
(126.234 0 0)
(127.087 0 0)
(127.94 0 0)
(128.791 0 0)
(129.642 0 0)
(130.49 0 0)
(131.338 0 0)
(132.183 0 0)
(133.026 0 0)
(133.867 0 0)
(134.706 0 0)
(135.542 0 0)
(136.375 0 0)
(137.206 0 0)
(138.034 0 0)
(138.859 0 0)
(139.683 0 0)
(140.495 0 0)
(141.334 0 0)
(142.074 0 0)
(143.11 0 0)
(151.401 0 0)
(148.262 0 0)
(145.023 0 0)
(141.689 0 0)
(138.268 0 0)
(134.78 0 0)
(131.253 0 0)
(127.729 0 0)
(124.26 0 0)
(120.91 0 0)
(117.743 0 0)
(114.82 0 0)
(112.188 0 0)
(109.876 0 0)
(107.895 0 0)
(106.241 0 0)
(104.894 0 0)
(103.829 0 0)
(103.016 0 0)
(102.426 0 0)
(102.029 0 0)
(101.799 0 0)
(101.713 0 0)
(101.75 0 0)
(101.893 0 0)
(102.127 0 0)
(102.439 0 0)
(102.819 0 0)
(103.258 0 0)
(103.748 0 0)
(104.282 0 0)
(104.854 0 0)
(105.46 0 0)
(106.096 0 0)
(106.757 0 0)
(107.442 0 0)
(108.147 0 0)
(108.869 0 0)
(109.607 0 0)
(110.359 0 0)
(111.123 0 0)
(111.898 0 0)
(112.683 0 0)
(113.475 0 0)
(114.275 0 0)
(115.081 0 0)
(115.893 0 0)
(116.709 0 0)
(117.529 0 0)
(118.353 0 0)
(119.18 0 0)
(120.009 0 0)
(120.84 0 0)
(121.672 0 0)
(122.505 0 0)
(123.339 0 0)
(124.173 0 0)
(125.007 0 0)
(125.841 0 0)
(126.675 0 0)
(127.507 0 0)
(128.339 0 0)
(129.169 0 0)
(129.997 0 0)
(130.824 0 0)
(131.65 0 0)
(132.473 0 0)
(133.294 0 0)
(134.112 0 0)
(134.929 0 0)
(135.742 0 0)
(136.553 0 0)
(137.362 0 0)
(138.166 0 0)
(138.971 0 0)
(139.763 0 0)
(140.582 0 0)
(141.304 0 0)
(142.313 0 0)
(148.49 0 0)
(145.35 0 0)
(142.117 0 0)
(138.8 0 0)
(135.414 0 0)
(131.983 0 0)
(128.544 0 0)
(125.143 0 0)
(121.837 0 0)
(118.687 0 0)
(115.751 0 0)
(113.077 0 0)
(110.701 0 0)
(108.638 0 0)
(106.89 0 0)
(105.444 0 0)
(104.279 0 0)
(103.369 0 0)
(102.685 0 0)
(102.2 0 0)
(101.888 0 0)
(101.725 0 0)
(101.691 0 0)
(101.768 0 0)
(101.941 0 0)
(102.196 0 0)
(102.523 0 0)
(102.912 0 0)
(103.354 0 0)
(103.843 0 0)
(104.374 0 0)
(104.94 0 0)
(105.538 0 0)
(106.163 0 0)
(106.813 0 0)
(107.485 0 0)
(108.175 0 0)
(108.883 0 0)
(109.605 0 0)
(110.34 0 0)
(111.087 0 0)
(111.844 0 0)
(112.611 0 0)
(113.385 0 0)
(114.166 0 0)
(114.954 0 0)
(115.746 0 0)
(116.544 0 0)
(117.345 0 0)
(118.149 0 0)
(118.956 0 0)
(119.766 0 0)
(120.577 0 0)
(121.39 0 0)
(122.203 0 0)
(123.018 0 0)
(123.832 0 0)
(124.647 0 0)
(125.461 0 0)
(126.275 0 0)
(127.087 0 0)
(127.899 0 0)
(128.71 0 0)
(129.519 0 0)
(130.327 0 0)
(131.132 0 0)
(131.936 0 0)
(132.737 0 0)
(133.537 0 0)
(134.334 0 0)
(135.128 0 0)
(135.92 0 0)
(136.709 0 0)
(137.494 0 0)
(138.279 0 0)
(139.053 0 0)
(139.851 0 0)
(140.557 0 0)
(141.539 0 0)
(145.591 0 0)
(142.455 0 0)
(139.238 0 0)
(135.951 0 0)
(132.616 0 0)
(129.265 0 0)
(125.937 0 0)
(122.685 0 0)
(119.563 0 0)
(116.629 0 0)
(113.931 0 0)
(111.505 0 0)
(109.375 0 0)
(107.546 0 0)
(106.012 0 0)
(104.755 0 0)
(103.753 0 0)
(102.98 0 0)
(102.41 0 0)
(102.017 0 0)
(101.779 0 0)
(101.675 0 0)
(101.687 0 0)
(101.799 0 0)
(101.997 0 0)
(102.271 0 0)
(102.61 0 0)
(103.005 0 0)
(103.45 0 0)
(103.939 0 0)
(104.465 0 0)
(105.025 0 0)
(105.615 0 0)
(106.23 0 0)
(106.868 0 0)
(107.527 0 0)
(108.203 0 0)
(108.896 0 0)
(109.603 0 0)
(110.322 0 0)
(111.052 0 0)
(111.793 0 0)
(112.541 0 0)
(113.298 0 0)
(114.061 0 0)
(114.83 0 0)
(115.605 0 0)
(116.383 0 0)
(117.166 0 0)
(117.951 0 0)
(118.74 0 0)
(119.53 0 0)
(120.322 0 0)
(121.116 0 0)
(121.911 0 0)
(122.706 0 0)
(123.501 0 0)
(124.297 0 0)
(125.092 0 0)
(125.887 0 0)
(126.681 0 0)
(127.473 0 0)
(128.265 0 0)
(129.055 0 0)
(129.844 0 0)
(130.63 0 0)
(131.415 0 0)
(132.198 0 0)
(132.978 0 0)
(133.756 0 0)
(134.532 0 0)
(135.305 0 0)
(136.075 0 0)
(136.841 0 0)
(137.608 0 0)
(138.363 0 0)
(139.141 0 0)
(139.831 0 0)
(140.787 0 0)
(142.709 0 0)
(139.587 0 0)
(136.397 0 0)
(133.157 0 0)
(129.894 0 0)
(126.643 0 0)
(123.451 0 0)
(120.369 0 0)
(117.45 0 0)
(114.741 0 0)
(112.282 0 0)
(110.099 0 0)
(108.201 0 0)
(106.589 0 0)
(105.249 0 0)
(104.162 0 0)
(103.305 0 0)
(102.653 0 0)
(102.183 0 0)
(101.872 0 0)
(101.699 0 0)
(101.646 0 0)
(101.698 0 0)
(101.84 0 0)
(102.061 0 0)
(102.35 0 0)
(102.699 0 0)
(103.1 0 0)
(103.547 0 0)
(104.033 0 0)
(104.556 0 0)
(105.109 0 0)
(105.69 0 0)
(106.295 0 0)
(106.922 0 0)
(107.568 0 0)
(108.231 0 0)
(108.909 0 0)
(109.601 0 0)
(110.304 0 0)
(111.019 0 0)
(111.742 0 0)
(112.474 0 0)
(113.214 0 0)
(113.959 0 0)
(114.711 0 0)
(115.467 0 0)
(116.228 0 0)
(116.992 0 0)
(117.76 0 0)
(118.53 0 0)
(119.302 0 0)
(120.076 0 0)
(120.851 0 0)
(121.627 0 0)
(122.404 0 0)
(123.181 0 0)
(123.958 0 0)
(124.735 0 0)
(125.511 0 0)
(126.286 0 0)
(127.06 0 0)
(127.833 0 0)
(128.605 0 0)
(129.375 0 0)
(130.143 0 0)
(130.91 0 0)
(131.674 0 0)
(132.436 0 0)
(133.196 0 0)
(133.953 0 0)
(134.708 0 0)
(135.46 0 0)
(136.208 0 0)
(136.956 0 0)
(137.693 0 0)
(138.452 0 0)
(139.126 0 0)
(140.057 0 0)
(139.852 0 0)
(136.756 0 0)
(133.608 0 0)
(130.433 0 0)
(127.262 0 0)
(124.136 0 0)
(121.101 0 0)
(118.208 0 0)
(115.502 0 0)
(113.024 0 0)
(110.8 0 0)
(108.848 0 0)
(107.168 0 0)
(105.754 0 0)
(104.589 0 0)
(103.653 0 0)
(102.925 0 0)
(102.381 0 0)
(101.999 0 0)
(101.759 0 0)
(101.644 0 0)
(101.636 0 0)
(101.723 0 0)
(101.891 0 0)
(102.131 0 0)
(102.433 0 0)
(102.79 0 0)
(103.195 0 0)
(103.643 0 0)
(104.127 0 0)
(104.645 0 0)
(105.191 0 0)
(105.764 0 0)
(106.359 0 0)
(106.974 0 0)
(107.608 0 0)
(108.258 0 0)
(108.922 0 0)
(109.599 0 0)
(110.288 0 0)
(110.986 0 0)
(111.694 0 0)
(112.409 0 0)
(113.132 0 0)
(113.861 0 0)
(114.595 0 0)
(115.334 0 0)
(116.078 0 0)
(116.824 0 0)
(117.574 0 0)
(118.326 0 0)
(119.081 0 0)
(119.837 0 0)
(120.594 0 0)
(121.352 0 0)
(122.111 0 0)
(122.87 0 0)
(123.629 0 0)
(124.388 0 0)
(125.146 0 0)
(125.903 0 0)
(126.66 0 0)
(127.415 0 0)
(128.169 0 0)
(128.921 0 0)
(129.671 0 0)
(130.42 0 0)
(131.166 0 0)
(131.91 0 0)
(132.652 0 0)
(133.391 0 0)
(134.128 0 0)
(134.862 0 0)
(135.593 0 0)
(136.323 0 0)
(137.042 0 0)
(137.783 0 0)
(138.442 0 0)
(139.347 0 0)
(137.031 0 0)
(133.974 0 0)
(130.886 0 0)
(127.796 0 0)
(124.74 0 0)
(121.759 0 0)
(118.901 0 0)
(116.21 0 0)
(113.724 0 0)
(111.474 0 0)
(109.478 0 0)
(107.742 0 0)
(106.263 0 0)
(105.028 0 0)
(104.021 0 0)
(103.221 0 0)
(102.606 0 0)
(102.156 0 0)
(101.852 0 0)
(101.675 0 0)
(101.61 0 0)
(101.641 0 0)
(101.758 0 0)
(101.95 0 0)
(102.206 0 0)
(102.52 0 0)
(102.883 0 0)
(103.291 0 0)
(103.739 0 0)
(104.22 0 0)
(104.733 0 0)
(105.272 0 0)
(105.836 0 0)
(106.421 0 0)
(107.026 0 0)
(107.647 0 0)
(108.284 0 0)
(108.935 0 0)
(109.598 0 0)
(110.272 0 0)
(110.955 0 0)
(111.647 0 0)
(112.347 0 0)
(113.053 0 0)
(113.766 0 0)
(114.483 0 0)
(115.206 0 0)
(115.932 0 0)
(116.662 0 0)
(117.394 0 0)
(118.13 0 0)
(118.867 0 0)
(119.605 0 0)
(120.345 0 0)
(121.086 0 0)
(121.828 0 0)
(122.569 0 0)
(123.311 0 0)
(124.052 0 0)
(124.793 0 0)
(125.533 0 0)
(126.271 0 0)
(127.009 0 0)
(127.745 0 0)
(128.48 0 0)
(129.213 0 0)
(129.944 0 0)
(130.673 0 0)
(131.4 0 0)
(132.124 0 0)
(132.846 0 0)
(133.566 0 0)
(134.283 0 0)
(134.996 0 0)
(135.709 0 0)
(136.411 0 0)
(137.134 0 0)
(137.777 0 0)
(138.658 0 0)
(134.257 0 0)
(131.256 0 0)
(128.247 0 0)
(125.263 0 0)
(122.343 0 0)
(119.528 0 0)
(116.86 0 0)
(114.379 0 0)
(112.114 0 0)
(110.086 0 0)
(108.305 0 0)
(106.771 0 0)
(105.475 0 0)
(104.402 0 0)
(103.535 0 0)
(102.854 0 0)
(102.34 0 0)
(101.974 0 0)
(101.738 0 0)
(101.616 0 0)
(101.594 0 0)
(101.66 0 0)
(101.804 0 0)
(102.015 0 0)
(102.285 0 0)
(102.608 0 0)
(102.977 0 0)
(103.387 0 0)
(103.834 0 0)
(104.312 0 0)
(104.819 0 0)
(105.352 0 0)
(105.907 0 0)
(106.482 0 0)
(107.076 0 0)
(107.686 0 0)
(108.31 0 0)
(108.948 0 0)
(109.597 0 0)
(110.256 0 0)
(110.925 0 0)
(111.602 0 0)
(112.286 0 0)
(112.977 0 0)
(113.673 0 0)
(114.375 0 0)
(115.081 0 0)
(115.791 0 0)
(116.504 0 0)
(117.22 0 0)
(117.939 0 0)
(118.659 0 0)
(119.381 0 0)
(120.104 0 0)
(120.828 0 0)
(121.553 0 0)
(122.277 0 0)
(123.002 0 0)
(123.726 0 0)
(124.45 0 0)
(125.173 0 0)
(125.895 0 0)
(126.616 0 0)
(127.335 0 0)
(128.053 0 0)
(128.769 0 0)
(129.483 0 0)
(130.195 0 0)
(130.905 0 0)
(131.612 0 0)
(132.318 0 0)
(133.02 0 0)
(133.72 0 0)
(134.416 0 0)
(135.112 0 0)
(135.798 0 0)
(136.503 0 0)
(137.132 0 0)
(137.989 0 0)
(131.546 0 0)
(128.618 0 0)
(125.709 0 0)
(122.852 0 0)
(120.086 0 0)
(117.451 0 0)
(114.983 0 0)
(112.715 0 0)
(110.666 0 0)
(108.851 0 0)
(107.271 0 0)
(105.921 0 0)
(104.791 0 0)
(103.863 0 0)
(103.121 0 0)
(102.546 0 0)
(102.121 0 0)
(101.828 0 0)
(101.651 0 0)
(101.578 0 0)
(101.595 0 0)
(101.691 0 0)
(101.858 0 0)
(102.086 0 0)
(102.368 0 0)
(102.699 0 0)
(103.072 0 0)
(103.483 0 0)
(103.928 0 0)
(104.403 0 0)
(104.904 0 0)
(105.43 0 0)
(105.976 0 0)
(106.542 0 0)
(107.125 0 0)
(107.723 0 0)
(108.336 0 0)
(108.96 0 0)
(109.596 0 0)
(110.241 0 0)
(110.896 0 0)
(111.558 0 0)