/*--------------------------------*- C++ -*----------------------------------*\
| =========                 |                                                 |
| \\      /  F ield         | OpenFOAM: The Open Source CFD Toolbox           |
|  \\    /   O peration     | Version:  2312                                  |
|   \\  /    A nd           | Website:  www.openfoam.com                      |
|    \\/     M anipulation  |                                                 |
\*---------------------------------------------------------------------------*/
FoamFile
{
    version     2.0;
    format      ascii;
    arch        "LSB;label=32;scalar=64";
    class       volVectorField;
    location    "1.4";
    object      flux;
}
// * * * * * * * * * * * * * * * * * * * * * * * * * * * * * * * * * * * * * //

dimensions      [0 1 -1 1 0 0 0];

internalField   nonuniform List<vector> 
100
(
(1.15727 0 0)
(0.870612 0 0)
(0.601724 0 0)
(0.350036 0 0)
(0.114976 0 0)
(-0.104029 0 0)
(-0.307551 0 0)
(-0.496162 0 0)
(-0.670429 0 0)
(-0.830918 0 0)
(-0.978187 0 0)
(-1.11279 0 0)
(-1.23527 0 0)
(-1.34618 0 0)
(-1.44603 0 0)
(-1.53535 0 0)
(-1.61465 0 0)
(-1.68443 0 0)
(-1.74519 0 0)
(-1.79739 0 0)
(-1.84151 0 0)
(-1.87799 0 0)
(-1.90729 0 0)
(-1.92983 0 0)
(-1.94602 0 0)
(-1.95627 0 0)
(-1.96097 0 0)
(-1.9605 0 0)
(-1.95522 0 0)
(-1.94549 0 0)
(-1.93163 0 0)
(-1.91398 0 0)
(-1.89285 0 0)
(-1.86854 0 0)
(-1.84133 0 0)
(-1.8115 0 0)
(-1.77931 0 0)
(-1.74501 0 0)
(-1.70883 0 0)
(-1.67102 0 0)
(-1.63177 0 0)
(-1.59129 0 0)
(-1.54978 0 0)
(-1.50742 0 0)
(-1.46438 0 0)
(-1.42082 0 0)
(-1.37689 0 0)
(-1.33274 0 0)
(-1.28849 0 0)
(-1.24428 0 0)
(-1.20021 0 0)
(-1.15639 0 0)
(-1.11293 0 0)
(-1.06991 0 0)
(-1.02742 0 0)
(-0.985524 0 0)
(-0.944303 0 0)
(-0.903814 0 0)
(-0.864115 0 0)
(-0.825253 0 0)
(-0.787274 0 0)
(-0.750214 0 0)
(-0.714107 0 0)
(-0.67898 0 0)
(-0.644855 0 0)
(-0.61175 0 0)
(-0.579678 0 0)
(-0.548649 0 0)
(-0.518666 0 0)
(-0.489732 0 0)
(-0.461843 0 0)
(-0.434995 0 0)
(-0.409176 0 0)
(-0.384376 0 0)
(-0.360578 0 0)
(-0.337766 0 0)
(-0.315917 0 0)
(-0.29501 0 0)
(-0.275019 0 0)
(-0.255917 0 0)
(-0.237674 0 0)
(-0.220258 0 0)
(-0.203638 0 0)
(-0.187779 0 0)
(-0.172644 0 0)
(-0.158196 0 0)
(-0.144396 0 0)
(-0.131204 0 0)
(-0.11858 0 0)
(-0.106482 0 0)
(-0.0948657 0 0)
(-0.0836886 0 0)
(-0.0729062 0 0)
(-0.0624734 0 0)
(-0.0523447 0 0)
(-0.0424741 0 0)
(-0.0328152 0 0)
(-0.0233214 0 0)
(-0.0139456 0 0)
(-0.00464064 0 0)
)
;

boundaryField
{
    movingWall
    {
        type            calculated;
        value           uniform (1.30511 0 0);
    }
    fixedWalls
    {
        type            calculated;
        value           nonuniform List<vector> 
201
(
(1.15727 0 0)
(0.870612 0 0)
(0.601724 0 0)
(0.350036 0 0)
(0.114976 0 0)
(-0.104029 0 0)
(-0.307551 0 0)
(-0.496162 0 0)
(-0.670429 0 0)
(-0.830918 0 0)
(-0.978187 0 0)
(-1.11279 0 0)
(-1.23527 0 0)
(-1.34618 0 0)
(-1.44603 0 0)
(-1.53535 0 0)
(-1.61465 0 0)
(-1.68443 0 0)
(-1.74519 0 0)
(-1.79739 0 0)
(-1.84151 0 0)
(-1.87799 0 0)
(-1.90729 0 0)
(-1.92983 0 0)
(-1.94602 0 0)
(-1.95627 0 0)
(-1.96097 0 0)
(-1.9605 0 0)
(-1.95522 0 0)
(-1.94549 0 0)
(-1.93163 0 0)
(-1.91398 0 0)
(-1.89285 0 0)
(-1.86854 0 0)
(-1.84133 0 0)
(-1.8115 0 0)
(-1.77931 0 0)
(-1.74501 0 0)
(-1.70883 0 0)
(-1.67102 0 0)
(-1.63177 0 0)
(-1.59129 0 0)
(-1.54978 0 0)
(-1.50742 0 0)
(-1.46438 0 0)
(-1.42082 0 0)
(-1.37689 0 0)
(-1.33274 0 0)
(-1.28849 0 0)
(-1.24428 0 0)
(-1.20021 0 0)
(-1.15639 0 0)
(-1.11293 0 0)
(-1.06991 0 0)
(-1.02742 0 0)
(-0.985524 0 0)
(-0.944303 0 0)
(-0.903814 0 0)
(-0.864115 0 0)
(-0.825253 0 0)
(-0.787274 0 0)
(-0.750214 0 0)
(-0.714107 0 0)
(-0.67898 0 0)
(-0.644855 0 0)
(-0.61175 0 0)
(-0.579678 0 0)
(-0.548649 0 0)
(-0.518666 0 0)
(-0.489732 0 0)
(-0.461843 0 0)
(-0.434995 0 0)
(-0.409176 0 0)
(-0.384376 0 0)
(-0.360578 0 0)
(-0.337766 0 0)
(-0.315917 0 0)
(-0.29501 0 0)
(-0.275019 0 0)
(-0.255917 0 0)
(-0.237674 0 0)
(-0.220258 0 0)
(-0.203638 0 0)
(-0.187779 0 0)
(-0.172644 0 0)
(-0.158196 0 0)
(-0.144396 0 0)
(-0.131204 0 0)
(-0.11858 0 0)
(-0.106482 0 0)
(-0.0948657 0 0)
(-0.0836886 0 0)
(-0.0729062 0 0)
(-0.0624734 0 0)
(-0.0523447 0 0)
(-0.0424741 0 0)
(-0.0328152 0 0)
(-0.0233214 0 0)
(-0.0139456 0 0)
(-0.00464064 0 0)
(0 0 0)
(1.15727 0 0)
(0.870612 0 0)
(0.601724 0 0)
(0.350036 0 0)
(0.114976 0 0)
(-0.104029 0 0)
(-0.307551 0 0)
(-0.496162 0 0)
(-0.670429 0 0)
(-0.830918 0 0)
(-0.978187 0 0)
(-1.11279 0 0)
(-1.23527 0 0)
(-1.34618 0 0)
(-1.44603 0 0)
(-1.53535 0 0)
(-1.61465 0 0)
(-1.68443 0 0)
(-1.74519 0 0)
(-1.79739 0 0)
(-1.84151 0 0)
(-1.87799 0 0)
(-1.90729 0 0)
(-1.92983 0 0)
(-1.94602 0 0)
(-1.95627 0 0)
(-1.96097 0 0)
(-1.9605 0 0)
(-1.95522 0 0)
(-1.94549 0 0)
(-1.93163 0 0)
(-1.91398 0 0)
(-1.89285 0 0)
(-1.86854 0 0)
(-1.84133 0 0)
(-1.8115 0 0)
(-1.77931 0 0)
(-1.74501 0 0)
(-1.70883 0 0)
(-1.67102 0 0)
(-1.63177 0 0)
(-1.59129 0 0)
(-1.54978 0 0)
(-1.50742 0 0)
(-1.46438 0 0)
(-1.42082 0 0)
(-1.37689 0 0)
(-1.33274 0 0)
(-1.28849 0 0)
(-1.24428 0 0)
(-1.20021 0 0)
(-1.15639 0 0)
(-1.11293 0 0)
(-1.06991 0 0)
(-1.02742 0 0)
(-0.985524 0 0)
(-0.944303 0 0)
(-0.903814 0 0)
(-0.864115 0 0)
(-0.825253 0 0)
(-0.787274 0 0)
(-0.750214 0 0)
(-0.714107 0 0)
(-0.67898 0 0)
(-0.644855 0 0)
(-0.61175 0 0)
(-0.579678 0 0)
(-0.548649 0 0)
(-0.518666 0 0)
(-0.489732 0 0)
(-0.461843 0 0)
(-0.434995 0 0)
(-0.409176 0 0)
(-0.384376 0 0)
(-0.360578 0 0)
(-0.337766 0 0)
(-0.315917 0 0)
(-0.29501 0 0)
(-0.275019 0 0)
(-0.255917 0 0)
(-0.237674 0 0)
(-0.220258 0 0)
(-0.203638 0 0)
(-0.187779 0 0)
(-0.172644 0 0)
(-0.158196 0 0)
(-0.144396 0 0)
(-0.131204 0 0)
(-0.11858 0 0)
(-0.106482 0 0)
(-0.0948657 0 0)
(-0.0836886 0 0)
(-0.0729062 0 0)
(-0.0624734 0 0)
(-0.0523447 0 0)
(-0.0424741 0 0)
(-0.0328152 0 0)
(-0.0233214 0 0)
(-0.0139456 0 0)
(-0.00464064 0 0)
)
;
    }
    frontAndBack
    {
        type            empty;
    }
}


// ************************************************************************* //
