/*--------------------------------*- C++ -*----------------------------------*\
| =========                 |                                                 |
| \\      /  F ield         | OpenFOAM: The Open Source CFD Toolbox           |
|  \\    /   O peration     | Version:  2312                                  |
|   \\  /    A nd           | Website:  www.openfoam.com                      |
|    \\/     M anipulation  |                                                 |
\*---------------------------------------------------------------------------*/
FoamFile
{
    version     2.0;
    format      ascii;
    arch        "LSB;label=32;scalar=64";
    class       volScalarField;
    location    "1.4";
    object      gradTx;
}
// * * * * * * * * * * * * * * * * * * * * * * * * * * * * * * * * * * * * * //

dimensions      [0 -1 0 1 0 0 0];

internalField   nonuniform List<scalar> 
100
(
1.15727
0.870612
0.601724
0.350036
0.114976
-0.104029
-0.307551
-0.496162
-0.670429
-0.830918
-0.978187
-1.11279
-1.23527
-1.34618
-1.44603
-1.53535
-1.61465
-1.68443
-1.74519
-1.79739
-1.84151
-1.87799
-1.90729
-1.92983
-1.94602
-1.95627
-1.96097
-1.9605
-1.95522
-1.94549
-1.93163
-1.91398
-1.89285
-1.86854
-1.84133
-1.8115
-1.77931
-1.74501
-1.70883
-1.67102
-1.63177
-1.59129
-1.54978
-1.50742
-1.46438
-1.42082
-1.37689
-1.33274
-1.28849
-1.24428
-1.20021
-1.15639
-1.11293
-1.06991
-1.02742
-0.985524
-0.944303
-0.903814
-0.864115
-0.825253
-0.787274
-0.750214
-0.714107
-0.67898
-0.644855
-0.61175
-0.579678
-0.548649
-0.518666
-0.489732
-0.461843
-0.434995
-0.409176
-0.384376
-0.360578
-0.337766
-0.315917
-0.29501
-0.275019
-0.255917
-0.237674
-0.220258
-0.203638
-0.187779
-0.172644
-0.158196
-0.144396
-0.131204
-0.11858
-0.106482
-0.0948657
-0.0836886
-0.0729062
-0.0624734
-0.0523447
-0.0424741
-0.0328152
-0.0233214
-0.0139456
-0.00464064
)
;

boundaryField
{
    movingWall
    {
        type            calculated;
        value           uniform 1.30511;
    }
    fixedWalls
    {
        type            calculated;
        value           nonuniform List<scalar> 
201
(
1.15727
0.870612
0.601724
0.350036
0.114976
-0.104029
-0.307551
-0.496162
-0.670429
-0.830918
-0.978187
-1.11279
-1.23527
-1.34618
-1.44603
-1.53535
-1.61465
-1.68443
-1.74519
-1.79739
-1.84151
-1.87799
-1.90729
-1.92983
-1.94602
-1.95627
-1.96097
-1.9605
-1.95522
-1.94549
-1.93163
-1.91398
-1.89285
-1.86854
-1.84133
-1.8115
-1.77931
-1.74501
-1.70883
-1.67102
-1.63177
-1.59129
-1.54978
-1.50742
-1.46438
-1.42082
-1.37689
-1.33274
-1.28849
-1.24428
-1.20021
-1.15639
-1.11293
-1.06991
-1.02742
-0.985524
-0.944303
-0.903814
-0.864115
-0.825253
-0.787274
-0.750214
-0.714107
-0.67898
-0.644855
-0.61175
-0.579678
-0.548649
-0.518666
-0.489732
-0.461843
-0.434995
-0.409176
-0.384376
-0.360578
-0.337766
-0.315917
-0.29501
-0.275019
-0.255917
-0.237674
-0.220258
-0.203638
-0.187779
-0.172644
-0.158196
-0.144396
-0.131204
-0.11858
-0.106482
-0.0948657
-0.0836886
-0.0729062
-0.0624734
-0.0523447
-0.0424741
-0.0328152
-0.0233214
-0.0139456
-0.00464064
0
1.15727
0.870612
0.601724
0.350036
0.114976
-0.104029
-0.307551
-0.496162
-0.670429
-0.830918
-0.978187
-1.11279
-1.23527
-1.34618
-1.44603
-1.53535
-1.61465
-1.68443
-1.74519
-1.79739
-1.84151
-1.87799
-1.90729
-1.92983
-1.94602
-1.95627
-1.96097
-1.9605
-1.95522
-1.94549
-1.93163
-1.91398
-1.89285
-1.86854
-1.84133
-1.8115
-1.77931
-1.74501
-1.70883
-1.67102
-1.63177
-1.59129
-1.54978
-1.50742
-1.46438
-1.42082
-1.37689
-1.33274
-1.28849
-1.24428
-1.20021
-1.15639
-1.11293
-1.06991
-1.02742
-0.985524
-0.944303
-0.903814
-0.864115
-0.825253
-0.787274
-0.750214
-0.714107
-0.67898
-0.644855
-0.61175
-0.579678
-0.548649
-0.518666
-0.489732
-0.461843
-0.434995
-0.409176
-0.384376
-0.360578
-0.337766
-0.315917
-0.29501
-0.275019
-0.255917
-0.237674
-0.220258
-0.203638
-0.187779
-0.172644
-0.158196
-0.144396
-0.131204
-0.11858
-0.106482
-0.0948657
-0.0836886
-0.0729062
-0.0624734
-0.0523447
-0.0424741
-0.0328152
-0.0233214
-0.0139456
-0.00464064
)
;
    }
    frontAndBack
    {
        type            empty;
    }
}


// ************************************************************************* //
