/*--------------------------------*- C++ -*----------------------------------*\
| =========                 |                                                 |
| \\      /  F ield         | OpenFOAM: The Open Source CFD Toolbox           |
|  \\    /   O peration     | Version:  2312                                  |
|   \\  /    A nd           | Website:  www.openfoam.com                      |
|    \\/     M anipulation  |                                                 |
\*---------------------------------------------------------------------------*/
FoamFile
{
    version     2.0;
    format      ascii;
    arch        "LSB;label=32;scalar=64";
    class       volVectorField;
    location    "0.7";
    object      flux;
}
// * * * * * * * * * * * * * * * * * * * * * * * * * * * * * * * * * * * * * //

dimensions      [0 1 -1 1 0 0 0];

internalField   nonuniform List<vector> 
100
(
(6.84915 0 0)
(6.72439 0 0)
(6.59222 0 0)
(6.45347 0 0)
(6.30892 0 0)
(6.1593 0 0)
(6.00533 0 0)
(5.84765 0 0)
(5.6869 0 0)
(5.52367 0 0)
(5.35851 0 0)
(5.19196 0 0)
(5.0245 0 0)
(4.85659 0 0)
(4.68866 0 0)
(4.52111 0 0)
(4.35432 0 0)
(4.18863 0 0)
(4.02436 0 0)
(3.8618 0 0)
(3.70123 0 0)
(3.54289 0 0)
(3.38701 0 0)
(3.23378 0 0)
(3.0834 0 0)
(2.93603 0 0)
(2.79182 0 0)
(2.65089 0 0)
(2.51336 0 0)
(2.37933 0 0)
(2.24887 0 0)
(2.12207 0 0)
(1.99896 0 0)
(1.8796 0 0)
(1.76402 0 0)
(1.65224 0 0)
(1.54426 0 0)
(1.4401 0 0)
(1.33974 0 0)
(1.24317 0 0)
(1.15037 0 0)
(1.0613 0 0)
(0.975926 0 0)
(0.89421 0 0)
(0.816102 0 0)
(0.74155 0 0)
(0.670497 0 0)
(0.602881 0 0)
(0.538638 0 0)
(0.477701 0 0)
(0.419999 0 0)
(0.36546 0 0)
(0.314008 0 0)
(0.265567 0 0)
(0.220059 0 0)
(0.177405 0 0)
(0.137524 0 0)
(0.100337 0 0)
(0.065762 0 0)
(0.0337176 0 0)
(0.00412258 0 0)
(-0.0231041 0 0)
(-0.0480432 0 0)
(-0.070775 0 0)
(-0.0913791 0 0)
(-0.109934 0 0)
(-0.126519 0 0)
(-0.141209 0 0)
(-0.154082 0 0)
(-0.165212 0 0)
(-0.174672 0 0)
(-0.182535 0 0)
(-0.188872 0 0)
(-0.193753 0 0)
(-0.197246 0 0)
(-0.199417 0 0)
(-0.200333 0 0)
(-0.200058 0 0)
(-0.198654 0 0)
(-0.196182 0 0)
(-0.192703 0 0)
(-0.188276 0 0)
(-0.182957 0 0)
(-0.176803 0 0)
(-0.169869 0 0)
(-0.162208 0 0)
(-0.153872 0 0)
(-0.144914 0 0)
(-0.135384 0 0)
(-0.125331 0 0)
(-0.114803 0 0)
(-0.103849 0 0)
(-0.0925154 0 0)
(-0.0808484 0 0)
(-0.0688937 0 0)
(-0.0566966 0 0)
(-0.0443017 0 0)
(-0.0317534 0 0)
(-0.0190957 0 0)
(-0.00637253 0 0)
)
;

boundaryField
{
    movingWall
    {
        type            calculated;
        value           uniform (6.90958 0 0);
    }
    fixedWalls
    {
        type            calculated;
        value           nonuniform List<vector> 
201
(
(6.84915 0 0)
(6.72439 0 0)
(6.59222 0 0)
(6.45347 0 0)
(6.30892 0 0)
(6.1593 0 0)
(6.00533 0 0)
(5.84765 0 0)
(5.6869 0 0)
(5.52367 0 0)
(5.35851 0 0)
(5.19196 0 0)
(5.0245 0 0)
(4.85659 0 0)
(4.68866 0 0)
(4.52111 0 0)
(4.35432 0 0)
(4.18863 0 0)
(4.02436 0 0)
(3.8618 0 0)
(3.70123 0 0)
(3.54289 0 0)
(3.38701 0 0)
(3.23378 0 0)
(3.0834 0 0)
(2.93603 0 0)
(2.79182 0 0)
(2.65089 0 0)
(2.51336 0 0)
(2.37933 0 0)
(2.24887 0 0)
(2.12207 0 0)
(1.99896 0 0)
(1.8796 0 0)
(1.76402 0 0)
(1.65224 0 0)
(1.54426 0 0)
(1.4401 0 0)
(1.33974 0 0)
(1.24317 0 0)
(1.15037 0 0)
(1.0613 0 0)
(0.975926 0 0)
(0.89421 0 0)
(0.816102 0 0)
(0.74155 0 0)
(0.670497 0 0)
(0.602881 0 0)
(0.538638 0 0)
(0.477701 0 0)
(0.419999 0 0)
(0.36546 0 0)
(0.314008 0 0)
(0.265567 0 0)
(0.220059 0 0)
(0.177405 0 0)
(0.137524 0 0)
(0.100337 0 0)
(0.065762 0 0)
(0.0337176 0 0)
(0.00412258 0 0)
(-0.0231041 0 0)
(-0.0480432 0 0)
(-0.070775 0 0)
(-0.0913791 0 0)
(-0.109934 0 0)
(-0.126519 0 0)
(-0.141209 0 0)
(-0.154082 0 0)
(-0.165212 0 0)
(-0.174672 0 0)
(-0.182535 0 0)
(-0.188872 0 0)
(-0.193753 0 0)
(-0.197246 0 0)
(-0.199417 0 0)
(-0.200333 0 0)
(-0.200058 0 0)
(-0.198654 0 0)
(-0.196182 0 0)
(-0.192703 0 0)
(-0.188276 0 0)
(-0.182957 0 0)
(-0.176803 0 0)
(-0.169869 0 0)
(-0.162208 0 0)
(-0.153872 0 0)
(-0.144914 0 0)
(-0.135384 0 0)
(-0.125331 0 0)
(-0.114803 0 0)
(-0.103849 0 0)
(-0.0925154 0 0)
(-0.0808484 0 0)
(-0.0688937 0 0)
(-0.0566966 0 0)
(-0.0443017 0 0)
(-0.0317534 0 0)
(-0.0190957 0 0)
(-0.00637253 0 0)
(0 0 0)
(6.84915 0 0)
(6.72439 0 0)
(6.59222 0 0)
(6.45347 0 0)
(6.30892 0 0)
(6.1593 0 0)
(6.00533 0 0)
(5.84765 0 0)
(5.6869 0 0)
(5.52367 0 0)
(5.35851 0 0)
(5.19196 0 0)
(5.0245 0 0)
(4.85659 0 0)
(4.68866 0 0)
(4.52111 0 0)
(4.35432 0 0)
(4.18863 0 0)
(4.02436 0 0)
(3.8618 0 0)
(3.70123 0 0)
(3.54289 0 0)
(3.38701 0 0)
(3.23378 0 0)
(3.0834 0 0)
(2.93603 0 0)
(2.79182 0 0)
(2.65089 0 0)
(2.51336 0 0)
(2.37933 0 0)
(2.24887 0 0)
(2.12207 0 0)
(1.99896 0 0)
(1.8796 0 0)
(1.76402 0 0)
(1.65224 0 0)
(1.54426 0 0)
(1.4401 0 0)
(1.33974 0 0)
(1.24317 0 0)
(1.15037 0 0)
(1.0613 0 0)
(0.975926 0 0)
(0.89421 0 0)
(0.816102 0 0)
(0.74155 0 0)
(0.670497 0 0)
(0.602881 0 0)
(0.538638 0 0)
(0.477701 0 0)
(0.419999 0 0)
(0.36546 0 0)
(0.314008 0 0)
(0.265567 0 0)
(0.220059 0 0)
(0.177405 0 0)
(0.137524 0 0)
(0.100337 0 0)
(0.065762 0 0)
(0.0337176 0 0)
(0.00412258 0 0)
(-0.0231041 0 0)
(-0.0480432 0 0)
(-0.070775 0 0)
(-0.0913791 0 0)
(-0.109934 0 0)
(-0.126519 0 0)
(-0.141209 0 0)
(-0.154082 0 0)
(-0.165212 0 0)
(-0.174672 0 0)
(-0.182535 0 0)
(-0.188872 0 0)
(-0.193753 0 0)
(-0.197246 0 0)
(-0.199417 0 0)
(-0.200333 0 0)
(-0.200058 0 0)
(-0.198654 0 0)
(-0.196182 0 0)
(-0.192703 0 0)
(-0.188276 0 0)
(-0.182957 0 0)
(-0.176803 0 0)
(-0.169869 0 0)
(-0.162208 0 0)
(-0.153872 0 0)
(-0.144914 0 0)
(-0.135384 0 0)
(-0.125331 0 0)
(-0.114803 0 0)
(-0.103849 0 0)
(-0.0925154 0 0)
(-0.0808484 0 0)
(-0.0688937 0 0)
(-0.0566966 0 0)
(-0.0443017 0 0)
(-0.0317534 0 0)
(-0.0190957 0 0)
(-0.00637253 0 0)
)
;
    }
    frontAndBack
    {
        type            empty;
    }
}


// ************************************************************************* //
