/*--------------------------------*- C++ -*----------------------------------*\
| =========                 |                                                 |
| \\      /  F ield         | OpenFOAM: The Open Source CFD Toolbox           |
|  \\    /   O peration     | Version:  2312                                  |
|   \\  /    A nd           | Website:  www.openfoam.com                      |
|    \\/     M anipulation  |                                                 |
\*---------------------------------------------------------------------------*/
FoamFile
{
    version     2.0;
    format      ascii;
    arch        "LSB;label=32;scalar=64";
    class       volScalarField;
    location    "0.7";
    object      gradTx;
}
// * * * * * * * * * * * * * * * * * * * * * * * * * * * * * * * * * * * * * //

dimensions      [0 -1 0 1 0 0 0];

internalField   nonuniform List<scalar> 
100
(
6.84915
6.72439
6.59222
6.45347
6.30892
6.1593
6.00533
5.84765
5.6869
5.52367
5.35851
5.19196
5.0245
4.85659
4.68866
4.52111
4.35432
4.18863
4.02436
3.8618
3.70123
3.54289
3.38701
3.23378
3.0834
2.93603
2.79182
2.65089
2.51336
2.37933
2.24887
2.12207
1.99896
1.8796
1.76402
1.65224
1.54426
1.4401
1.33974
1.24317
1.15037
1.0613
0.975926
0.89421
0.816102
0.74155
0.670497
0.602881
0.538638
0.477701
0.419999
0.36546
0.314008
0.265567
0.220059
0.177405
0.137524
0.100337
0.065762
0.0337176
0.00412258
-0.0231041
-0.0480432
-0.070775
-0.0913791
-0.109934
-0.126519
-0.141209
-0.154082
-0.165212
-0.174672
-0.182535
-0.188872
-0.193753
-0.197246
-0.199417
-0.200333
-0.200058
-0.198654
-0.196182
-0.192703
-0.188276
-0.182957
-0.176803
-0.169869
-0.162208
-0.153872
-0.144914
-0.135384
-0.125331
-0.114803
-0.103849
-0.0925154
-0.0808484
-0.0688937
-0.0566966
-0.0443017
-0.0317534
-0.0190957
-0.00637253
)
;

boundaryField
{
    movingWall
    {
        type            calculated;
        value           uniform 6.90958;
    }
    fixedWalls
    {
        type            calculated;
        value           nonuniform List<scalar> 
201
(
6.84915
6.72439
6.59222
6.45347
6.30892
6.1593
6.00533
5.84765
5.6869
5.52367
5.35851
5.19196
5.0245
4.85659
4.68866
4.52111
4.35432
4.18863
4.02436
3.8618
3.70123
3.54289
3.38701
3.23378
3.0834
2.93603
2.79182
2.65089
2.51336
2.37933
2.24887
2.12207
1.99896
1.8796
1.76402
1.65224
1.54426
1.4401
1.33974
1.24317
1.15037
1.0613
0.975926
0.89421
0.816102
0.74155
0.670497
0.602881
0.538638
0.477701
0.419999
0.36546
0.314008
0.265567
0.220059
0.177405
0.137524
0.100337
0.065762
0.0337176
0.00412258
-0.0231041
-0.0480432
-0.070775
-0.0913791
-0.109934
-0.126519
-0.141209
-0.154082
-0.165212
-0.174672
-0.182535
-0.188872
-0.193753
-0.197246
-0.199417
-0.200333
-0.200058
-0.198654
-0.196182
-0.192703
-0.188276
-0.182957
-0.176803
-0.169869
-0.162208
-0.153872
-0.144914
-0.135384
-0.125331
-0.114803
-0.103849
-0.0925154
-0.0808484
-0.0688937
-0.0566966
-0.0443017
-0.0317534
-0.0190957
-0.00637253
0
6.84915
6.72439
6.59222
6.45347
6.30892
6.1593
6.00533
5.84765
5.6869
5.52367
5.35851
5.19196
5.0245
4.85659
4.68866
4.52111
4.35432
4.18863
4.02436
3.8618
3.70123
3.54289
3.38701
3.23378
3.0834
2.93603
2.79182
2.65089
2.51336
2.37933
2.24887
2.12207
1.99896
1.8796
1.76402
1.65224
1.54426
1.4401
1.33974
1.24317
1.15037
1.0613
0.975926
0.89421
0.816102
0.74155
0.670497
0.602881
0.538638
0.477701
0.419999
0.36546
0.314008
0.265567
0.220059
0.177405
0.137524
0.100337
0.065762
0.0337176
0.00412258
-0.0231041
-0.0480432
-0.070775
-0.0913791
-0.109934
-0.126519
-0.141209
-0.154082
-0.165212
-0.174672
-0.182535
-0.188872
-0.193753
-0.197246
-0.199417
-0.200333
-0.200058
-0.198654
-0.196182
-0.192703
-0.188276
-0.182957
-0.176803
-0.169869
-0.162208
-0.153872
-0.144914
-0.135384
-0.125331
-0.114803
-0.103849
-0.0925154
-0.0808484
-0.0688937
-0.0566966
-0.0443017
-0.0317534
-0.0190957
-0.00637253
)
;
    }
    frontAndBack
    {
        type            empty;
    }
}


// ************************************************************************* //
