/*--------------------------------*- C++ -*----------------------------------*\
| =========                 |                                                 |
| \\      /  F ield         | OpenFOAM: The Open Source CFD Toolbox           |
|  \\    /   O peration     | Version:  2312                                  |
|   \\  /    A nd           | Website:  www.openfoam.com                      |
|    \\/     M anipulation  |                                                 |
\*---------------------------------------------------------------------------*/
FoamFile
{
    version     2.0;
    format      ascii;
    arch        "LSB;label=32;scalar=64";
    class       volVectorField;
    location    "1.7";
    object      flux;
}
// * * * * * * * * * * * * * * * * * * * * * * * * * * * * * * * * * * * * * //

dimensions      [0 1 -1 1 0 0 0];

internalField   nonuniform List<vector> 
100
(
(6.7315 0 0)
(6.60682 0 0)
(6.47483 0 0)
(6.33635 0 0)
(6.19215 0 0)
(6.04298 0 0)
(5.88953 0 0)
(5.73247 0 0)
(5.57242 0 0)
(5.40998 0 0)
(5.24569 0 0)
(5.08008 0 0)
(4.91365 0 0)
(4.74684 0 0)
(4.58009 0 0)
(4.4138 0 0)
(4.24833 0 0)
(4.08403 0 0)
(3.92122 0 0)
(3.76019 0 0)
(3.6012 0 0)
(3.44451 0 0)
(3.29033 0 0)
(3.13886 0 0)
(2.99028 0 0)
(2.84476 0 0)
(2.70244 0 0)
(2.56345 0 0)
(2.4279 0 0)
(2.29587 0 0)
(2.16746 0 0)
(2.04272 0 0)
(1.92171 0 0)
(1.80446 0 0)
(1.69101 0 0)
(1.58137 0 0)
(1.47556 0 0)
(1.37356 0 0)
(1.27537 0 0)
(1.18098 0 0)
(1.09034 0 0)
(1.00343 0 0)
(0.920218 0 0)
(0.840646 0 0)
(0.764668 0 0)
(0.692228 0 0)
(0.623266 0 0)
(0.557719 0 0)
(0.495518 0 0)
(0.436594 0 0)
(0.380874 0 0)
(0.328283 0 0)
(0.278742 0 0)
(0.232174 0 0)
(0.188499 0 0)
(0.147634 0 0)
(0.109499 0 0)
(0.07401 0 0)
(0.0410852 0 0)
(0.0106415 0 0)
(-0.0174038 0 0)
(-0.0431329 0 0)
(-0.0666279 0 0)
(-0.0879699 0 0)
(-0.107239 0 0)
(-0.124516 0 0)
(-0.139878 0 0)
(-0.153403 0 0)
(-0.165167 0 0)
(-0.175245 0 0)
(-0.18371 0 0)
(-0.190635 0 0)
(-0.196091 0 0)
(-0.200146 0 0)
(-0.202868 0 0)
(-0.204324 0 0)
(-0.204578 0 0)
(-0.203693 0 0)
(-0.201731 0 0)
(-0.198751 0 0)
(-0.194813 0 0)
(-0.189974 0 0)
(-0.184288 0 0)
(-0.177811 0 0)
(-0.170595 0 0)
(-0.162693 0 0)
(-0.154154 0 0)
(-0.145027 0 0)
(-0.135362 0 0)
(-0.125205 0 0)
(-0.114601 0 0)
(-0.103598 0 0)
(-0.0922376 0 0)
(-0.0805651 0 0)
(-0.0686231 0 0)
(-0.056454 0 0)
(-0.0440999 0 0)
(-0.0316022 0 0)
(-0.0190022 0 0)
(-0.00634086 0 0)
)
;

boundaryField
{
    movingWall
    {
        type            calculated;
        value           uniform (6.7919 0 0);
    }
    fixedWalls
    {
        type            calculated;
        value           nonuniform List<vector> 
201
(
(6.7315 0 0)
(6.60682 0 0)
(6.47483 0 0)
(6.33635 0 0)
(6.19215 0 0)
(6.04298 0 0)
(5.88953 0 0)
(5.73247 0 0)
(5.57242 0 0)
(5.40998 0 0)
(5.24569 0 0)
(5.08008 0 0)
(4.91365 0 0)
(4.74684 0 0)
(4.58009 0 0)
(4.4138 0 0)
(4.24833 0 0)
(4.08403 0 0)
(3.92122 0 0)
(3.76019 0 0)
(3.6012 0 0)
(3.44451 0 0)
(3.29033 0 0)
(3.13886 0 0)
(2.99028 0 0)
(2.84476 0 0)
(2.70244 0 0)
(2.56345 0 0)
(2.4279 0 0)
(2.29587 0 0)
(2.16746 0 0)
(2.04272 0 0)
(1.92171 0 0)
(1.80446 0 0)
(1.69101 0 0)
(1.58137 0 0)
(1.47556 0 0)
(1.37356 0 0)
(1.27537 0 0)
(1.18098 0 0)
(1.09034 0 0)
(1.00343 0 0)
(0.920218 0 0)
(0.840646 0 0)
(0.764668 0 0)
(0.692228 0 0)
(0.623266 0 0)
(0.557719 0 0)
(0.495518 0 0)
(0.436594 0 0)
(0.380874 0 0)
(0.328283 0 0)
(0.278742 0 0)
(0.232174 0 0)
(0.188499 0 0)
(0.147634 0 0)
(0.109499 0 0)
(0.07401 0 0)
(0.0410852 0 0)
(0.0106415 0 0)
(-0.0174038 0 0)
(-0.0431329 0 0)
(-0.0666279 0 0)
(-0.0879699 0 0)
(-0.107239 0 0)
(-0.124516 0 0)
(-0.139878 0 0)
(-0.153403 0 0)
(-0.165167 0 0)
(-0.175245 0 0)
(-0.18371 0 0)
(-0.190635 0 0)
(-0.196091 0 0)
(-0.200146 0 0)
(-0.202868 0 0)
(-0.204324 0 0)
(-0.204578 0 0)
(-0.203693 0 0)
(-0.201731 0 0)
(-0.198751 0 0)
(-0.194813 0 0)
(-0.189974 0 0)
(-0.184288 0 0)
(-0.177811 0 0)
(-0.170595 0 0)
(-0.162693 0 0)
(-0.154154 0 0)
(-0.145027 0 0)
(-0.135362 0 0)
(-0.125205 0 0)
(-0.114601 0 0)
(-0.103598 0 0)
(-0.0922376 0 0)
(-0.0805651 0 0)
(-0.0686231 0 0)
(-0.056454 0 0)
(-0.0440999 0 0)
(-0.0316022 0 0)
(-0.0190022 0 0)
(-0.00634086 0 0)
(0 0 0)
(6.7315 0 0)
(6.60682 0 0)
(6.47483 0 0)
(6.33635 0 0)
(6.19215 0 0)
(6.04298 0 0)
(5.88953 0 0)
(5.73247 0 0)
(5.57242 0 0)
(5.40998 0 0)
(5.24569 0 0)
(5.08008 0 0)
(4.91365 0 0)
(4.74684 0 0)
(4.58009 0 0)
(4.4138 0 0)
(4.24833 0 0)
(4.08403 0 0)
(3.92122 0 0)
(3.76019 0 0)
(3.6012 0 0)
(3.44451 0 0)
(3.29033 0 0)
(3.13886 0 0)
(2.99028 0 0)
(2.84476 0 0)
(2.70244 0 0)
(2.56345 0 0)
(2.4279 0 0)
(2.29587 0 0)
(2.16746 0 0)
(2.04272 0 0)
(1.92171 0 0)
(1.80446 0 0)
(1.69101 0 0)
(1.58137 0 0)
(1.47556 0 0)
(1.37356 0 0)
(1.27537 0 0)
(1.18098 0 0)
(1.09034 0 0)
(1.00343 0 0)
(0.920218 0 0)
(0.840646 0 0)
(0.764668 0 0)
(0.692228 0 0)
(0.623266 0 0)
(0.557719 0 0)
(0.495518 0 0)
(0.436594 0 0)
(0.380874 0 0)
(0.328283 0 0)
(0.278742 0 0)
(0.232174 0 0)
(0.188499 0 0)
(0.147634 0 0)
(0.109499 0 0)
(0.07401 0 0)
(0.0410852 0 0)
(0.0106415 0 0)
(-0.0174038 0 0)
(-0.0431329 0 0)
(-0.0666279 0 0)
(-0.0879699 0 0)
(-0.107239 0 0)
(-0.124516 0 0)
(-0.139878 0 0)
(-0.153403 0 0)
(-0.165167 0 0)
(-0.175245 0 0)
(-0.18371 0 0)
(-0.190635 0 0)
(-0.196091 0 0)
(-0.200146 0 0)
(-0.202868 0 0)
(-0.204324 0 0)
(-0.204578 0 0)
(-0.203693 0 0)
(-0.201731 0 0)
(-0.198751 0 0)
(-0.194813 0 0)
(-0.189974 0 0)
(-0.184288 0 0)
(-0.177811 0 0)
(-0.170595 0 0)
(-0.162693 0 0)
(-0.154154 0 0)
(-0.145027 0 0)
(-0.135362 0 0)
(-0.125205 0 0)
(-0.114601 0 0)
(-0.103598 0 0)
(-0.0922376 0 0)
(-0.0805651 0 0)
(-0.0686231 0 0)
(-0.056454 0 0)
(-0.0440999 0 0)
(-0.0316022 0 0)
(-0.0190022 0 0)
(-0.00634086 0 0)
)
;
    }
    frontAndBack
    {
        type            empty;
    }
}


// ************************************************************************* //
