/*--------------------------------*- C++ -*----------------------------------*\
| =========                 |                                                 |
| \\      /  F ield         | OpenFOAM: The Open Source CFD Toolbox           |
|  \\    /   O peration     | Version:  2312                                  |
|   \\  /    A nd           | Website:  www.openfoam.com                      |
|    \\/     M anipulation  |                                                 |
\*---------------------------------------------------------------------------*/
FoamFile
{
    version     2.0;
    format      ascii;
    arch        "LSB;label=32;scalar=64";
    class       volScalarField;
    location    "1.7";
    object      gradTx;
}
// * * * * * * * * * * * * * * * * * * * * * * * * * * * * * * * * * * * * * //

dimensions      [0 -1 0 1 0 0 0];

internalField   nonuniform List<scalar> 
100
(
6.7315
6.60682
6.47483
6.33635
6.19215
6.04298
5.88953
5.73247
5.57242
5.40998
5.24569
5.08008
4.91365
4.74684
4.58009
4.4138
4.24833
4.08403
3.92122
3.76019
3.6012
3.44451
3.29033
3.13886
2.99028
2.84476
2.70244
2.56345
2.4279
2.29587
2.16746
2.04272
1.92171
1.80446
1.69101
1.58137
1.47556
1.37356
1.27537
1.18098
1.09034
1.00343
0.920218
0.840646
0.764668
0.692228
0.623266
0.557719
0.495518
0.436594
0.380874
0.328283
0.278742
0.232174
0.188499
0.147634
0.109499
0.07401
0.0410852
0.0106415
-0.0174038
-0.0431329
-0.0666279
-0.0879699
-0.107239
-0.124516
-0.139878
-0.153403
-0.165167
-0.175245
-0.18371
-0.190635
-0.196091
-0.200146
-0.202868
-0.204324
-0.204578
-0.203693
-0.201731
-0.198751
-0.194813
-0.189974
-0.184288
-0.177811
-0.170595
-0.162693
-0.154154
-0.145027
-0.135362
-0.125205
-0.114601
-0.103598
-0.0922376
-0.0805651
-0.0686231
-0.056454
-0.0440999
-0.0316022
-0.0190022
-0.00634086
)
;

boundaryField
{
    movingWall
    {
        type            calculated;
        value           uniform 6.7919;
    }
    fixedWalls
    {
        type            calculated;
        value           nonuniform List<scalar> 
201
(
6.7315
6.60682
6.47483
6.33635
6.19215
6.04298
5.88953
5.73247
5.57242
5.40998
5.24569
5.08008
4.91365
4.74684
4.58009
4.4138
4.24833
4.08403
3.92122
3.76019
3.6012
3.44451
3.29033
3.13886
2.99028
2.84476
2.70244
2.56345
2.4279
2.29587
2.16746
2.04272
1.92171
1.80446
1.69101
1.58137
1.47556
1.37356
1.27537
1.18098
1.09034
1.00343
0.920218
0.840646
0.764668
0.692228
0.623266
0.557719
0.495518
0.436594
0.380874
0.328283
0.278742
0.232174
0.188499
0.147634
0.109499
0.07401
0.0410852
0.0106415
-0.0174038
-0.0431329
-0.0666279
-0.0879699
-0.107239
-0.124516
-0.139878
-0.153403
-0.165167
-0.175245
-0.18371
-0.190635
-0.196091
-0.200146
-0.202868
-0.204324
-0.204578
-0.203693
-0.201731
-0.198751
-0.194813
-0.189974
-0.184288
-0.177811
-0.170595
-0.162693
-0.154154
-0.145027
-0.135362
-0.125205
-0.114601
-0.103598
-0.0922376
-0.0805651
-0.0686231
-0.056454
-0.0440999
-0.0316022
-0.0190022
-0.00634086
0
6.7315
6.60682
6.47483
6.33635
6.19215
6.04298
5.88953
5.73247
5.57242
5.40998
5.24569
5.08008
4.91365
4.74684
4.58009
4.4138
4.24833
4.08403
3.92122
3.76019
3.6012
3.44451
3.29033
3.13886
2.99028
2.84476
2.70244
2.56345
2.4279
2.29587
2.16746
2.04272
1.92171
1.80446
1.69101
1.58137
1.47556
1.37356
1.27537
1.18098
1.09034
1.00343
0.920218
0.840646
0.764668
0.692228
0.623266
0.557719
0.495518
0.436594
0.380874
0.328283
0.278742
0.232174
0.188499
0.147634
0.109499
0.07401
0.0410852
0.0106415
-0.0174038
-0.0431329
-0.0666279
-0.0879699
-0.107239
-0.124516
-0.139878
-0.153403
-0.165167
-0.175245
-0.18371
-0.190635
-0.196091
-0.200146
-0.202868
-0.204324
-0.204578
-0.203693
-0.201731
-0.198751
-0.194813
-0.189974
-0.184288
-0.177811
-0.170595
-0.162693
-0.154154
-0.145027
-0.135362
-0.125205
-0.114601
-0.103598
-0.0922376
-0.0805651
-0.0686231
-0.056454
-0.0440999
-0.0316022
-0.0190022
-0.00634086
)
;
    }
    frontAndBack
    {
        type            empty;
    }
}


// ************************************************************************* //
