/*--------------------------------*- C++ -*----------------------------------*\
| =========                 |                                                 |
| \\      /  F ield         | OpenFOAM: The Open Source CFD Toolbox           |
|  \\    /   O peration     | Version:  2312                                  |
|   \\  /    A nd           | Website:  www.openfoam.com                      |
|    \\/     M anipulation  |                                                 |
\*---------------------------------------------------------------------------*/
FoamFile
{
    version     2.0;
    format      ascii;
    arch        "LSB;label=32;scalar=64";
    class       volScalarField;
    location    "1.85";
    object      wave;
}
// * * * * * * * * * * * * * * * * * * * * * * * * * * * * * * * * * * * * * //

dimensions      [0 0 0 0 0 0 0];

internalField   nonuniform List<scalar> 
100
(
0.936411
0.869206
0.780163
0.671522
0.54601
0.406781
0.257333
0.101421
-0.0570399
-0.214068
-0.365717
-0.50818
-0.637875
-0.751546
-0.846336
-0.919864
-0.970284
-0.996328
-0.997341
-0.9733
-0.924806
-0.85308
-0.759922
-0.647674
-0.519154
-0.377592
-0.226545
-0.0698054
0.0886874
0.244952
0.395063
0.535249
0.661989
0.772098
0.86281
0.931846
0.977473
0.998543
0.994527
0.965527
0.91227
0.836096
0.738916
0.623174
0.491776
0.348023
0.195528
0.0381198
-0.120246
-0.27559
-0.424011
-0.56178
-0.685436
-0.791872
-0.878415
-0.94289
-0.983677
-0.999752
-0.990711
-0.956782
-0.898816
-0.818269
-0.717166
-0.598046
-0.463902
-0.318104
-0.164314
-0.0063958
0.151683
0.305951
0.452532
0.587745
0.708193
0.810849
0.893135
0.952984
0.988891
0.999955
0.985898
0.947073
0.884456
0.799619
0.694694
0.572316
0.435561
0.287864
0.132934
-0.0253347
-0.182967
-0.336003
-0.480598
-0.613119
-0.730237
-0.82901
-0.906956
-0.962118
-0.993109
-0.999151
-0.980092
-0.936411
)
;

boundaryField
{
    movingWall
    {
        type            calculated;
        value           uniform 0;
    }
    fixedWalls
    {
        type            calculated;
        value           uniform 0;
    }
    frontAndBack
    {
        type            empty;
    }
}


// ************************************************************************* //
