/*--------------------------------*- C++ -*----------------------------------*\
| =========                 |                                                 |
| \\      /  F ield         | OpenFOAM: The Open Source CFD Toolbox           |
|  \\    /   O peration     | Version:  2312                                  |
|   \\  /    A nd           | Website:  www.openfoam.com                      |
|    \\/     M anipulation  |                                                 |
\*---------------------------------------------------------------------------*/
FoamFile
{
    version     2.0;
    format      ascii;
    arch        "LSB;label=32;scalar=64";
    class       volVectorField;
    location    "0.223";
    object      U;
}
// * * * * * * * * * * * * * * * * * * * * * * * * * * * * * * * * * * * * * //

dimensions      [0 1 -1 0 0 0 0];

internalField   nonuniform List<vector> 
31205
(
(123.824 0 0)
(126.76 0 0)
(129.691 0 0)
(132.605 0 0)
(135.496 0 0)
(138.358 0 0)
(141.187 0 0)
(143.98 0 0)
(146.735 0 0)
(149.452 0 0)
(152.131 0 0)
(154.769 0 0)
(157.369 0 0)
(159.93 0 0)
(162.453 0 0)
(164.938 0 0)
(167.386 0 0)
(169.797 0 0)
(172.173 0 0)
(174.514 0 0)
(176.82 0 0)
(179.094 0 0)
(181.334 0 0)
(183.543 0 0)
(185.721 0 0)
(187.868 0 0)
(189.985 0 0)
(192.073 0 0)
(194.133 0 0)
(196.164 0 0)
(198.169 0 0)
(200.146 0 0)
(202.098 0 0)
(204.023 0 0)
(205.924 0 0)
(207.799 0 0)
(209.651 0 0)
(211.478 0 0)
(213.282 0 0)
(215.063 0 0)
(216.822 0 0)
(218.558 0 0)
(220.272 0 0)
(221.965 0 0)
(223.636 0 0)
(225.287 0 0)
(226.916 0 0)
(228.526 0 0)
(230.115 0 0)
(231.684 0 0)
(233.234 0 0)
(234.764 0 0)
(236.275 0 0)
(237.767 0 0)
(239.24 0 0)
(240.695 0 0)
(242.132 0 0)
(243.55 0 0)
(244.95 0 0)
(246.332 0 0)
(247.696 0 0)
(249.043 0 0)
(250.372 0 0)
(251.684 0 0)
(252.979 0 0)
(254.256 0 0)
(255.517 0 0)
(256.76 0 0)
(257.987 0 0)
(259.197 0 0)
(260.39 0 0)
(261.566 0 0)
(262.726 0 0)
(263.868 0 0)
(264.999 0 0)
(266.097 0 0)
(267.229 0 0)
(268.191 0 0)
(269.608 0 0)
(126.487 0 0)
(129.341 0 0)
(132.181 0 0)
(135 0 0)
(137.793 0 0)
(140.554 0 0)
(143.283 0 0)
(145.977 0 0)
(148.635 0 0)
(151.256 0 0)
(153.84 0 0)
(156.386 0 0)
(158.897 0 0)
(161.37 0 0)
(163.808 0 0)
(166.21 0 0)
(168.578 0 0)
(170.911 0 0)
(173.211 0 0)
(175.478 0 0)
(177.714 0 0)
(179.918 0 0)
(182.091 0 0)
(184.234 0 0)
(186.348 0 0)
(188.433 0 0)
(190.49 0 0)
(192.519 0 0)
(194.522 0 0)
(196.498 0 0)
(198.448 0 0)
(200.373 0 0)
(202.273 0 0)
(204.149 0 0)
(206 0 0)
(207.828 0 0)
(209.634 0 0)
(211.416 0 0)
(213.176 0 0)
(214.914 0 0)
(216.631 0 0)
(218.326 0 0)
(220.001 0 0)
(221.655 0 0)
(223.288 0 0)
(224.902 0 0)
(226.496 0 0)
(228.07 0 0)
(229.625 0 0)
(231.161 0 0)
(232.678 0 0)
(234.176 0 0)
(235.657 0 0)
(237.119 0 0)
(238.563 0 0)
(239.989 0 0)
(241.398 0 0)
(242.789 0 0)
(244.163 0 0)
(245.519 0 0)
(246.859 0 0)
(248.182 0 0)
(249.488 0 0)
(250.777 0 0)
(252.05 0 0)
(253.306 0 0)
(254.546 0 0)
(255.77 0 0)
(256.977 0 0)
(258.169 0 0)
(259.344 0 0)
(260.504 0 0)
(261.648 0 0)
(262.774 0 0)
(263.89 0 0)
(264.975 0 0)
(266.092 0 0)
(267.045 0 0)
(268.437 0 0)
(129.204 0 0)
(131.967 0 0)
(134.711 0 0)
(137.43 0 0)
(140.121 0 0)
(142.782 0 0)
(145.41 0 0)
(148.005 0 0)
(150.565 0 0)
(153.091 0 0)
(155.581 0 0)
(158.037 0 0)
(160.458 0 0)
(162.846 0 0)
(165.199 0 0)
(167.52 0 0)
(169.808 0 0)
(172.065 0 0)
(174.29 0 0)
(176.484 0 0)
(178.649 0 0)
(180.784 0 0)
(182.891 0 0)
(184.969 0 0)
(187.02 0 0)
(189.044 0 0)
(191.041 0 0)
(193.012 0 0)
(194.958 0 0)
(196.879 0 0)
(198.776 0 0)
(200.649 0 0)
(202.498 0 0)
(204.324 0 0)
(206.127 0 0)
(207.908 0 0)
(209.668 0 0)
(211.405 0 0)
(213.122 0 0)
(214.817 0 0)
(216.492 0 0)
(218.147 0 0)
(219.782 0 0)
(221.398 0 0)
(222.994 0 0)
(224.57 0 0)
(226.128 0 0)
(227.668 0 0)
(229.189 0 0)
(230.691 0 0)
(232.176 0 0)
(233.643 0 0)
(235.093 0 0)
(236.525 0 0)
(237.939 0 0)
(239.337 0 0)
(240.718 0 0)
(242.082 0 0)
(243.43 0 0)
(244.761 0 0)
(246.075 0 0)
(247.374 0 0)
(248.656 0 0)
(249.923 0 0)
(251.174 0 0)
(252.408 0 0)
(253.628 0 0)
(254.831 0 0)
(256.019 0 0)
(257.192 0 0)
(258.35 0 0)
(259.492 0 0)
(260.619 0 0)
(261.729 0 0)
(262.83 0 0)
(263.9 0 0)
(265.002 0 0)
(265.946 0 0)
(267.313 0 0)
(131.889 0 0)
(134.557 0 0)
(137.204 0 0)
(139.824 0 0)
(142.416 0 0)
(144.978 0 0)
(147.509 0 0)
(150.007 0 0)
(152.473 0 0)
(154.906 0 0)
(157.307 0 0)
(159.675 0 0)
(162.011 0 0)
(164.315 0 0)
(166.587 0 0)
(168.829 0 0)
(171.041 0 0)
(173.223 0 0)
(175.375 0 0)
(177.5 0 0)
(179.596 0 0)
(181.664 0 0)
(183.706 0 0)
(185.721 0 0)
(187.711 0 0)
(189.675 0 0)
(191.614 0 0)
(193.529 0 0)
(195.42 0 0)
(197.287 0 0)
(199.131 0 0)
(200.953 0 0)
(202.753 0 0)
(204.53 0 0)
(206.286 0 0)
(208.021 0 0)
(209.736 0 0)
(211.43 0 0)
(213.103 0 0)
(214.757 0 0)
(216.391 0 0)
(218.007 0 0)
(219.603 0 0)
(221.18 0 0)
(222.739 0 0)
(224.28 0 0)
(225.803 0 0)
(227.307 0 0)
(228.795 0 0)
(230.265 0 0)
(231.717 0 0)
(233.153 0 0)
(234.572 0 0)
(235.974 0 0)
(237.36 0 0)
(238.73 0 0)
(240.083 0 0)
(241.42 0 0)
(242.741 0 0)
(244.047 0 0)
(245.337 0 0)
(246.611 0 0)
(247.87 0 0)
(249.113 0 0)
(250.342 0 0)
(251.555 0 0)
(252.753 0 0)
(253.936 0 0)
(255.105 0 0)
(256.258 0 0)
(257.397 0 0)
(258.522 0 0)
(259.632 0 0)
(260.726 0 0)
(261.81 0 0)
(262.865 0 0)
(263.951 0 0)
(264.884 0 0)
(266.23 0 0)
(134.499 0 0)
(137.073 0 0)
(139.624 0 0)
(142.148 0 0)
(144.644 0 0)
(147.11 0 0)
(149.547 0 0)
(151.953 0 0)
(154.329 0 0)
(156.674 0 0)
(158.988 0 0)
(161.272 0 0)
(163.526 0 0)
(165.75 0 0)
(167.945 0 0)
(170.111 0 0)
(172.249 0 0)
(174.36 0 0)
(176.443 0 0)
(178.499 0 0)
(180.529 0 0)
(182.534 0 0)
(184.513 0 0)
(186.468 0 0)
(188.398 0 0)
(190.304 0 0)
(192.188 0 0)
(194.048 0 0)
(195.885 0 0)
(197.701 0 0)
(199.494 0 0)
(201.266 0 0)
(203.018 0 0)
(204.748 0 0)
(206.459 0 0)
(208.149 0 0)
(209.819 0 0)
(211.47 0 0)
(213.102 0 0)
(214.716 0 0)
(216.31 0 0)
(217.886 0 0)
(219.445 0 0)
(220.985 0 0)
(222.508 0 0)
(224.013 0 0)
(225.501 0 0)
(226.972 0 0)
(228.427 0 0)
(229.864 0 0)
(231.286 0 0)
(232.691 0 0)
(234.08 0 0)
(235.452 0 0)
(236.81 0 0)
(238.151 0 0)
(239.477 0 0)
(240.787 0 0)
(242.083 0 0)
(243.363 0 0)
(244.628 0 0)
(245.878 0 0)
(247.114 0 0)
(248.334 0 0)
(249.54 0 0)
(250.732 0 0)
(251.909 0 0)
(253.072 0 0)
(254.22 0 0)
(255.355 0 0)
(256.475 0 0)
(257.581 0 0)
(258.674 0 0)
(259.751 0 0)
(260.819 0 0)
(261.859 0 0)
(262.929 0 0)
(263.85 0 0)
(265.174 0 0)
(137.018 0 0)
(139.5 0 0)
(141.956 0 0)
(144.387 0 0)
(146.79 0 0)
(149.165 0 0)
(151.512 0 0)
(153.83 0 0)
(156.119 0 0)
(158.38 0 0)
(160.612 0 0)
(162.815 0 0)
(164.991 0 0)
(167.139 0 0)
(169.26 0 0)
(171.354 0 0)
(173.422 0 0)
(175.464 0 0)
(177.48 0 0)
(179.472 0 0)
(181.439 0 0)
(183.382 0 0)
(185.301 0 0)
(187.197 0 0)
(189.07 0 0)
(190.921 0 0)
(192.75 0 0)
(194.558 0 0)
(196.344 0 0)
(198.109 0 0)
(199.853 0 0)
(201.578 0 0)
(203.283 0 0)
(204.968 0 0)
(206.633 0 0)
(208.28 0 0)
(209.908 0 0)
(211.518 0 0)
(213.109 0 0)
(214.683 0 0)
(216.239 0 0)
(217.777 0 0)
(219.298 0 0)
(220.803 0 0)
(222.29 0 0)
(223.761 0 0)
(225.215 0 0)
(226.653 0 0)
(228.075 0 0)
(229.481 0 0)
(230.872 0 0)
(232.247 0 0)
(233.606 0 0)
(234.95 0 0)
(236.279 0 0)
(237.593 0 0)
(238.892 0 0)
(240.176 0 0)
(241.446 0 0)
(242.701 0 0)
(243.942 0 0)
(245.168 0 0)
(246.38 0 0)
(247.578 0 0)
(248.762 0 0)
(249.932 0 0)
(251.088 0 0)
(252.231 0 0)
(253.359 0 0)
(254.475 0 0)
(255.576 0 0)
(256.664 0 0)
(257.739 0 0)
(258.799 0 0)
(259.85 0 0)
(260.874 0 0)
(261.928 0 0)
(262.837 0 0)
(264.14 0 0)
(139.441 0 0)
(141.831 0 0)
(144.197 0 0)
(146.538 0 0)
(148.852 0 0)
(151.14 0 0)
(153.401 0 0)
(155.635 0 0)
(157.842 0 0)
(160.022 0 0)
(162.175 0 0)
(164.302 0 0)
(166.403 0 0)
(168.479 0 0)
(170.529 0 0)
(172.554 0 0)
(174.554 0 0)
(176.531 0 0)
(178.483 0 0)
(180.413 0 0)
(182.319 0 0)
(184.203 0 0)
(186.065 0 0)
(187.905 0 0)
(189.723 0 0)
(191.521 0 0)
(193.297 0 0)
(195.054 0 0)
(196.79 0 0)
(198.507 0 0)
(200.204 0 0)
(201.883 0 0)
(203.542 0 0)
(205.183 0 0)
(206.806 0 0)
(208.41 0 0)
(209.997 0 0)
(211.567 0 0)
(213.119 0 0)
(214.654 0 0)
(216.172 0 0)
(217.674 0 0)
(219.159 0 0)
(220.628 0 0)
(222.081 0 0)
(223.518 0 0)
(224.94 0 0)
(226.346 0 0)
(227.736 0 0)
(229.112 0 0)
(230.472 0 0)
(231.817 0 0)
(233.148 0 0)
(234.463 0 0)
(235.765 0 0)
(237.052 0 0)
(238.324 0 0)
(239.583 0 0)
(240.827 0 0)
(242.057 0 0)
(243.274 0 0)
(244.477 0 0)
(245.666 0 0)
(246.841 0 0)
(248.003 0 0)
(249.152 0 0)
(250.287 0 0)
(251.41 0 0)
(252.518 0 0)
(253.614 0 0)
(254.697 0 0)
(255.767 0 0)
(256.824 0 0)
(257.867 0 0)
(258.901 0 0)
(259.91 0 0)
(260.947 0 0)
(261.842 0 0)
(263.125 0 0)
(141.768 0 0)
(144.07 0 0)
(146.349 0 0)
(148.602 0 0)
(150.832 0 0)
(153.036 0 0)
(155.215 0 0)
(157.368 0 0)
(159.497 0 0)
(161.6 0 0)
(163.679 0 0)
(165.733 0 0)
(167.763 0 0)
(169.768 0 0)
(171.751 0 0)
(173.71 0 0)
(175.646 0 0)
(177.56 0 0)
(179.451 0 0)
(181.321 0 0)
(183.169 0 0)
(184.996 0 0)
(186.803 0 0)
(188.589 0 0)
(190.355 0 0)
(192.101 0 0)
(193.827 0 0)
(195.535 0 0)
(197.223 0 0)
(198.893 0 0)
(200.545 0 0)
(202.179 0 0)
(203.794 0 0)
(205.393 0 0)
(206.974 0 0)
(208.538 0 0)
(210.085 0 0)
(211.615 0 0)
(213.129 0 0)
(214.627 0 0)
(216.109 0 0)
(217.575 0 0)
(219.025 0 0)
(220.46 0 0)
(221.879 0 0)
(223.284 0 0)
(224.673 0 0)
(226.048 0 0)
(227.407 0 0)
(228.752 0 0)
(230.083 0 0)
(231.4 0 0)
(232.702 0 0)
(233.99 0 0)
(235.264 0 0)
(236.525 0 0)
(237.771 0 0)
(239.004 0 0)
(240.224 0 0)
(241.43 0 0)
(242.623 0 0)
(243.802 0 0)
(244.969 0 0)
(246.122 0 0)
(247.263 0 0)
(248.39 0 0)
(249.505 0 0)
(250.607 0 0)
(251.696 0 0)
(252.772 0 0)
(253.837 0 0)
(254.888 0 0)
(255.928 0 0)
(256.953 0 0)
(257.971 0 0)
(258.963 0 0)
(259.984 0 0)
(260.866 0 0)
(262.127 0 0)
(144.002 0 0)
(146.219 0 0)
(148.413 0 0)
(150.584 0 0)
(152.732 0 0)
(154.856 0 0)
(156.956 0 0)
(159.033 0 0)
(161.087 0 0)
(163.117 0 0)
(165.124 0 0)
(167.109 0 0)
(169.07 0 0)
(171.01 0 0)
(172.928 0 0)
(174.824 0 0)
(176.698 0 0)
(178.552 0 0)
(180.385 0 0)
(182.197 0 0)
(183.99 0 0)
(185.762 0 0)
(187.516 0 0)
(189.25 0 0)
(190.965 0 0)
(192.662 0 0)
(194.34 0 0)
(196 0 0)
(197.643 0 0)
(199.267 0 0)
(200.875 0 0)
(202.466 0 0)
(204.039 0 0)
(205.596 0 0)
(207.137 0 0)
(208.661 0 0)
(210.17 0 0)
(211.663 0 0)
(213.14 0 0)
(214.601 0 0)
(216.048 0 0)
(217.479 0 0)
(218.895 0 0)
(220.297 0 0)
(221.684 0 0)
(223.056 0 0)
(224.414 0 0)
(225.758 0 0)
(227.088 0 0)
(228.403 0 0)
(229.705 0 0)
(230.993 0 0)
(232.268 0 0)
(233.529 0 0)
(234.777 0 0)
(236.011 0 0)
(237.233 0 0)
(238.441 0 0)
(239.636 0 0)
(240.818 0 0)
(241.988 0 0)
(243.144 0 0)
(244.288 0 0)
(245.42 0 0)
(246.539 0 0)
(247.645 0 0)
(248.74 0 0)
(249.822 0 0)
(250.891 0 0)
(251.949 0 0)
(252.994 0 0)
(254.028 0 0)
(255.05 0 0)
(256.058 0 0)
(257.059 0 0)
(258.035 0 0)
(259.04 0 0)
(259.908 0 0)
(261.148 0 0)
(146.147 0 0)
(148.281 0 0)
(150.395 0 0)
(152.486 0 0)
(154.556 0 0)
(156.604 0 0)
(158.63 0 0)
(160.633 0 0)
(162.615 0 0)
(164.576 0 0)
(166.515 0 0)
(168.432 0 0)
(170.329 0 0)
(172.205 0 0)
(174.061 0 0)
(175.897 0 0)
(177.712 0 0)
(179.508 0 0)
(181.285 0 0)
(183.043 0 0)
(184.782 0 0)
(186.502 0 0)
(188.204 0 0)
(189.888 0 0)
(191.555 0 0)
(193.204 0 0)
(194.835 0 0)
(196.45 0 0)
(198.048 0 0)
(199.629 0 0)
(201.194 0 0)
(202.743 0 0)
(204.276 0 0)
(205.793 0 0)
(207.295 0 0)
(208.781 0 0)
(210.252 0 0)
(211.708 0 0)
(213.15 0 0)
(214.576 0 0)
(215.988 0 0)
(217.386 0 0)
(218.769 0 0)
(220.138 0 0)
(221.493 0 0)
(222.835 0 0)
(224.162 0 0)
(225.476 0 0)
(226.777 0 0)
(228.064 0 0)
(229.338 0 0)
(230.598 0 0)
(231.846 0 0)
(233.08 0 0)
(234.302 0 0)
(235.511 0 0)
(236.708 0 0)
(237.891 0 0)
(239.063 0 0)
(240.221 0 0)
(241.368 0 0)
(242.502 0 0)
(243.624 0 0)
(244.734 0 0)
(245.832 0 0)
(246.918 0 0)
(247.992 0 0)
(249.054 0 0)
(250.104 0 0)
(251.143 0 0)
(252.17 0 0)
(253.186 0 0)
(254.19 0 0)
(255.181 0 0)
(256.165 0 0)
(257.125 0 0)
(258.113 0 0)
(258.969 0 0)
(260.186 0 0)
(148.205 0 0)
(150.261 0 0)
(152.297 0 0)
(154.313 0 0)
(156.308 0 0)
(158.283 0 0)
(160.237 0 0)
(162.171 0 0)
(164.085 0 0)
(165.979 0 0)
(167.852 0 0)
(169.707 0 0)
(171.541 0 0)
(173.357 0 0)
(175.153 0 0)
(176.931 0 0)
(178.69 0 0)
(180.431 0 0)
(182.154 0 0)
(183.859 0 0)
(185.546 0 0)
(187.216 0 0)
(188.869 0 0)
(190.505 0 0)
(192.125 0 0)
(193.728 0 0)
(195.315 0 0)
(196.886 0 0)
(198.441 0 0)
(199.98 0 0)
(201.504 0 0)
(203.012 0 0)
(204.506 0 0)
(205.985 0 0)
(207.448 0 0)
(208.898 0 0)
(210.333 0 0)
(211.753 0 0)
(213.159 0 0)
(214.552 0 0)
(215.93 0 0)
(217.295 0 0)
(218.646 0 0)
(219.984 0 0)
(221.308 0 0)
(222.619 0 0)
(223.917 0 0)
(225.202 0 0)
(226.474 0 0)
(227.733 0 0)
(228.98 0 0)
(230.214 0 0)
(231.435 0 0)
(232.644 0 0)
(233.84 0 0)
(235.024 0 0)
(236.196 0 0)
(237.356 0 0)
(238.504 0 0)
(239.64 0 0)
(240.763 0 0)
(241.876 0 0)
(242.976 0 0)
(244.065 0 0)
(245.142 0 0)
(246.207 0 0)
(247.261 0 0)
(248.304 0 0)
(249.335 0 0)
(250.355 0 0)
(251.364 0 0)
(252.361 0 0)
(253.348 0 0)
(254.322 0 0)
(255.29 0 0)
(256.234 0 0)
(257.205 0 0)
(258.047 0 0)
(259.243 0 0)
(150.181 0 0)
(152.162 0 0)
(154.124 0 0)
(156.067 0 0)
(157.991 0 0)
(159.896 0 0)
(161.783 0 0)
(163.65 0 0)
(165.498 0 0)
(167.328 0 0)
(169.14 0 0)
(170.933 0 0)
(172.708 0 0)
(174.466 0 0)
(176.205 0 0)
(177.928 0 0)
(179.633 0 0)
(181.321 0 0)
(182.992 0 0)
(184.646 0 0)
(186.284 0 0)
(187.906 0 0)
(189.512 0 0)
(191.102 0 0)
(192.676 0 0)
(194.235 0 0)
(195.778 0 0)
(197.307 0 0)
(198.82 0 0)
(200.319 0 0)
(201.803 0 0)
(203.273 0 0)
(204.729 0 0)
(206.17 0 0)
(207.597 0 0)
(209.011 0 0)
(210.41 0 0)
(211.796 0 0)
(213.169 0 0)
(214.528 0 0)
(215.874 0 0)
(217.207 0 0)
(218.527 0 0)
(219.835 0 0)
(221.129 0 0)
(222.411 0 0)
(223.68 0 0)
(224.936 0 0)
(226.18 0 0)
(227.412 0 0)
(228.632 0 0)
(229.839 0 0)
(231.035 0 0)
(232.218 0 0)
(233.39 0 0)
(234.55 0 0)
(235.698 0 0)
(236.834 0 0)
(237.959 0 0)
(239.072 0 0)
(240.174 0 0)
(241.264 0 0)
(242.343 0 0)
(243.411 0 0)
(244.468 0 0)
(245.513 0 0)
(246.548 0 0)
(247.571 0 0)
(248.583 0 0)
(249.585 0 0)
(250.575 0 0)
(251.555 0 0)
(252.524 0 0)
(253.482 0 0)
(254.432 0 0)
(255.36 0 0)
(256.315 0 0)
(257.144 0 0)
(258.318 0 0)
(152.078 0 0)
(153.987 0 0)
(155.878 0 0)
(157.752 0 0)
(159.609 0 0)
(161.447 0 0)
(163.268 0 0)
(165.072 0 0)
(166.858 0 0)
(168.627 0 0)
(170.379 0 0)
(172.114 0 0)
(173.833 0 0)
(175.535 0 0)
(177.22 0 0)
(178.889 0 0)
(180.542 0 0)
(182.179 0 0)
(183.8 0 0)
(185.406 0 0)
(186.997 0 0)
(188.572 0 0)
(190.133 0 0)
(191.678 0 0)
(193.209 0 0)
(194.725 0 0)
(196.227 0 0)
(197.715 0 0)
(199.188 0 0)
(200.648 0 0)
(202.094 0 0)
(203.526 0 0)
(204.944 0 0)
(206.349 0 0)
(207.741 0 0)
(209.12 0 0)
(210.486 0 0)
(211.839 0 0)
(213.179 0 0)
(214.506 0 0)
(215.82 0 0)
(217.122 0 0)
(218.412 0 0)
(219.69 0 0)
(220.955 0 0)
(222.208 0 0)
(223.449 0 0)
(224.678 0 0)
(225.895 0 0)
(227.1 0 0)
(228.294 0 0)
(229.475 0 0)
(230.646 0 0)
(231.805 0 0)
(232.952 0 0)
(234.088 0 0)
(235.212 0 0)
(236.326 0 0)
(237.428 0 0)
(238.519 0 0)
(239.599 0 0)
(240.668 0 0)
(241.726 0 0)
(242.774 0 0)
(243.81 0 0)
(244.836 0 0)
(245.851 0 0)
(246.855 0 0)
(247.849 0 0)
(248.832 0 0)
(249.804 0 0)
(250.767 0 0)
(251.719 0 0)
(252.659 0 0)
(253.593 0 0)
(254.505 0 0)
(255.443 0 0)
(256.259 0 0)
(257.411 0 0)
(153.9 0 0)
(155.74 0 0)
(157.564 0 0)
(159.372 0 0)
(161.163 0 0)
(162.938 0 0)
(164.697 0 0)
(166.44 0 0)
(168.167 0 0)
(169.878 0 0)
(171.573 0 0)
(173.252 0 0)
(174.916 0 0)
(176.565 0 0)
(178.198 0 0)
(179.816 0 0)
(181.419 0 0)
(183.008 0 0)
(184.581 0 0)
(186.141 0 0)
(187.685 0 0)
(189.216 0 0)
(190.733 0 0)
(192.235 0 0)
(193.724 0 0)
(195.199 0 0)
(196.661 0 0)
(198.109 0 0)
(199.544 0 0)
(200.966 0 0)
(202.375 0 0)
(203.77 0 0)
(205.153 0 0)
(206.524 0 0)
(207.881 0 0)
(209.226 0 0)
(210.559 0 0)
(211.88 0 0)
(213.188 0 0)
(214.484 0 0)
(215.768 0 0)
(217.04 0 0)
(218.3 0 0)
(219.549 0 0)
(220.786 0 0)
(222.011 0 0)
(223.224 0 0)
(224.426 0 0)
(225.617 0 0)
(226.796 0 0)
(227.965 0 0)
(229.121 0 0)
(230.267 0 0)
(231.402 0 0)
(232.525 0 0)
(233.638 0 0)
(234.74 0 0)
(235.831 0 0)
(236.911 0 0)
(237.98 0 0)
(239.039 0 0)
(240.087 0 0)
(241.125 0 0)
(242.152 0 0)
(243.168 0 0)
(244.175 0 0)
(245.17 0 0)
(246.156 0 0)
(247.131 0 0)
(248.096 0 0)
(249.051 0 0)
(249.996 0 0)
(250.931 0 0)
(251.854 0 0)
(252.772 0 0)
(253.668 0 0)
(254.59 0 0)
(255.392 0 0)
(256.522 0 0)
(155.65 0 0)
(157.424 0 0)
(159.184 0 0)
(160.928 0 0)
(162.658 0 0)
(164.372 0 0)
(166.072 0 0)
(167.757 0 0)
(169.427 0 0)
(171.082 0 0)
(172.723 0 0)
(174.349 0 0)
(175.96 0 0)
(177.558 0 0)
(179.141 0 0)
(180.71 0 0)
(182.266 0 0)
(183.807 0 0)
(185.335 0 0)
(186.85 0 0)
(188.351 0 0)
(189.838 0 0)
(191.313 0 0)
(192.774 0 0)
(194.223 0 0)
(195.658 0 0)
(197.081 0 0)
(198.491 0 0)
(199.889 0 0)
(201.274 0 0)
(202.647 0 0)
(204.008 0 0)
(205.356 0 0)
(206.693 0 0)
(208.017 0 0)
(209.33 0 0)
(210.63 0 0)
(211.92 0 0)
(213.197 0 0)
(214.463 0 0)
(215.717 0 0)
(216.96 0 0)
(218.192 0 0)
(219.412 0 0)
(220.621 0 0)
(221.819 0 0)
(223.006 0 0)
(224.182 0 0)
(225.347 0 0)
(226.501 0 0)
(227.645 0 0)
(228.777 0 0)
(229.899 0 0)
(231.01 0 0)
(232.11 0 0)
(233.2 0 0)
(234.28 0 0)
(235.349 0 0)
(236.407 0 0)
(237.455 0 0)
(238.493 0 0)
(239.521 0 0)
(240.538 0 0)
(241.545 0 0)
(242.542 0 0)
(243.529 0 0)
(244.506 0 0)
(245.473 0 0)
(246.43 0 0)
(247.378 0 0)
(248.315 0 0)
(249.242 0 0)
(250.16 0 0)
(251.067 0 0)
(251.969 0 0)
(252.849 0 0)
(253.754 0 0)
(254.543 0 0)
(255.652 0 0)
(157.331 0 0)
(159.043 0 0)
(160.741 0 0)
(162.425 0 0)
(164.095 0 0)
(165.752 0 0)
(167.395 0 0)
(169.024 0 0)
(170.64 0 0)
(172.242 0 0)
(173.83 0 0)
(175.405 0 0)
(176.967 0 0)
(178.516 0 0)
(180.051 0 0)
(181.573 0 0)
(183.083 0 0)
(184.58 0 0)
(186.063 0 0)
(187.535 0 0)
(188.993 0 0)
(190.44 0 0)
(191.874 0 0)
(193.295 0 0)
(194.705 0 0)
(196.102 0 0)
(197.488 0 0)
(198.861 0 0)
(200.223 0 0)
(201.573 0 0)
(202.911 0 0)
(204.238 0 0)
(205.553 0 0)
(206.856 0 0)
(208.149 0 0)
(209.43 0 0)
(210.7 0 0)
(211.958 0 0)
(213.206 0 0)
(214.443 0 0)
(215.668 0 0)
(216.883 0 0)
(218.087 0 0)
(219.28 0 0)
(220.462 0 0)
(221.634 0 0)
(222.795 0 0)
(223.945 0 0)
(225.085 0 0)
(226.215 0 0)
(227.334 0 0)
(228.442 0 0)
(229.541 0 0)
(230.629 0 0)
(231.707 0 0)
(232.774 0 0)
(233.832 0 0)
(234.879 0 0)
(235.916 0 0)
(236.944 0 0)
(237.961 0 0)
(238.969 0 0)
(239.966 0 0)
(240.954 0 0)
(241.932 0 0)
(242.9 0 0)
(243.858 0 0)
(244.807 0 0)
(245.746 0 0)
(246.676 0 0)
(247.596 0 0)
(248.506 0 0)
(249.407 0 0)
(250.298 0 0)
(251.183 0 0)
(252.048 0 0)
(252.937 0 0)
(253.712 0 0)
(254.8 0 0)
(158.946 0 0)
(160.599 0 0)
(162.238 0 0)
(163.864 0 0)
(165.478 0 0)
(167.08 0 0)
(168.668 0 0)
(170.244 0 0)
(171.808 0 0)
(173.359 0 0)
(174.898 0 0)
(176.424 0 0)
(177.938 0 0)
(179.439 0 0)
(180.929 0 0)
(182.406 0 0)
(183.872 0 0)
(185.325 0 0)
(186.767 0 0)
(188.196 0 0)
(189.615 0 0)
(191.021 0 0)
(192.416 0 0)
(193.799 0 0)
(195.171 0 0)
(196.532 0 0)
(197.881 0 0)
(199.219 0 0)
(200.546 0 0)
(201.862 0 0)
(203.167 0 0)
(204.46 0 0)
(205.743 0 0)
(207.015 0 0)
(208.277 0 0)
(209.527 0 0)
(210.767 0 0)
(211.996 0 0)
(213.215 0 0)
(214.423 0 0)
(215.621 0 0)
(216.808 0 0)
(217.985 0 0)
(219.151 0 0)
(220.308 0 0)
(221.454 0 0)
(222.589 0 0)
(223.715 0 0)
(224.831 0 0)
(225.936 0 0)
(227.031 0 0)
(228.117 0 0)
(229.192 0 0)
(230.258 0 0)
(231.314 0 0)
(232.36 0 0)
(233.396 0 0)
(234.422 0 0)
(235.439 0 0)
(236.446 0 0)
(237.443 0 0)
(238.431 0 0)
(239.409 0 0)
(240.377 0 0)
(241.336 0 0)
(242.286 0 0)
(243.226 0 0)
(244.157 0 0)
(245.078 0 0)
(245.991 0 0)
(246.893 0 0)
(247.787 0 0)
(248.672 0 0)
(249.546 0 0)
(250.415 0 0)
(251.264 0 0)
(252.137 0 0)
(252.899 0 0)
(253.965 0 0)
(160.499 0 0)
(162.094 0 0)
(163.677 0 0)
(165.249 0 0)
(166.809 0 0)
(168.357 0 0)
(169.894 0 0)
(171.42 0 0)
(172.933 0 0)
(174.436 0 0)
(175.926 0 0)
(177.406 0 0)
(178.874 0 0)
(180.33 0 0)
(181.776 0 0)
(183.21 0 0)
(184.633 0 0)
(186.045 0 0)
(187.446 0 0)
(188.836 0 0)
(190.215 0 0)
(191.583 0 0)
(192.94 0 0)
(194.287 0 0)
(195.622 0 0)
(196.947 0 0)
(198.262 0 0)
(199.566 0 0)
(200.859 0 0)
(202.142 0 0)
(203.414 0 0)
(204.676 0 0)
(205.928 0 0)
(207.17 0 0)
(208.401 0 0)
(209.622 0 0)
(210.832 0 0)
(212.033 0 0)
(213.224 0 0)
(214.404 0 0)
(215.575 0 0)
(216.735 0 0)
(217.886 0 0)
(219.027 0 0)
(220.158 0 0)
(221.279 0 0)
(222.39 0 0)
(223.491 0 0)
(224.583 0 0)
(225.665 0 0)
(226.738 0 0)
(227.8 0 0)
(228.854 0 0)
(229.897 0 0)
(230.931 0 0)
(231.956 0 0)
(232.971 0 0)
(233.977 0 0)
(234.973 0 0)
(235.96 0 0)
(236.938 0 0)
(237.906 0 0)
(238.865 0 0)
(239.815 0 0)
(240.756 0 0)
(241.687 0 0)
(242.609 0 0)
(243.523 0 0)
(244.427 0 0)
(245.322 0 0)
(246.208 0 0)
(247.085 0 0)
(247.953 0 0)
(248.812 0 0)
(249.664 0 0)
(250.498 0 0)
(251.355 0 0)
(252.105 0 0)
(253.149 0 0)
(161.992 0 0)
(163.533 0 0)
(165.062 0 0)
(166.581 0 0)
(168.09 0 0)
(169.588 0 0)
(171.075 0 0)
(172.552 0 0)
(174.018 0 0)
(175.473 0 0)
(176.918 0 0)
(178.353 0 0)
(179.777 0 0)
(181.19 0 0)
(182.593 0 0)
(183.986 0 0)
(185.368 0 0)
(186.74 0 0)
(188.102 0 0)
(189.454 0 0)
(190.795 0 0)
(192.126 0 0)
(193.447 0 0)
(194.758 0 0)
(196.059 0 0)
(197.35 0 0)
(198.631 0 0)
(199.901 0 0)
(201.162 0 0)
(202.413 0 0)
(203.654 0 0)
(204.886 0 0)
(206.107 0 0)
(207.319 0 0)
(208.521 0 0)
(209.713 0 0)
(210.896 0 0)
(212.069 0 0)
(213.232 0 0)
(214.386 0 0)
(215.53 0 0)
(216.665 0 0)
(217.79 0 0)
(218.906 0 0)
(220.012 0 0)
(221.109 0 0)
(222.196 0 0)
(223.274 0 0)
(224.343 0 0)
(225.402 0 0)
(226.452 0 0)
(227.493 0 0)
(228.524 0 0)
(229.547 0 0)
(230.56 0 0)
(231.564 0 0)
(232.558 0 0)
(233.544 0 0)
(234.52 0 0)
(235.488 0 0)
(236.446 0 0)
(237.395 0 0)
(238.336 0 0)
(239.267 0 0)
(240.19 0 0)
(241.103 0 0)
(242.008 0 0)
(242.904 0 0)
(243.791 0 0)
(244.669 0 0)
(245.538 0 0)
(246.399 0 0)
(247.251 0 0)
(248.094 0 0)
(248.931 0 0)
(249.749 0 0)
(250.59 0 0)
(251.327 0 0)
(252.351 0 0)
(163.428 0 0)
(164.917 0 0)
(166.395 0 0)
(167.864 0 0)
(169.323 0 0)
(170.772 0 0)
(172.212 0 0)
(173.642 0 0)
(175.063 0 0)
(176.473 0 0)
(177.874 0 0)
(179.266 0 0)
(180.648 0 0)
(182.02 0 0)
(183.382 0 0)
(184.735 0 0)
(186.078 0 0)
(187.412 0 0)
(188.736 0 0)
(190.051 0 0)
(191.356 0 0)
(192.652 0 0)
(193.938 0 0)
(195.214 0 0)
(196.481 0 0)
(197.739 0 0)
(198.987 0 0)
(200.226 0 0)
(201.456 0 0)
(202.676 0 0)
(203.887 0 0)
(205.089 0 0)
(206.281 0 0)
(207.464 0 0)
(208.638 0 0)
(209.802 0 0)
(210.958 0 0)
(212.104 0 0)
(213.241 0 0)
(214.369 0 0)
(215.487 0 0)
(216.597 0 0)
(217.697 0 0)
(218.789 0 0)
(219.871 0 0)
(220.944 0 0)
(222.008 0 0)
(223.063 0 0)
(224.109 0 0)
(225.146 0 0)
(226.175 0 0)
(227.194 0 0)
(228.204 0 0)
(229.206 0 0)
(230.198 0 0)
(231.182 0 0)
(232.156 0 0)
(233.122 0 0)
(234.079 0 0)
(235.028 0 0)
(235.967 0 0)
(236.898 0 0)
(237.82 0 0)
(238.733 0 0)
(239.638 0 0)
(240.534 0 0)
(241.421 0 0)
(242.3 0 0)
(243.17 0 0)
(244.032 0 0)
(244.885 0 0)
(245.73 0 0)
(246.566 0 0)
(247.393 0 0)
(248.214 0 0)
(249.018 0 0)
(249.843 0 0)
(250.567 0 0)
(251.57 0 0)
(164.81 0 0)
(166.248 0 0)
(167.678 0 0)
(169.098 0 0)
(170.51 0 0)
(171.913 0 0)
(173.308 0 0)
(174.693 0 0)
(176.07 0 0)
(177.438 0 0)
(178.797 0 0)
(180.147 0 0)
(181.488 0 0)
(182.821 0 0)
(184.144 0 0)
(185.459 0 0)
(186.764 0 0)
(188.061 0 0)
(189.349 0 0)
(190.628 0 0)
(191.898 0 0)
(193.16 0 0)
(194.412 0 0)
(195.656 0 0)
(196.89 0 0)
(198.116 0 0)
(199.333 0 0)
(200.541 0 0)
(201.74 0 0)
(202.931 0 0)
(204.113 0 0)
(205.285 0 0)
(206.449 0 0)
(207.605 0 0)
(208.751 0 0)
(209.889 0 0)
(211.018 0 0)
(212.138 0 0)
(213.249 0 0)
(214.352 0 0)
(215.446 0 0)
(216.531 0 0)
(217.607 0 0)
(218.675 0 0)
(219.734 0 0)
(220.784 0 0)
(221.825 0 0)
(222.858 0 0)
(223.883 0 0)
(224.898 0 0)
(225.905 0 0)
(226.903 0 0)
(227.893 0 0)
(228.874 0 0)
(229.846 0 0)
(230.81 0 0)
(231.765 0 0)
(232.712 0 0)
(233.65 0 0)
(234.58 0 0)
(235.501 0 0)
(236.413 0 0)
(237.318 0 0)
(238.213 0 0)
(239.1 0 0)
(239.979 0 0)
(240.85 0 0)
(241.712 0 0)
(242.565 0 0)
(243.411 0 0)
(244.248 0 0)
(245.076 0 0)
(245.897 0 0)
(246.708 0 0)
(247.515 0 0)
(248.304 0 0)
(249.113 0 0)
(249.825 0 0)
(250.807 0 0)
(166.139 0 0)
(167.53 0 0)
(168.912 0 0)
(170.287 0 0)
(171.654 0 0)
(173.013 0 0)
(174.364 0 0)
(175.706 0 0)
(177.041 0 0)
(178.368 0 0)
(179.687 0 0)
(180.997 0 0)
(182.3 0 0)
(183.594 0 0)
(184.88 0 0)
(186.157 0 0)
(187.427 0 0)
(188.688 0 0)
(189.941 0 0)
(191.186 0 0)
(192.423 0 0)
(193.651 0 0)
(194.871 0 0)
(196.083 0 0)
(197.286 0 0)
(198.481 0 0)
(199.668 0 0)
(200.846 0 0)
(202.016 0 0)
(203.178 0 0)
(204.331 0 0)
(205.476 0 0)
(206.613 0 0)
(207.741 0 0)
(208.861 0 0)
(209.973 0 0)
(211.076 0 0)
(212.171 0 0)
(213.257 0 0)
(214.336 0 0)
(215.405 0 0)
(216.467 0 0)
(217.52 0 0)
(218.564 0 0)
(219.601 0 0)
(220.629 0 0)
(221.648 0 0)
(222.659 0 0)
(223.662 0 0)
(224.657 0 0)
(225.643 0 0)
(226.621 0 0)
(227.59 0 0)
(228.551 0 0)
(229.504 0 0)
(230.449 0 0)
(231.385 0 0)
(232.313 0 0)
(233.232 0 0)
(234.144 0 0)
(235.047 0 0)
(235.942 0 0)
(236.828 0 0)
(237.706 0 0)
(238.577 0 0)
(239.438 0 0)
(240.292 0 0)
(241.138 0 0)
(241.975 0 0)
(242.804 0 0)
(243.626 0 0)
(244.439 0 0)
(245.244 0 0)
(246.04 0 0)
(246.832 0 0)
(247.606 0 0)
(248.4 0 0)
(249.099 0 0)
(250.061 0 0)
(167.419 0 0)
(168.764 0 0)
(170.101 0 0)
(171.432 0 0)
(172.756 0 0)
(174.072 0 0)
(175.381 0 0)
(176.683 0 0)
(177.978 0 0)
(179.265 0 0)
(180.545 0 0)
(181.818 0 0)
(183.083 0 0)
(184.34 0 0)
(185.59 0 0)
(186.832 0 0)
(188.067 0 0)
(189.294 0 0)
(190.514 0 0)
(191.726 0 0)
(192.93 0 0)
(194.126 0 0)
(195.315 0 0)
(196.496 0 0)
(197.669 0 0)
(198.834 0 0)
(199.992 0 0)
(201.141 0 0)
(202.283 0 0)
(203.417 0 0)
(204.543 0 0)
(205.661 0 0)
(206.771 0 0)
(207.874 0 0)
(208.968 0 0)
(210.054 0 0)
(211.133 0 0)
(212.203 0 0)
(213.265 0 0)
(214.32 0 0)
(215.366 0 0)
(216.405 0 0)
(217.435 0 0)
(218.457 0 0)
(219.472 0 0)
(220.478 0 0)
(221.476 0 0)
(222.466 0 0)
(223.448 0 0)
(224.422 0 0)
(225.388 0 0)
(226.346 0 0)
(227.296 0 0)
(228.238 0 0)
(229.172 0 0)
(230.097 0 0)
(231.015 0 0)
(231.924 0 0)
(232.826 0 0)
(233.719 0 0)
(234.605 0 0)
(235.482 0 0)
(236.351 0 0)
(237.213 0 0)
(238.066 0 0)
(238.912 0 0)
(239.749 0 0)
(240.578 0 0)
(241.4 0 0)
(242.213 0 0)
(243.019 0 0)
(243.817 0 0)
(244.607 0 0)
(245.388 0 0)
(246.165 0 0)
(246.924 0 0)
(247.704 0 0)
(248.391 0 0)
(249.332 0 0)
(168.65 0 0)
(169.952 0 0)
(171.247 0 0)
(172.535 0 0)
(173.817 0 0)
(175.093 0 0)
(176.363 0 0)
(177.625 0 0)
(178.881 0 0)
(180.131 0 0)
(181.374 0 0)
(182.61 0 0)
(183.839 0 0)
(185.061 0 0)
(186.276 0 0)
(187.484 0 0)
(188.686 0 0)
(189.88 0 0)
(191.067 0 0)
(192.247 0 0)
(193.42 0 0)
(194.586 0 0)
(195.744 0 0)
(196.896 0 0)
(198.039 0 0)
(199.176 0 0)
(200.305 0 0)
(201.427 0 0)
(202.542 0 0)
(203.649 0 0)
(204.748 0 0)
(205.84 0 0)
(206.925 0 0)
(208.002 0 0)
(209.071 0 0)
(210.133 0 0)
(211.188 0 0)
(212.234 0 0)
(213.273 0 0)
(214.305 0 0)
(215.329 0 0)
(216.345 0 0)
(217.353 0 0)
(218.354 0 0)
(219.346 0 0)
(220.332 0 0)
(221.309 0 0)
(222.279 0 0)
(223.241 0 0)
(224.195 0 0)
(225.141 0 0)
(226.079 0 0)
(227.01 0 0)
(227.933 0 0)
(228.848 0 0)
(229.755 0 0)
(230.655 0 0)
(231.546 0 0)
(232.43 0 0)
(233.306 0 0)
(234.174 0 0)
(235.035 0 0)
(235.887 0 0)
(236.732 0 0)
(237.569 0 0)
(238.398 0 0)
(239.22 0 0)
(240.033 0 0)
(240.839 0 0)
(241.637 0 0)
(242.428 0 0)
(243.21 0 0)
(243.985 0 0)
(244.752 0 0)
(245.514 0 0)
(246.259 0 0)
(247.024 0 0)
(247.699 0 0)
(248.62 0 0)
(169.836 0 0)
(171.096 0 0)
(172.35 0 0)
(173.598 0 0)
(174.841 0 0)
(176.078 0 0)
(177.309 0 0)
(178.534 0 0)
(179.753 0 0)
(180.966 0 0)
(182.173 0 0)
(183.374 0 0)
(184.569 0 0)
(185.757 0 0)
(186.939 0 0)
(188.114 0 0)
(189.284 0 0)
(190.446 0 0)
(191.602 0 0)
(192.752 0 0)
(193.894 0 0)
(195.031 0 0)
(196.16 0 0)
(197.282 0 0)
(198.398 0 0)
(199.507 0 0)
(200.609 0 0)
(201.704 0 0)
(202.792 0 0)
(203.873 0 0)
(204.947 0 0)
(206.014 0 0)
(207.074 0 0)
(208.126 0 0)
(209.172 0 0)
(210.21 0 0)
(211.241 0 0)
(212.265 0 0)
(213.281 0 0)
(214.29 0 0)
(215.292 0 0)
(216.286 0 0)
(217.273 0 0)
(218.253 0 0)
(219.225 0 0)
(220.19 0 0)
(221.147 0 0)
(222.097 0 0)
(223.039 0 0)
(223.973 0 0)
(224.901 0 0)
(225.82 0 0)
(226.732 0 0)
(227.637 0 0)
(228.534 0 0)
(229.423 0 0)
(230.305 0 0)
(231.179 0 0)
(232.045 0 0)
(232.904 0 0)
(233.756 0 0)
(234.599 0 0)
(235.435 0 0)
(236.264 0 0)
(237.085 0 0)
(237.898 0 0)
(238.704 0 0)
(239.502 0 0)
(240.292 0 0)
(241.075 0 0)
(241.851 0 0)
(242.619 0 0)
(243.379 0 0)
(244.131 0 0)
(244.879 0 0)
(245.61 0 0)
(246.36 0 0)
(247.023 0 0)
(247.924 0 0)
(170.979 0 0)
(172.199 0 0)
(173.413 0 0)
(174.623 0 0)
(175.828 0 0)
(177.027 0 0)
(178.221 0 0)
(179.41 0 0)
(180.594 0 0)
(181.772 0 0)
(182.945 0 0)
(184.112 0 0)
(185.274 0 0)
(186.429 0 0)
(187.579 0 0)
(188.723 0 0)
(189.861 0 0)
(190.993 0 0)
(192.12 0 0)
(193.239 0 0)
(194.353 0 0)
(195.461 0 0)
(196.562 0 0)
(197.657 0 0)
(198.746 0 0)
(199.828 0 0)
(200.903 0 0)
(201.972 0 0)
(203.035 0 0)
(204.091 0 0)
(205.14 0 0)
(206.183 0 0)
(207.218 0 0)
(208.247 0 0)
(209.269 0 0)
(210.285 0 0)
(211.293 0 0)
(212.294 0 0)
(213.289 0 0)
(214.276 0 0)
(215.257 0 0)
(216.23 0 0)
(217.196 0 0)
(218.155 0 0)
(219.107 0 0)
(220.052 0 0)
(220.989 0 0)
(221.92 0 0)
(222.843 0 0)
(223.759 0 0)
(224.667 0 0)
(225.568 0 0)
(226.462 0 0)
(227.349 0 0)
(228.228 0 0)
(229.1 0 0)
(229.964 0 0)
(230.821 0 0)
(231.671 0 0)
(232.513 0 0)
(233.348 0 0)
(234.175 0 0)
(234.995 0 0)
(235.808 0 0)
(236.613 0 0)
(237.411 0 0)
(238.201 0 0)
(238.984 0 0)
(239.76 0 0)
(240.528 0 0)
(241.288 0 0)
(242.042 0 0)
(242.788 0 0)
(243.526 0 0)
(244.259 0 0)
(244.977 0 0)
(245.712 0 0)
(246.363 0 0)
(247.245 0 0)
(172.08 0 0)
(173.261 0 0)
(174.438 0 0)
(175.611 0 0)
(176.779 0 0)
(177.943 0 0)
(179.102 0 0)
(180.256 0 0)
(181.406 0 0)
(182.551 0 0)
(183.69 0 0)
(184.825 0 0)
(185.955 0 0)
(187.079 0 0)
(188.198 0 0)
(189.312 0 0)
(190.42 0 0)
(191.523 0 0)
(192.62 0 0)
(193.711 0 0)
(194.797 0 0)
(195.877 0 0)
(196.951 0 0)
(198.02 0 0)
(199.082 0 0)
(200.138 0 0)
(201.188 0 0)
(202.232 0 0)
(203.27 0 0)
(204.302 0 0)
(205.327 0 0)
(206.346 0 0)
(207.358 0 0)
(208.365 0 0)
(209.364 0 0)
(210.357 0 0)
(211.344 0 0)
(212.323 0 0)
(213.296 0 0)
(214.263 0 0)
(215.222 0 0)
(216.175 0 0)
(217.121 0 0)