/*--------------------------------*- C++ -*----------------------------------*\
| =========                 |                                                 |
| \\      /  F ield         | OpenFOAM: The Open Source CFD Toolbox           |
|  \\    /   O peration     | Version:  2312                                  |
|   \\  /    A nd           | Website:  www.openfoam.com                      |
|    \\/     M anipulation  |                                                 |
\*---------------------------------------------------------------------------*/
FoamFile
{
    version     2.0;
    format      ascii;
    arch        "LSB;label=32;scalar=64";
    class       volVectorField;
    location    "2.5";
    object      flux;
}
// * * * * * * * * * * * * * * * * * * * * * * * * * * * * * * * * * * * * * //

dimensions      [0 1 -1 1 0 0 0];

internalField   nonuniform List<vector> 
100
(
(5.1931 0 0)
(4.82942 0 0)
(4.47903 0 0)
(4.14185 0 0)
(3.8178 0 0)
(3.50676 0 0)
(3.20859 0 0)
(2.92314 0 0)
(2.65021 0 0)
(2.38961 0 0)
(2.14113 0 0)
(1.90452 0 0)
(1.67956 0 0)
(1.46598 0 0)
(1.26351 0 0)
(1.07189 0 0)
(0.890833 0 0)
(0.720045 0 0)
(0.559236 0 0)
(0.408108 0 0)
(0.266359 0 0)
(0.133687 0 0)
(0.00978647 0 0)
(-0.105647 0 0)
(-0.212919 0 0)
(-0.312331 0 0)
(-0.404188 0 0)
(-0.488787 0 0)
(-0.566427 0 0)
(-0.637399 0 0)
(-0.701994 0 0)
(-0.760495 0 0)
(-0.813185 0 0)
(-0.860336 0 0)
(-0.90222 0 0)
(-0.939099 0 0)
(-0.971231 0 0)
(-0.998868 0 0)
(-1.02225 0 0)
(-1.04163 0 0)
(-1.05722 0 0)
(-1.06926 0 0)
(-1.07796 0 0)
(-1.08353 0 0)
(-1.08618 0 0)
(-1.0861 0 0)
(-1.08347 0 0)
(-1.0785 0 0)
(-1.07134 0 0)
(-1.06216 0 0)
(-1.05113 0 0)
(-1.0384 0 0)
(-1.02412 0 0)
(-1.00842 0 0)
(-0.991445 0 0)
(-0.973313 0 0)
(-0.954147 0 0)
(-0.93406 0 0)
(-0.913159 0 0)
(-0.891547 0 0)
(-0.869317 0 0)
(-0.84656 0 0)
(-0.823359 0 0)
(-0.799791 0 0)
(-0.77593 0 0)
(-0.751842 0 0)
(-0.72759 0 0)
(-0.703231 0 0)
(-0.678818 0 0)
(-0.654398 0 0)
(-0.630014 0 0)
(-0.605706 0 0)
(-0.581509 0 0)
(-0.557452 0 0)
(-0.533564 0 0)
(-0.509868 0 0)
(-0.486383 0 0)
(-0.463126 0 0)
(-0.44011 0 0)
(-0.417345 0 0)
(-0.394838 0 0)
(-0.372594 0 0)
(-0.350615 0 0)
(-0.328901 0 0)
(-0.307447 0 0)
(-0.28625 0 0)
(-0.265301 0 0)
(-0.244593 0 0)
(-0.224113 0 0)
(-0.203851 0 0)
(-0.183791 0 0)
(-0.163918 0 0)
(-0.144217 0 0)
(-0.124669 0 0)
(-0.105256 0 0)
(-0.0859584 0 0)
(-0.0667564 0 0)
(-0.0476293 0 0)
(-0.028556 0 0)
(-0.00951505 0 0)
)
;

boundaryField
{
    movingWall
    {
        type            calculated;
        value           uniform (5.37827 0 0);
    }
    fixedWalls
    {
        type            calculated;
        value           nonuniform List<vector> 
201
(
(5.1931 0 0)
(4.82942 0 0)
(4.47903 0 0)
(4.14185 0 0)
(3.8178 0 0)
(3.50676 0 0)
(3.20859 0 0)
(2.92314 0 0)
(2.65021 0 0)
(2.38961 0 0)
(2.14113 0 0)
(1.90452 0 0)
(1.67956 0 0)
(1.46598 0 0)
(1.26351 0 0)
(1.07189 0 0)
(0.890833 0 0)
(0.720045 0 0)
(0.559236 0 0)
(0.408108 0 0)
(0.266359 0 0)
(0.133687 0 0)
(0.00978647 0 0)
(-0.105647 0 0)
(-0.212919 0 0)
(-0.312331 0 0)
(-0.404188 0 0)
(-0.488787 0 0)
(-0.566427 0 0)
(-0.637399 0 0)
(-0.701994 0 0)
(-0.760495 0 0)
(-0.813185 0 0)
(-0.860336 0 0)
(-0.90222 0 0)
(-0.939099 0 0)
(-0.971231 0 0)
(-0.998868 0 0)
(-1.02225 0 0)
(-1.04163 0 0)
(-1.05722 0 0)
(-1.06926 0 0)
(-1.07796 0 0)
(-1.08353 0 0)
(-1.08618 0 0)
(-1.0861 0 0)
(-1.08347 0 0)
(-1.0785 0 0)
(-1.07134 0 0)
(-1.06216 0 0)
(-1.05113 0 0)
(-1.0384 0 0)
(-1.02412 0 0)
(-1.00842 0 0)
(-0.991445 0 0)
(-0.973313 0 0)
(-0.954147 0 0)
(-0.93406 0 0)
(-0.913159 0 0)
(-0.891547 0 0)
(-0.869317 0 0)
(-0.84656 0 0)
(-0.823359 0 0)
(-0.799791 0 0)
(-0.77593 0 0)
(-0.751842 0 0)
(-0.72759 0 0)
(-0.703231 0 0)
(-0.678818 0 0)
(-0.654398 0 0)
(-0.630014 0 0)
(-0.605706 0 0)
(-0.581509 0 0)
(-0.557452 0 0)
(-0.533564 0 0)
(-0.509868 0 0)
(-0.486383 0 0)
(-0.463126 0 0)
(-0.44011 0 0)
(-0.417345 0 0)
(-0.394838 0 0)
(-0.372594 0 0)
(-0.350615 0 0)
(-0.328901 0 0)
(-0.307447 0 0)
(-0.28625 0 0)
(-0.265301 0 0)
(-0.244593 0 0)
(-0.224113 0 0)
(-0.203851 0 0)
(-0.183791 0 0)
(-0.163918 0 0)
(-0.144217 0 0)
(-0.124669 0 0)
(-0.105256 0 0)
(-0.0859584 0 0)
(-0.0667564 0 0)
(-0.0476293 0 0)
(-0.028556 0 0)
(-0.00951505 0 0)
(0 0 0)
(5.1931 0 0)
(4.82942 0 0)
(4.47903 0 0)
(4.14185 0 0)
(3.8178 0 0)
(3.50676 0 0)
(3.20859 0 0)
(2.92314 0 0)
(2.65021 0 0)
(2.38961 0 0)
(2.14113 0 0)
(1.90452 0 0)
(1.67956 0 0)
(1.46598 0 0)
(1.26351 0 0)
(1.07189 0 0)
(0.890833 0 0)
(0.720045 0 0)
(0.559236 0 0)
(0.408108 0 0)
(0.266359 0 0)
(0.133687 0 0)
(0.00978647 0 0)
(-0.105647 0 0)
(-0.212919 0 0)
(-0.312331 0 0)
(-0.404188 0 0)
(-0.488787 0 0)
(-0.566427 0 0)
(-0.637399 0 0)
(-0.701994 0 0)
(-0.760495 0 0)
(-0.813185 0 0)
(-0.860336 0 0)
(-0.90222 0 0)
(-0.939099 0 0)
(-0.971231 0 0)
(-0.998868 0 0)
(-1.02225 0 0)
(-1.04163 0 0)
(-1.05722 0 0)
(-1.06926 0 0)
(-1.07796 0 0)
(-1.08353 0 0)
(-1.08618 0 0)
(-1.0861 0 0)
(-1.08347 0 0)
(-1.0785 0 0)
(-1.07134 0 0)
(-1.06216 0 0)
(-1.05113 0 0)
(-1.0384 0 0)
(-1.02412 0 0)
(-1.00842 0 0)
(-0.991445 0 0)
(-0.973313 0 0)
(-0.954147 0 0)
(-0.93406 0 0)
(-0.913159 0 0)
(-0.891547 0 0)
(-0.869317 0 0)
(-0.84656 0 0)
(-0.823359 0 0)
(-0.799791 0 0)
(-0.77593 0 0)
(-0.751842 0 0)
(-0.72759 0 0)
(-0.703231 0 0)
(-0.678818 0 0)
(-0.654398 0 0)
(-0.630014 0 0)
(-0.605706 0 0)
(-0.581509 0 0)
(-0.557452 0 0)
(-0.533564 0 0)
(-0.509868 0 0)
(-0.486383 0 0)
(-0.463126 0 0)
(-0.44011 0 0)
(-0.417345 0 0)
(-0.394838 0 0)
(-0.372594 0 0)
(-0.350615 0 0)
(-0.328901 0 0)
(-0.307447 0 0)
(-0.28625 0 0)
(-0.265301 0 0)
(-0.244593 0 0)
(-0.224113 0 0)
(-0.203851 0 0)
(-0.183791 0 0)
(-0.163918 0 0)
(-0.144217 0 0)
(-0.124669 0 0)
(-0.105256 0 0)
(-0.0859584 0 0)
(-0.0667564 0 0)
(-0.0476293 0 0)
(-0.028556 0 0)
(-0.00951505 0 0)
)
;
    }
    frontAndBack
    {
        type            empty;
    }
}


// ************************************************************************* //
