/*--------------------------------*- C++ -*----------------------------------*\
| =========                 |                                                 |
| \\      /  F ield         | OpenFOAM: The Open Source CFD Toolbox           |
|  \\    /   O peration     | Version:  2312                                  |
|   \\  /    A nd           | Website:  www.openfoam.com                      |
|    \\/     M anipulation  |                                                 |
\*---------------------------------------------------------------------------*/
FoamFile
{
    version     2.0;
    format      ascii;
    arch        "LSB;label=32;scalar=64";
    class       volScalarField;
    location    "2.5";
    object      gradTx;
}
// * * * * * * * * * * * * * * * * * * * * * * * * * * * * * * * * * * * * * //

dimensions      [0 -1 0 1 0 0 0];

internalField   nonuniform List<scalar> 
100
(
5.1931
4.82942
4.47903
4.14185
3.8178
3.50676
3.20859
2.92314
2.65021
2.38961
2.14113
1.90452
1.67956
1.46598
1.26351
1.07189
0.890833
0.720045
0.559236
0.408108
0.266359
0.133687
0.00978647
-0.105647
-0.212919
-0.312331
-0.404188
-0.488787
-0.566427
-0.637399
-0.701994
-0.760495
-0.813185
-0.860336
-0.90222
-0.939099
-0.971231
-0.998868
-1.02225
-1.04163
-1.05722
-1.06926
-1.07796
-1.08353
-1.08618
-1.0861
-1.08347
-1.0785
-1.07134
-1.06216
-1.05113
-1.0384
-1.02412
-1.00842
-0.991445
-0.973313
-0.954147
-0.93406
-0.913159
-0.891547
-0.869317
-0.84656
-0.823359
-0.799791
-0.77593
-0.751842
-0.72759
-0.703231
-0.678818
-0.654398
-0.630014
-0.605706
-0.581509
-0.557452
-0.533564
-0.509868
-0.486383
-0.463126
-0.44011
-0.417345
-0.394838
-0.372594
-0.350615
-0.328901
-0.307447
-0.28625
-0.265301
-0.244593
-0.224113
-0.203851
-0.183791
-0.163918
-0.144217
-0.124669
-0.105256
-0.0859584
-0.0667564
-0.0476293
-0.028556
-0.00951505
)
;

boundaryField
{
    movingWall
    {
        type            calculated;
        value           uniform 5.37827;
    }
    fixedWalls
    {
        type            calculated;
        value           nonuniform List<scalar> 
201
(
5.1931
4.82942
4.47903
4.14185
3.8178
3.50676
3.20859
2.92314
2.65021
2.38961
2.14113
1.90452
1.67956
1.46598
1.26351
1.07189
0.890833
0.720045
0.559236
0.408108
0.266359
0.133687
0.00978647
-0.105647
-0.212919
-0.312331
-0.404188
-0.488787
-0.566427
-0.637399
-0.701994
-0.760495
-0.813185
-0.860336
-0.90222
-0.939099
-0.971231
-0.998868
-1.02225
-1.04163
-1.05722
-1.06926
-1.07796
-1.08353
-1.08618
-1.0861
-1.08347
-1.0785
-1.07134
-1.06216
-1.05113
-1.0384
-1.02412
-1.00842
-0.991445
-0.973313
-0.954147
-0.93406
-0.913159
-0.891547
-0.869317
-0.84656
-0.823359
-0.799791
-0.77593
-0.751842
-0.72759
-0.703231
-0.678818
-0.654398
-0.630014
-0.605706
-0.581509
-0.557452
-0.533564
-0.509868
-0.486383
-0.463126
-0.44011
-0.417345
-0.394838
-0.372594
-0.350615
-0.328901
-0.307447
-0.28625
-0.265301
-0.244593
-0.224113
-0.203851
-0.183791
-0.163918
-0.144217
-0.124669
-0.105256
-0.0859584
-0.0667564
-0.0476293
-0.028556
-0.00951505
0
5.1931
4.82942
4.47903
4.14185
3.8178
3.50676
3.20859
2.92314
2.65021
2.38961
2.14113
1.90452
1.67956
1.46598
1.26351
1.07189
0.890833
0.720045
0.559236
0.408108
0.266359
0.133687
0.00978647
-0.105647
-0.212919
-0.312331
-0.404188
-0.488787
-0.566427
-0.637399
-0.701994
-0.760495
-0.813185
-0.860336
-0.90222
-0.939099
-0.971231
-0.998868
-1.02225
-1.04163
-1.05722
-1.06926
-1.07796
-1.08353
-1.08618
-1.0861
-1.08347
-1.0785
-1.07134
-1.06216
-1.05113
-1.0384
-1.02412
-1.00842
-0.991445
-0.973313
-0.954147
-0.93406
-0.913159
-0.891547
-0.869317
-0.84656
-0.823359
-0.799791
-0.77593
-0.751842
-0.72759
-0.703231
-0.678818
-0.654398
-0.630014
-0.605706
-0.581509
-0.557452
-0.533564
-0.509868
-0.486383
-0.463126
-0.44011
-0.417345
-0.394838
-0.372594
-0.350615
-0.328901
-0.307447
-0.28625
-0.265301
-0.244593
-0.224113
-0.203851
-0.183791
-0.163918
-0.144217
-0.124669
-0.105256
-0.0859584
-0.0667564
-0.0476293
-0.028556
-0.00951505
)
;
    }
    frontAndBack
    {
        type            empty;
    }
}


// ************************************************************************* //
