/*--------------------------------*- C++ -*----------------------------------*\
| =========                 |                                                 |
| \\      /  F ield         | OpenFOAM: The Open Source CFD Toolbox           |
|  \\    /   O peration     | Version:  2312                                  |
|   \\  /    A nd           | Website:  www.openfoam.com                      |
|    \\/     M anipulation  |                                                 |
\*---------------------------------------------------------------------------*/
FoamFile
{
    version     2.0;
    format      ascii;
    arch        "LSB;label=32;scalar=64";
    class       volVectorField;
    location    "1.3";
    object      flux;
}
// * * * * * * * * * * * * * * * * * * * * * * * * * * * * * * * * * * * * * //

dimensions      [0 1 -1 1 0 0 0];

internalField   nonuniform List<vector> 
100
(
(-3.32631 0 0)
(-3.42645 0 0)
(-3.51112 0 0)
(-3.58118 0 0)
(-3.63746 0 0)
(-3.68077 0 0)
(-3.7119 0 0)
(-3.73162 0 0)
(-3.74065 0 0)
(-3.73971 0 0)
(-3.7295 0 0)
(-3.71068 0 0)
(-3.68388 0 0)
(-3.64973 0 0)
(-3.60881 0 0)
(-3.5617 0 0)
(-3.50893 0 0)
(-3.45103 0 0)
(-3.3885 0 0)
(-3.32181 0 0)
(-3.25142 0 0)
(-3.17776 0 0)
(-3.10124 0 0)
(-3.02224 0 0)
(-2.94114 0 0)
(-2.85828 0 0)
(-2.774 0 0)
(-2.68861 0 0)
(-2.60239 0 0)
(-2.51563 0 0)
(-2.42858 0 0)
(-2.34148 0 0)
(-2.25456 0 0)
(-2.16803 0 0)
(-2.08207 0 0)
(-1.99688 0 0)
(-1.91262 0 0)
(-1.82944 0 0)
(-1.74748 0 0)
(-1.66686 0 0)
(-1.58771 0 0)
(-1.51014 0 0)
(-1.43422 0 0)
(-1.36005 0 0)
(-1.28771 0 0)
(-1.21725 0 0)
(-1.14874 0 0)
(-1.08221 0 0)
(-1.01772 0 0)
(-0.955297 0 0)
(-0.89496 0 0)
(-0.836734 0 0)
(-0.780629 0 0)
(-0.726653 0 0)
(-0.674808 0 0)
(-0.62509 0 0)
(-0.57749 0 0)
(-0.531996 0 0)
(-0.488591 0 0)
(-0.447253 0 0)
(-0.407958 0 0)
(-0.370678 0 0)
(-0.335383 0 0)
(-0.302038 0 0)
(-0.270608 0 0)
(-0.241053 0 0)
(-0.213334 0 0)
(-0.187407 0 0)
(-0.163228 0 0)
(-0.140751 0 0)
(-0.119928 0 0)
(-0.100712 0 0)
(-0.0830509 0 0)
(-0.0668955 0 0)
(-0.0521936 0 0)
(-0.0388929 0 0)
(-0.0269404 0 0)
(-0.0162824 0 0)
(-0.00686491 0 0)
(0.0013665 0 0)
(0.00846658 0 0)
(0.0144903 0 0)
(0.0194929 0 0)
(0.0235296 0 0)
(0.0266559 0 0)
(0.0289271 0 0)
(0.0303989 0 0)
(0.0311267 0 0)
(0.0311659 0 0)
(0.030572 0 0)
(0.0294003 0 0)
(0.0277061 0 0)
(0.0255447 0 0)
(0.0229713 0 0)
(0.0200409 0 0)
(0.0168086 0 0)
(0.0133293 0 0)
(0.00965805 0 0)
(0.00584967 0 0)
(0.00195903 0 0)
)
;

boundaryField
{
    movingWall
    {
        type            calculated;
        value           uniform (-3.27227 0 0);
    }
    fixedWalls
    {
        type            calculated;
        value           nonuniform List<vector> 
201
(
(-3.32631 0 0)
(-3.42645 0 0)
(-3.51112 0 0)
(-3.58118 0 0)
(-3.63746 0 0)
(-3.68077 0 0)
(-3.7119 0 0)
(-3.73162 0 0)
(-3.74065 0 0)
(-3.73971 0 0)
(-3.7295 0 0)
(-3.71068 0 0)
(-3.68388 0 0)
(-3.64973 0 0)
(-3.60881 0 0)
(-3.5617 0 0)
(-3.50893 0 0)
(-3.45103 0 0)
(-3.3885 0 0)
(-3.32181 0 0)
(-3.25142 0 0)
(-3.17776 0 0)
(-3.10124 0 0)
(-3.02224 0 0)
(-2.94114 0 0)
(-2.85828 0 0)
(-2.774 0 0)
(-2.68861 0 0)
(-2.60239 0 0)
(-2.51563 0 0)
(-2.42858 0 0)
(-2.34148 0 0)
(-2.25456 0 0)
(-2.16803 0 0)
(-2.08207 0 0)
(-1.99688 0 0)
(-1.91262 0 0)
(-1.82944 0 0)
(-1.74748 0 0)
(-1.66686 0 0)
(-1.58771 0 0)
(-1.51014 0 0)
(-1.43422 0 0)
(-1.36005 0 0)
(-1.28771 0 0)
(-1.21725 0 0)
(-1.14874 0 0)
(-1.08221 0 0)
(-1.01772 0 0)
(-0.955297 0 0)
(-0.89496 0 0)
(-0.836734 0 0)
(-0.780629 0 0)
(-0.726653 0 0)
(-0.674808 0 0)
(-0.62509 0 0)
(-0.57749 0 0)
(-0.531996 0 0)
(-0.488591 0 0)
(-0.447253 0 0)
(-0.407958 0 0)
(-0.370678 0 0)
(-0.335383 0 0)
(-0.302038 0 0)
(-0.270608 0 0)
(-0.241053 0 0)
(-0.213334 0 0)
(-0.187407 0 0)
(-0.163228 0 0)
(-0.140751 0 0)
(-0.119928 0 0)
(-0.100712 0 0)
(-0.0830509 0 0)
(-0.0668955 0 0)
(-0.0521936 0 0)
(-0.0388929 0 0)
(-0.0269404 0 0)
(-0.0162824 0 0)
(-0.00686491 0 0)
(0.0013665 0 0)
(0.00846658 0 0)
(0.0144903 0 0)
(0.0194929 0 0)
(0.0235296 0 0)
(0.0266559 0 0)
(0.0289271 0 0)
(0.0303989 0 0)
(0.0311267 0 0)
(0.0311659 0 0)
(0.030572 0 0)
(0.0294003 0 0)
(0.0277061 0 0)
(0.0255447 0 0)
(0.0229713 0 0)
(0.0200409 0 0)
(0.0168086 0 0)
(0.0133293 0 0)
(0.00965805 0 0)
(0.00584967 0 0)
(0.00195903 0 0)
(0 0 0)
(-3.32631 0 0)
(-3.42645 0 0)
(-3.51112 0 0)
(-3.58118 0 0)
(-3.63746 0 0)
(-3.68077 0 0)
(-3.7119 0 0)
(-3.73162 0 0)
(-3.74065 0 0)
(-3.73971 0 0)
(-3.7295 0 0)
(-3.71068 0 0)
(-3.68388 0 0)
(-3.64973 0 0)
(-3.60881 0 0)
(-3.5617 0 0)
(-3.50893 0 0)
(-3.45103 0 0)
(-3.3885 0 0)
(-3.32181 0 0)
(-3.25142 0 0)
(-3.17776 0 0)
(-3.10124 0 0)
(-3.02224 0 0)
(-2.94114 0 0)
(-2.85828 0 0)
(-2.774 0 0)
(-2.68861 0 0)
(-2.60239 0 0)
(-2.51563 0 0)
(-2.42858 0 0)
(-2.34148 0 0)
(-2.25456 0 0)
(-2.16803 0 0)
(-2.08207 0 0)
(-1.99688 0 0)
(-1.91262 0 0)
(-1.82944 0 0)
(-1.74748 0 0)
(-1.66686 0 0)
(-1.58771 0 0)
(-1.51014 0 0)
(-1.43422 0 0)
(-1.36005 0 0)
(-1.28771 0 0)
(-1.21725 0 0)
(-1.14874 0 0)
(-1.08221 0 0)
(-1.01772 0 0)
(-0.955297 0 0)
(-0.89496 0 0)
(-0.836734 0 0)
(-0.780629 0 0)
(-0.726653 0 0)
(-0.674808 0 0)
(-0.62509 0 0)
(-0.57749 0 0)
(-0.531996 0 0)
(-0.488591 0 0)
(-0.447253 0 0)
(-0.407958 0 0)
(-0.370678 0 0)
(-0.335383 0 0)
(-0.302038 0 0)
(-0.270608 0 0)
(-0.241053 0 0)
(-0.213334 0 0)
(-0.187407 0 0)
(-0.163228 0 0)
(-0.140751 0 0)
(-0.119928 0 0)
(-0.100712 0 0)
(-0.0830509 0 0)
(-0.0668955 0 0)
(-0.0521936 0 0)
(-0.0388929 0 0)
(-0.0269404 0 0)
(-0.0162824 0 0)
(-0.00686491 0 0)
(0.0013665 0 0)
(0.00846658 0 0)
(0.0144903 0 0)
(0.0194929 0 0)
(0.0235296 0 0)
(0.0266559 0 0)
(0.0289271 0 0)
(0.0303989 0 0)
(0.0311267 0 0)
(0.0311659 0 0)
(0.030572 0 0)
(0.0294003 0 0)
(0.0277061 0 0)
(0.0255447 0 0)
(0.0229713 0 0)
(0.0200409 0 0)
(0.0168086 0 0)
(0.0133293 0 0)
(0.00965805 0 0)
(0.00584967 0 0)
(0.00195903 0 0)
)
;
    }
    frontAndBack
    {
        type            empty;
    }
}


// ************************************************************************* //
