/*--------------------------------*- C++ -*----------------------------------*\
| =========                 |                                                 |
| \\      /  F ield         | OpenFOAM: The Open Source CFD Toolbox           |
|  \\    /   O peration     | Version:  2312                                  |
|   \\  /    A nd           | Website:  www.openfoam.com                      |
|    \\/     M anipulation  |                                                 |
\*---------------------------------------------------------------------------*/
FoamFile
{
    version     2.0;
    format      ascii;
    arch        "LSB;label=32;scalar=64";
    class       volScalarField;
    location    "1.3";
    object      gradTx;
}
// * * * * * * * * * * * * * * * * * * * * * * * * * * * * * * * * * * * * * //

dimensions      [0 -1 0 1 0 0 0];

internalField   nonuniform List<scalar> 
100
(
-3.32631
-3.42645
-3.51112
-3.58118
-3.63746
-3.68077
-3.7119
-3.73162
-3.74065
-3.73971
-3.7295
-3.71068
-3.68388
-3.64973
-3.60881
-3.5617
-3.50893
-3.45103
-3.3885
-3.32181
-3.25142
-3.17776
-3.10124
-3.02224
-2.94114
-2.85828
-2.774
-2.68861
-2.60239
-2.51563
-2.42858
-2.34148
-2.25456
-2.16803
-2.08207
-1.99688
-1.91262
-1.82944
-1.74748
-1.66686
-1.58771
-1.51014
-1.43422
-1.36005
-1.28771
-1.21725
-1.14874
-1.08221
-1.01772
-0.955297
-0.89496
-0.836734
-0.780629
-0.726653
-0.674808
-0.62509
-0.57749
-0.531996
-0.488591
-0.447253
-0.407958
-0.370678
-0.335383
-0.302038
-0.270608
-0.241053
-0.213334
-0.187407
-0.163228
-0.140751
-0.119928
-0.100712
-0.0830509
-0.0668955
-0.0521936
-0.0388929
-0.0269404
-0.0162824
-0.00686491
0.0013665
0.00846658
0.0144903
0.0194929
0.0235296
0.0266559
0.0289271
0.0303989
0.0311267
0.0311659
0.030572
0.0294003
0.0277061
0.0255447
0.0229713
0.0200409
0.0168086
0.0133293
0.00965805
0.00584967
0.00195903
)
;

boundaryField
{
    movingWall
    {
        type            calculated;
        value           uniform -3.27227;
    }
    fixedWalls
    {
        type            calculated;
        value           nonuniform List<scalar> 
201
(
-3.32631
-3.42645
-3.51112
-3.58118
-3.63746
-3.68077
-3.7119
-3.73162
-3.74065
-3.73971
-3.7295
-3.71068
-3.68388
-3.64973
-3.60881
-3.5617
-3.50893
-3.45103
-3.3885
-3.32181
-3.25142
-3.17776
-3.10124
-3.02224
-2.94114
-2.85828
-2.774
-2.68861
-2.60239
-2.51563
-2.42858
-2.34148
-2.25456
-2.16803
-2.08207
-1.99688
-1.91262
-1.82944
-1.74748
-1.66686
-1.58771
-1.51014
-1.43422
-1.36005
-1.28771
-1.21725
-1.14874
-1.08221
-1.01772
-0.955297
-0.89496
-0.836734
-0.780629
-0.726653
-0.674808
-0.62509
-0.57749
-0.531996
-0.488591
-0.447253
-0.407958
-0.370678
-0.335383
-0.302038
-0.270608
-0.241053
-0.213334
-0.187407
-0.163228
-0.140751
-0.119928
-0.100712
-0.0830509
-0.0668955
-0.0521936
-0.0388929
-0.0269404
-0.0162824
-0.00686491
0.0013665
0.00846658
0.0144903
0.0194929
0.0235296
0.0266559
0.0289271
0.0303989
0.0311267
0.0311659
0.030572
0.0294003
0.0277061
0.0255447
0.0229713
0.0200409
0.0168086
0.0133293
0.00965805
0.00584967
0.00195903
0
-3.32631
-3.42645
-3.51112
-3.58118
-3.63746
-3.68077
-3.7119
-3.73162
-3.74065
-3.73971
-3.7295
-3.71068
-3.68388
-3.64973
-3.60881
-3.5617
-3.50893
-3.45103
-3.3885
-3.32181
-3.25142
-3.17776
-3.10124
-3.02224
-2.94114
-2.85828
-2.774
-2.68861
-2.60239
-2.51563
-2.42858
-2.34148
-2.25456
-2.16803
-2.08207
-1.99688
-1.91262
-1.82944
-1.74748
-1.66686
-1.58771
-1.51014
-1.43422
-1.36005
-1.28771
-1.21725
-1.14874
-1.08221
-1.01772
-0.955297
-0.89496
-0.836734
-0.780629
-0.726653
-0.674808
-0.62509
-0.57749
-0.531996
-0.488591
-0.447253
-0.407958
-0.370678
-0.335383
-0.302038
-0.270608
-0.241053
-0.213334
-0.187407
-0.163228
-0.140751
-0.119928
-0.100712
-0.0830509
-0.0668955
-0.0521936
-0.0388929
-0.0269404
-0.0162824
-0.00686491
0.0013665
0.00846658
0.0144903
0.0194929
0.0235296
0.0266559
0.0289271
0.0303989
0.0311267
0.0311659
0.030572
0.0294003
0.0277061
0.0255447
0.0229713
0.0200409
0.0168086
0.0133293
0.00965805
0.00584967
0.00195903
)
;
    }
    frontAndBack
    {
        type            empty;
    }
}


// ************************************************************************* //
