/*--------------------------------*- C++ -*----------------------------------*\
| =========                 |                                                 |
| \\      /  F ield         | OpenFOAM: The Open Source CFD Toolbox           |
|  \\    /   O peration     | Version:  2312                                  |
|   \\  /    A nd           | Website:  www.openfoam.com                      |
|    \\/     M anipulation  |                                                 |
\*---------------------------------------------------------------------------*/
FoamFile
{
    version     2.0;
    format      ascii;
    arch        "LSB;label=32;scalar=64";
    class       volVectorField;
    location    "0.555";
    object      U;
}
// * * * * * * * * * * * * * * * * * * * * * * * * * * * * * * * * * * * * * //

dimensions      [0 1 -1 0 0 0 0];

internalField   nonuniform List<vector> 
31205
(
(259.154 0 0)
(257.288 0 0)
(255.364 0 0)
(253.377 0 0)
(251.326 0 0)
(249.207 0 0)
(247.017 0 0)
(244.751 0 0)
(242.406 0 0)
(239.978 0 0)
(237.46 0 0)
(234.848 0 0)
(232.134 0 0)
(229.31 0 0)
(226.369 0 0)
(223.3 0 0)
(220.091 0 0)
(216.728 0 0)
(213.195 0 0)
(209.472 0 0)
(205.534 0 0)
(201.352 0 0)
(196.887 0 0)
(192.089 0 0)
(186.894 0 0)
(181.213 0 0)
(174.911 0 0)
(167.797 0 0)
(159.678 0 0)
(150.538 0 0)
(140.772 0 0)
(131.206 0 0)
(122.757 0 0)
(116.006 0 0)
(111.053 0 0)
(107.663 0 0)
(105.485 0 0)
(104.192 0 0)
(103.529 0 0)
(103.315 0 0)
(103.422 0 0)
(103.764 0 0)
(104.28 0 0)
(104.929 0 0)
(105.68 0 0)
(106.512 0 0)
(107.407 0 0)
(108.354 0 0)
(109.342 0 0)
(110.365 0 0)
(111.416 0 0)
(112.49 0 0)
(113.584 0 0)
(114.695 0 0)
(115.819 0 0)
(116.954 0 0)
(118.099 0 0)
(119.252 0 0)
(120.412 0 0)
(121.576 0 0)
(122.745 0 0)
(123.918 0 0)
(125.093 0 0)
(126.27 0 0)
(127.449 0 0)
(128.629 0 0)
(129.809 0 0)
(130.989 0 0)
(132.168 0 0)
(133.347 0 0)
(134.526 0 0)
(135.702 0 0)
(136.878 0 0)
(138.051 0 0)
(139.227 0 0)
(140.384 0 0)
(141.593 0 0)
(142.631 0 0)
(144.189 0 0)
(257.17 0 0)
(255.301 0 0)
(253.374 0 0)
(251.386 0 0)
(249.334 0 0)
(247.215 0 0)
(245.026 0 0)
(242.763 0 0)
(240.421 0 0)
(237.997 0 0)
(235.484 0 0)
(232.878 0 0)
(230.17 0 0)
(227.354 0 0)
(224.421 0 0)
(221.36 0 0)
(218.16 0 0)
(214.806 0 0)
(211.283 0 0)
(207.569 0 0)
(203.64 0 0)
(199.465 0 0)
(195.005 0 0)
(190.209 0 0)
(185.012 0 0)
(179.32 0 0)
(172.994 0 0)
(165.847 0 0)
(157.712 0 0)
(148.628 0 0)
(139.047 0 0)
(129.795 0 0)
(121.718 0 0)
(115.311 0 0)
(110.623 0 0)
(107.409 0 0)
(105.335 0 0)
(104.095 0 0)
(103.452 0 0)
(103.235 0 0)
(103.326 0 0)
(103.643 0 0)
(104.129 0 0)
(104.743 0 0)
(105.458 0 0)
(106.252 0 0)
(107.109 0 0)
(108.016 0 0)
(108.965 0 0)
(109.948 0 0)
(110.96 0 0)
(111.995 0 0)
(113.049 0 0)
(114.121 0 0)
(115.206 0 0)
(116.302 0 0)
(117.409 0 0)
(118.524 0 0)
(119.645 0 0)
(120.772 0 0)
(121.904 0 0)
(123.04 0 0)
(124.178 0 0)
(125.319 0 0)
(126.461 0 0)
(127.605 0 0)
(128.749 0 0)
(129.894 0 0)
(131.039 0 0)
(132.183 0 0)
(133.326 0 0)
(134.469 0 0)
(135.611 0 0)
(136.749 0 0)
(137.892 0 0)
(139.016 0 0)
(140.191 0 0)
(141.2 0 0)
(142.71 0 0)
(255.082 0 0)
(253.208 0 0)
(251.277 0 0)
(249.286 0 0)
(247.232 0 0)
(245.112 0 0)
(242.922 0 0)
(240.658 0 0)
(238.318 0 0)
(235.894 0 0)
(233.384 0 0)
(230.779 0 0)
(228.075 0 0)
(225.262 0 0)
(222.332 0 0)
(219.274 0 0)
(216.078 0 0)
(212.727 0 0)
(209.205 0 0)
(205.492 0 0)
(201.562 0 0)
(197.383 0 0)
(192.915 0 0)
(188.106 0 0)
(182.887 0 0)
(177.159 0 0)
(170.78 0 0)
(163.568 0 0)
(155.393 0 0)
(146.368 0 0)
(137.005 0 0)
(128.121 0 0)
(120.479 0 0)
(114.474 0 0)
(110.098 0 0)
(107.097 0 0)
(105.154 0 0)
(103.986 0 0)
(103.376 0 0)
(103.167 0 0)
(103.249 0 0)
(103.547 0 0)
(104.007 0 0)
(104.592 0 0)
(105.273 0 0)
(106.032 0 0)
(106.852 0 0)
(107.722 0 0)
(108.633 0 0)
(109.578 0 0)
(110.552 0 0)
(111.548 0 0)
(112.565 0 0)
(113.598 0 0)
(114.645 0 0)
(115.704 0 0)
(116.773 0 0)
(117.851 0 0)
(118.935 0 0)
(120.026 0 0)
(121.121 0 0)
(122.221 0 0)
(123.323 0 0)
(124.428 0 0)
(125.535 0 0)
(126.644 0 0)
(127.753 0 0)
(128.863 0 0)
(129.974 0 0)
(131.084 0 0)
(132.193 0 0)
(133.302 0 0)
(134.411 0 0)
(135.516 0 0)
(136.626 0 0)
(137.717 0 0)
(138.858 0 0)
(139.84 0 0)
(141.301 0 0)
(252.946 0 0)
(251.068 0 0)
(249.133 0 0)
(247.138 0 0)
(245.081 0 0)
(242.959 0 0)
(240.767 0 0)
(238.503 0 0)
(236.162 0 0)
(233.739 0 0)
(231.228 0 0)
(228.624 0 0)
(225.92 0 0)
(223.108 0 0)
(220.179 0 0)
(217.122 0 0)
(213.925 0 0)
(210.573 0 0)
(207.049 0 0)
(203.331 0 0)
(199.393 0 0)
(195.203 0 0)
(190.718 0 0)
(185.884 0 0)
(180.629 0 0)
(174.848 0 0)
(168.394 0 0)
(161.099 0 0)
(152.881 0 0)
(143.932 0 0)
(134.822 0 0)
(126.344 0 0)
(119.165 0 0)
(113.582 0 0)
(109.532 0 0)
(106.755 0 0)
(104.953 0 0)
(103.867 0 0)
(103.297 0 0)
(103.102 0 0)
(103.182 0 0)
(103.465 0 0)
(103.903 0 0)
(104.461 0 0)
(105.112 0 0)
(105.838 0 0)
(106.624 0 0)
(107.459 0 0)
(108.334 0 0)
(109.243 0 0)
(110.18 0 0)
(111.14 0 0)
(112.12 0 0)
(113.116 0 0)
(114.127 0 0)
(115.149 0 0)
(116.182 0 0)
(117.223 0 0)
(118.272 0 0)
(119.327 0 0)
(120.386 0 0)
(121.451 0 0)
(122.518 0 0)
(123.588 0 0)
(124.661 0 0)
(125.735 0 0)
(126.811 0 0)
(127.887 0 0)
(128.963 0 0)
(130.04 0 0)
(131.117 0 0)
(132.192 0 0)
(133.268 0 0)
(134.341 0 0)
(135.418 0 0)
(136.478 0 0)
(137.585 0 0)
(138.541 0 0)
(139.956 0 0)
(250.79 0 0)
(248.907 0 0)
(246.969 0 0)
(244.971 0 0)
(242.911 0 0)
(240.787 0 0)
(238.594 0 0)
(236.329 0 0)
(233.987 0 0)
(231.563 0 0)
(229.052 0 0)
(226.449 0 0)
(223.745 0 0)
(220.932 0 0)
(218.002 0 0)
(214.944 0 0)
(211.745 0 0)
(208.39 0 0)
(204.86 0 0)
(201.135 0 0)
(197.186 0 0)
(192.979 0 0)
(188.472 0 0)
(183.607 0 0)
(178.306 0 0)
(172.461 0 0)
(165.921 0 0)
(158.54 0 0)
(150.293 0 0)
(141.453 0 0)
(132.632 0 0)
(124.584 0 0)
(117.875 0 0)
(112.707 0 0)
(108.974 0 0)
(106.415 0 0)
(104.752 0 0)
(103.746 0 0)
(103.219 0 0)
(103.04 0 0)
(103.118 0 0)
(103.389 0 0)
(103.808 0 0)
(104.34 0 0)
(104.963 0 0)
(105.659 0 0)
(106.412 0 0)
(107.214 0 0)
(108.054 0 0)
(108.928 0 0)
(109.83 0 0)
(110.754 0 0)
(111.698 0 0)
(112.659 0 0)
(113.634 0 0)
(114.622 0 0)
(115.619 0 0)
(116.625 0 0)
(117.639 0 0)
(118.659 0 0)
(119.684 0 0)
(120.714 0 0)
(121.748 0 0)
(122.784 0 0)
(123.823 0 0)
(124.864 0 0)
(125.906 0 0)
(126.949 0 0)
(127.993 0 0)
(129.037 0 0)
(130.081 0 0)
(131.124 0 0)
(132.168 0 0)
(133.209 0 0)
(134.255 0 0)
(135.284 0 0)
(136.358 0 0)
(137.287 0 0)
(138.659 0 0)
(248.624 0 0)
(246.738 0 0)
(244.796 0 0)
(242.796 0 0)
(240.734 0 0)
(238.608 0 0)
(236.414 0 0)
(234.148 0 0)
(231.805 0 0)
(229.381 0 0)
(226.87 0 0)
(224.266 0 0)
(221.562 0 0)
(218.749 0 0)
(215.818 0 0)
(212.758 0 0)
(209.555 0 0)
(206.195 0 0)
(202.659 0 0)
(198.923 0 0)
(194.96 0 0)
(190.735 0 0)
(186.201 0 0)
(181.298 0 0)
(175.946 0 0)
(170.027 0 0)
(163.398 0 0)
(155.937 0 0)
(147.687 0 0)
(138.995 0 0)
(130.5 0 0)
(122.896 0 0)
(116.649 0 0)
(111.879 0 0)
(108.445 0 0)
(106.092 0 0)
(104.558 0 0)
(103.629 0 0)
(103.142 0 0)
(102.979 0 0)
(103.057 0 0)
(103.317 0 0)
(103.717 0 0)
(104.226 0 0)
(104.822 0 0)
(105.488 0 0)
(106.21 0 0)
(106.979 0 0)
(107.787 0 0)
(108.627 0 0)
(109.495 0 0)
(110.385 0 0)
(111.295 0 0)
(112.221 0 0)
(113.162 0 0)
(114.115 0 0)
(115.078 0 0)
(116.05 0 0)
(117.03 0 0)
(118.016 0 0)
(119.008 0 0)
(120.004 0 0)
(121.004 0 0)
(122.008 0 0)
(123.014 0 0)
(124.022 0 0)
(125.032 0 0)
(126.042 0 0)
(127.054 0 0)
(128.066 0 0)
(129.079 0 0)
(130.091 0 0)
(131.103 0 0)
(132.113 0 0)
(133.128 0 0)
(134.126 0 0)
(135.169 0 0)
(136.071 0 0)
(137.402 0 0)
(246.452 0 0)
(244.563 0 0)
(242.619 0 0)
(240.616 0 0)
(238.554 0 0)
(236.426 0 0)
(234.232 0 0)
(231.965 0 0)
(229.622 0 0)
(227.198 0 0)
(224.687 0 0)
(222.082 0 0)
(219.377 0 0)
(216.563 0 0)
(213.631 0 0)
(210.568 0 0)
(207.361 0 0)
(203.995 0 0)
(200.45 0 0)
(196.703 0 0)
(192.724 0 0)
(188.476 0 0)
(183.911 0 0)
(178.967 0 0)
(173.556 0 0)
(167.559 0 0)
(160.838 0 0)
(153.312 0 0)
(145.093 0 0)
(136.591 0 0)
(128.452 0 0)
(121.3 0 0)
(115.501 0 0)
(111.108 0 0)
(107.953 0 0)
(105.789 0 0)
(104.376 0 0)
(103.518 0 0)
(103.068 0 0)
(102.92 0 0)
(102.998 0 0)
(103.247 0 0)
(103.629 0 0)
(104.116 0 0)
(104.686 0 0)
(105.324 0 0)
(106.017 0 0)
(106.755 0 0)
(107.53 0 0)
(108.338 0 0)
(109.172 0 0)
(110.03 0 0)
(110.906 0 0)
(111.799 0 0)
(112.707 0 0)
(113.626 0 0)
(114.556 0 0)
(115.495 0 0)
(116.442 0 0)
(117.395 0 0)
(118.354 0 0)
(119.318 0 0)
(120.286 0 0)
(121.257 0 0)
(122.231 0 0)
(123.207 0 0)
(124.185 0 0)
(125.164 0 0)
(126.145 0 0)
(127.126 0 0)
(128.107 0 0)
(129.089 0 0)
(130.07 0 0)
(131.05 0 0)
(132.034 0 0)
(133.003 0 0)
(134.015 0 0)
(134.891 0 0)
(136.181 0 0)
(244.275 0 0)
(242.384 0 0)
(240.438 0 0)
(238.435 0 0)
(236.371 0 0)
(234.243 0 0)
(232.048 0 0)
(229.781 0 0)
(227.438 0 0)
(225.014 0 0)
(222.503 0 0)
(219.898 0 0)
(217.192 0 0)
(214.377 0 0)
(211.442 0 0)
(208.375 0 0)
(205.164 0 0)
(201.791 0 0)
(198.236 0 0)
(194.475 0 0)
(190.477 0 0)
(186.204 0 0)
(181.605 0 0)
(176.613 0 0)
(171.137 0 0)
(165.056 0 0)
(158.248 0 0)
(150.678 0 0)
(142.526 0 0)
(134.257 0 0)
(126.5 0 0)
(119.8 0 0)
(114.433 0 0)
(110.392 0 0)
(107.496 0 0)
(105.508 0 0)
(104.206 0 0)
(103.414 0 0)
(102.999 0 0)
(102.864 0 0)
(102.941 0 0)
(103.18 0 0)
(103.546 0 0)
(104.011 0 0)
(104.557 0 0)
(105.167 0 0)
(105.831 0 0)
(106.539 0 0)
(107.284 0 0)
(108.06 0 0)
(108.862 0 0)
(109.688 0 0)
(110.532 0 0)
(111.393 0 0)
(112.267 0 0)
(113.155 0 0)
(114.052 0 0)
(114.959 0 0)
(115.874 0 0)
(116.795 0 0)
(117.722 0 0)
(118.654 0 0)
(119.59 0 0)
(120.53 0 0)
(121.473 0 0)
(122.418 0 0)
(123.365 0 0)
(124.313 0 0)
(125.263 0 0)
(126.214 0 0)
(127.165 0 0)
(128.116 0 0)
(129.068 0 0)
(130.018 0 0)
(130.973 0 0)
(131.913 0 0)
(132.894 0 0)
(133.744 0 0)
(134.995 0 0)
(242.095 0 0)
(240.202 0 0)
(238.256 0 0)
(236.252 0 0)
(234.187 0 0)
(232.059 0 0)
(229.864 0 0)
(227.597 0 0)
(225.254 0 0)
(222.83 0 0)
(220.318 0 0)
(217.713 0 0)
(215.006 0 0)
(212.188 0 0)
(209.25 0 0)
(206.18 0 0)
(202.962 0 0)
(199.581 0 0)
(196.014 0 0)
(192.238 0 0)
(188.218 0 0)
(183.916 0 0)
(179.278 0 0)
(174.234 0 0)
(168.687 0 0)
(162.52 0 0)
(155.633 0 0)
(148.043 0 0)
(140 0 0)
(132.003 0 0)
(124.648 0 0)
(118.397 0 0)
(113.442 0 0)
(109.731 0 0)
(107.075 0 0)
(105.248 0 0)
(104.049 0 0)
(103.317 0 0)
(102.934 0 0)
(102.811 0 0)
(102.888 0 0)
(103.117 0 0)
(103.466 0 0)
(103.911 0 0)
(104.432 0 0)
(105.016 0 0)
(105.652 0 0)
(106.331 0 0)
(107.047 0 0)
(107.792 0 0)
(108.564 0 0)
(109.358 0 0)
(110.171 0 0)
(111 0 0)
(111.844 0 0)
(112.699 0 0)
(113.566 0 0)
(114.441 0 0)
(115.324 0 0)
(116.215 0 0)
(117.111 0 0)
(118.012 0 0)
(118.917 0 0)
(119.826 0 0)
(120.739 0 0)
(121.653 0 0)
(122.57 0 0)
(123.489 0 0)
(124.409 0 0)
(125.33 0 0)
(126.252 0 0)
(127.174 0 0)
(128.096 0 0)
(129.017 0 0)
(129.942 0 0)
(130.854 0 0)
(131.805 0 0)
(132.631 0 0)
(133.843 0 0)
(239.912 0 0)
(238.018 0 0)
(236.071 0 0)
(234.066 0 0)
(232.002 0 0)
(229.874 0 0)
(227.679 0 0)
(225.412 0 0)
(223.069 0 0)
(220.644 0 0)
(218.132 0 0)
(215.526 0 0)
(212.818 0 0)
(209.998 0 0)
(207.056 0 0)
(203.98 0 0)
(200.756 0 0)
(197.364 0 0)
(193.784 0 0)
(189.989 0 0)
(185.946 0 0)
(181.611 0 0)
(176.93 0 0)
(171.827 0 0)
(166.204 0 0)
(159.95 0 0)
(152.997 0 0)
(145.42 0 0)
(137.528 0 0)
(129.839 0 0)
(122.899 0 0)
(117.088 0 0)
(112.525 0 0)
(109.121 0 0)
(106.685 0 0)
(105.006 0 0)
(103.902 0 0)
(103.226 0 0)
(102.872 0 0)
(102.762 0 0)
(102.837 0 0)
(103.056 0 0)
(103.39 0 0)
(103.815 0 0)
(104.313 0 0)
(104.872 0 0)
(105.481 0 0)
(106.133 0 0)
(106.819 0 0)
(107.535 0 0)
(108.277 0 0)
(109.041 0 0)
(109.824 0 0)
(110.622 0 0)
(111.435 0 0)
(112.26 0 0)
(113.096 0 0)
(113.941 0 0)
(114.794 0 0)
(115.654 0 0)
(116.52 0 0)
(117.391 0 0)
(118.266 0 0)
(119.145 0 0)
(120.028 0 0)
(120.913 0 0)
(121.801 0 0)
(122.69 0 0)
(123.581 0 0)
(124.473 0 0)
(125.366 0 0)
(126.259 0 0)
(127.153 0 0)
(128.046 0 0)
(128.943 0 0)
(129.827 0 0)
(130.749 0 0)
(131.55 0 0)
(132.725 0 0)
(237.726 0 0)
(235.832 0 0)
(233.884 0 0)
(231.88 0 0)
(229.815 0 0)
(227.688 0 0)
(225.492 0 0)
(223.226 0 0)
(220.883 0 0)
(218.458 0 0)
(215.945 0 0)
(213.338 0 0)
(210.627 0 0)
(207.804 0 0)
(204.858 0 0)
(201.776 0 0)
(198.543 0 0)
(195.14 0 0)
(191.544 0 0)
(187.728 0 0)
(183.657 0 0)
(179.286 0 0)
(174.556 0 0)
(169.389 0 0)
(163.685 0 0)
(157.349 0 0)
(150.348 0 0)
(142.819 0 0)
(135.122 0 0)
(127.77 0 0)
(121.255 0 0)
(115.871 0 0)
(111.677 0 0)
(108.558 0 0)
(106.325 0 0)
(104.783 0 0)
(103.765 0 0)
(103.141 0 0)
(102.815 0 0)
(102.714 0 0)
(102.788 0 0)
(102.999 0 0)
(103.317 0 0)
(103.723 0 0)
(104.199 0 0)
(104.734 0 0)
(105.318 0 0)
(105.942 0 0)
(106.6 0 0)
(107.288 0 0)
(108.001 0 0)
(108.736 0 0)
(109.489 0 0)
(110.258 0 0)
(111.042 0 0)
(111.837 0 0)
(112.643 0 0)
(113.458 0 0)
(114.282 0 0)
(115.112 0 0)
(115.949 0 0)
(116.79 0 0)
(117.637 0 0)
(118.487 0 0)
(119.341 0 0)
(120.197 0 0)
(121.056 0 0)
(121.917 0 0)
(122.779 0 0)
(123.643 0 0)
(124.508 0 0)
(125.373 0 0)
(126.239 0 0)
(127.105 0 0)
(127.974 0 0)
(128.83 0 0)
(129.724 0 0)
(130.501 0 0)
(131.639 0 0)
(235.537 0 0)
(233.643 0 0)
(231.696 0 0)
(229.692 0 0)
(227.628 0 0)
(225.5 0 0)
(223.305 0 0)
(221.039 0 0)
(218.696 0 0)
(216.271 0 0)
(213.757 0 0)
(211.148 0 0)
(208.434 0 0)
(205.607 0 0)
(202.656 0 0)
(199.566 0 0)
(196.323 0 0)
(192.906 0 0)
(189.292 0 0)
(185.453 0 0)
(181.351 0 0)
(176.939 0 0)
(172.155 0 0)
(166.917 0 0)
(161.132 0 0)
(154.72 0 0)
(147.697 0 0)
(140.255 0 0)
(132.792 0 0)
(125.805 0 0)
(119.715 0 0)
(114.743 0 0)
(110.895 0 0)
(108.04 0 0)
(105.993 0 0)
(104.576 0 0)
(103.638 0 0)
(103.062 0 0)
(102.761 0 0)
(102.67 0 0)
(102.742 0 0)
(102.944 0 0)
(103.248 0 0)
(103.635 0 0)
(104.091 0 0)
(104.602 0 0)
(105.161 0 0)
(105.759 0 0)
(106.391 0 0)
(107.051 0 0)
(107.736 0 0)
(108.443 0 0)
(109.167 0 0)
(109.908 0 0)
(110.662 0 0)
(111.429 0 0)
(112.206 0 0)
(112.993 0 0)
(113.787 0 0)
(114.589 0 0)
(115.397 0 0)
(116.21 0 0)
(117.028 0 0)
(117.85 0 0)
(118.675 0 0)
(119.504 0 0)
(120.335 0 0)
(121.168 0 0)
(122.003 0 0)
(122.839 0 0)
(123.676 0 0)
(124.514 0 0)
(125.353 0 0)
(126.192 0 0)
(127.034 0 0)
(127.864 0 0)
(128.73 0 0)
(129.484 0 0)
(130.586 0 0)
(233.347 0 0)
(231.453 0 0)
(229.506 0 0)
(227.503 0 0)
(225.439 0 0)
(223.312 0 0)
(221.117 0 0)
(218.851 0 0)
(216.507 0 0)
(214.081 0 0)
(211.566 0 0)
(208.955 0 0)
(206.238 0 0)
(203.406 0 0)
(200.448 0 0)
(197.349 0 0)
(194.094 0 0)
(190.661 0 0)
(187.027 0 0)
(183.161 0 0)
(179.024 0 0)
(174.566 0 0)
(169.723 0 0)
(164.411 0 0)
(158.543 0 0)
(152.07 0 0)
(145.053 0 0)
(137.741 0 0)
(130.551 0 0)
(123.946 0 0)
(118.279 0 0)
(113.7 0 0)
(110.174 0 0)
(107.562 0 0)
(105.687 0 0)
(104.385 0 0)
(103.52 0 0)
(102.988 0 0)
(102.71 0 0)
(102.628 0 0)
(102.699 0 0)
(102.892 0 0)
(103.182 0 0)
(103.552 0 0)
(103.987 0 0)
(104.476 0 0)
(105.01 0 0)
(105.584 0 0)
(106.19 0 0)
(106.823 0 0)
(107.481 0 0)
(108.16 0 0)
(108.857 0 0)
(109.57 0 0)
(110.297 0 0)
(111.036 0 0)
(111.785 0 0)
(112.543 0 0)
(113.31 0 0)
(114.084 0 0)
(114.864 0 0)
(115.649 0 0)
(116.44 0 0)
(117.234 0 0)
(118.032 0 0)
(118.833 0 0)
(119.637 0 0)
(120.443 0 0)
(121.251 0 0)
(122.06 0 0)
(122.871 0 0)
(123.682 0 0)
(124.495 0 0)
(125.307 0 0)
(126.122 0 0)
(126.927 0 0)
(127.766 0 0)
(128.497 0 0)
(129.563 0 0)
(231.155 0 0)
(229.262 0 0)
(227.316 0 0)
(225.312 0 0)
(223.249 0 0)
(221.123 0 0)
(218.928 0 0)
(216.662 0 0)
(214.317 0 0)
(211.89 0 0)
(209.373 0 0)
(206.758 0 0)
(204.037 0 0)
(201.2 0 0)
(198.233 0 0)
(195.124 0 0)
(191.855 0 0)
(188.405 0 0)
(184.747 0 0)
(180.851 0 0)
(176.675 0 0)
(172.166 0 0)
(167.258 0 0)
(161.868 0 0)
(155.924 0 0)
(149.406 0 0)
(142.432 0 0)
(135.291 0 0)
(128.406 0 0)
(122.197 0 0)
(116.944 0 0)
(112.737 0 0)
(109.512 0 0)
(107.123 0 0)
(105.405 0 0)
(104.208 0 0)
(103.411 0 0)
(102.919 0 0)
(102.662 0 0)
(102.588 0 0)
(102.657 0 0)
(102.842 0 0)
(103.119 0 0)
(103.472 0 0)
(103.887 0 0)
(104.355 0 0)
(104.867 0 0)
(105.416 0 0)
(105.996 0 0)
(106.605 0 0)
(107.237 0 0)
(107.889 0 0)
(108.56 0 0)
(109.245 0 0)
(109.945 0 0)
(110.657 0 0)
(111.379 0 0)
(112.11 0 0)
(112.85 0 0)
(113.596 0 0)
(114.349 0 0)
(115.108 0 0)
(115.871 0 0)
(116.639 0 0)
(117.41 0 0)
(118.185 0 0)
(118.962 0 0)
(119.742 0 0)
(120.523 0 0)
(121.306 0 0)
(122.091 0 0)
(122.876 0 0)
(123.663 0 0)
(124.449 0 0)
(125.239 0 0)
(126.018 0 0)
(126.831 0 0)
(127.539 0 0)
(128.572 0 0)
(228.962 0 0)
(227.07 0 0)
(225.124 0 0)
(223.121 0 0)
(221.059 0 0)
(218.932 0 0)
(216.738 0 0)
(214.471 0 0)
(212.125 0 0)
(209.696 0 0)
(207.176 0 0)
(204.558 0 0)
(201.832 0 0)
(198.987 0 0)
(196.012 0 0)
(192.89 0 0)
(189.605 0 0)
(186.134 0 0)
(182.45 0 0)
(178.52 0 0)
(174.3 0 0)
(169.736 0 0)
(164.758 0 0)
(159.29 0 0)
(153.277 0 0)
(146.741 0 0)
(139.846 0 0)
(132.918 0 0)
(126.367 0 0)
(120.559 0 0)
(115.707 0 0)
(111.85 0 0)
(108.903 0 0)
(106.718 0 0)
(105.144 0 0)
(104.044 0 0)
(103.309 0 0)
(102.854 0 0)
(102.617 0 0)
(102.55 0 0)
(102.618 0 0)
(102.794 0 0)
(103.059 0 0)
(103.395 0 0)
(103.792 0 0)
(104.239 0 0)
(104.729 0 0)
(105.255 0 0)
(105.811 0 0)
(106.395 0 0)
(107.002 0 0)
(107.629 0 0)
(108.273 0 0)
(108.933 0 0)
(109.606 0 0)
(110.292 0 0)
(110.987 0 0)
(111.692 0 0)
(112.406 0 0)
(113.126 0 0)
(113.853 0 0)
(114.585 0 0)
(115.322 0 0)
(116.064 0 0)
(116.809 0 0)
(117.558 0 0)
(118.309 0 0)
(119.063 0 0)
(119.819 0 0)
(120.576 0 0)
(121.335 0 0)
(122.096 0 0)
(122.857 0 0)
(123.618 0 0)
(124.383 0 0)
(125.137 0 0)
(125.924 0 0)
(126.611 0 0)
(127.61 0 0)
(226.768 0 0)
(224.876 0 0)
(222.931 0 0)
(220.929 0 0)
(218.867 0 0)
(216.74 0 0)
(214.546 0 0)
(212.278 0 0)
(209.931 0 0)
(207.499 0 0)
(204.976 0 0)
(202.353 0 0)
(199.62 0 0)
(196.767 0 0)
(193.781 0 0)
(190.645 0 0)
(187.342 0 0)
(183.848 0 0)
(180.134 0 0)
(176.166 0 0)
(171.898 0 0)
(167.272 0 0)
(162.221 0 0)
(156.677 0 0)
(150.61 0 0)
(144.085 0 0)
(137.312 0 0)
(130.634 0 0)
(124.439 0 0)
(119.032 0 0)
(114.564 0 0)
(111.035 0 0)
(108.343 0 0)
(106.347 0 0)
(104.904 0 0)
(103.892 0 0)
(103.214 0 0)
(102.793 0 0)
(102.575 0 0)
(102.514 0 0)
(102.581 0 0)
(102.749 0 0)
(103.002 0 0)
(103.323 0 0)
(103.701 0 0)
(104.129 0 0)
(104.597 0 0)
(105.1 0 0)
(105.634 0 0)
(106.194 0 0)
(106.776 0 0)
(107.378 0 0)
(107.997 0 0)
(108.632 0 0)
(109.28 0 0)
(109.94 0 0)
(110.61 0 0)
(111.29 0 0)
(111.977 0 0)
(112.672 0 0)
(113.373 0 0)
(114.08 0 0)
(114.792 0 0)
(115.508 0 0)
(116.228 0 0)
(116.951 0 0)
(117.678 0 0)
(118.406 0 0)
(119.137 0 0)
(119.87 0 0)
(120.604 0 0)
(121.34 0 0)
(122.076 0 0)
(122.813 0 0)
(123.553 0 0)
(124.284 0 0)
(125.045 0 0)
(125.711 0 0)
(126.677 0 0)
(224.572 0 0)
(222.681 0 0)
(220.737 0 0)
(218.735 0 0)
(216.673 0 0)
(214.547 0 0)
(212.351 0 0)
(210.082 0 0)
(207.733 0 0)
(205.299 0 0)
(202.771 0 0)
(200.142 0 0)
(197.402 0 0)
(194.539 0 0)
(191.54 0 0)
(188.388 0 0)
(185.064 0 0)
(181.544 0 0)
(177.797 0 0)
(173.786 0 0)
(169.465 0 0)
(164.774 0 0)
(159.648 0 0)
(154.034 0 0)
(147.933 0 0)
(141.454 0 0)
(134.843 0 0)
(128.451 0 0)
(122.625 0 0)
(117.613 0 0)
(113.512 0 0)
(110.287 0 0)
(107.83 0 0)
(106.005 0 0)
(104.683 0 0)
(103.752 0 0)
(103.126 0 0)
(102.737 0 0)
(102.535 0 0)
(102.481 0 0)
(102.545 0 0)
(102.706 0 0)
(102.947 0 0)
(103.253 0 0)
(103.615 0 0)
(104.023 0 0)
(104.471 0 0)
(104.953 0 0)
(105.464 0 0)
(106 0 0)
(106.559 0 0)
(107.137 0 0)
(107.733 0 0)
(108.343 0 0)
(108.966 0 0)
(109.601 0 0)
(110.247 0 0)
(110.902 0 0)
(111.564 0 0)
(112.234 0 0)
(112.911 0 0)
(113.593 0 0)
(114.28 0 0)
(114.971 0 0)
(115.667 0 0)
(116.365 0 0)
(117.067 0 0)
(117.772 0 0)
(118.478 0 0)
(119.187 0 0)
(119.897 0 0)
(120.608 0 0)
(121.321 0 0)
(122.033 0 0)
(122.75 0 0)
(123.457 0 0)
(124.194 0 0)
(124.839 0 0)
(125.773 0 0)
(222.375 0 0)
(220.485 0 0)
(218.542 0 0)
(216.54 0 0)
(214.478 0 0)
(212.351 0 0)
(210.155 0 0)
(207.883 0 0)
(205.532 0 0)
(203.094 0 0)
(200.561 0 0)
(197.925 0 0)
(195.176 0 0)
(192.302 0 0)
(189.288 0 0)
(186.118 0 0)
(182.77 0 0)
(179.22 0 0)
(175.436 0 0)
(171.379 0 0)
(166.999 0 0)
(162.239 0 0)
(157.039 0 0)
(151.367 0 0)
(145.257 0 0)
(138.862 0 0)
(132.455 0 0)
(126.375 0 0)
(120.928 0 0)
(116.301 0 0)
(112.544 0 0)
(109.602 0 0)
(107.36 0 0)
(105.692 0 0)
(104.479 0 0)
(103.622 0 0)
(103.044 0 0)
(102.684 0 0)
(102.497 0 0)
(102.449 0 0)
(102.512 0 0)
(102.666 0 0)
(102.895 0 0)
(103.187 0 0)
(103.532 0 0)
(103.922 0 0)
(104.35 0 0)
(104.811 0 0)
(105.301 0 0)
(105.815 0 0)
(106.351 0 0)
(106.906 0 0)
(107.478 0 0)
(108.065 0 0)
(108.664 0 0)
(109.276 0 0)
(109.897 0 0)
(110.528 0 0)
(111.166 0 0)
(111.812 0 0)
(112.464 0 0)
(113.122 0 0)
(113.785 0 0)
(114.453 0 0)
(115.124 0 0)
(115.799 0 0)
(116.477 0 0)
(117.158 0 0)
(117.841 0 0)
(118.526 0 0)
(119.212 0 0)
(119.9 0 0)
(120.589 0 0)
(121.279 0 0)
(121.972 0 0)
(122.656 0 0)
(123.369 0 0)
(123.994 0 0)
(124.897 0 0)
(220.177 0 0)
(218.288 0 0)
(216.345 0 0)
(214.343 0 0)
(212.281 0 0)
(210.153 0 0)
(207.955 0 0)
(205.681 0 0)
(203.326 0 0)
(200.883 0 0)
(198.344 0 0)
(195.7 0 0)
(192.941 0 0)
(190.053 0 0)
(187.023 0 0)
(183.831 0 0)
(180.457 0 0)
(176.874 0 0)
(173.049 0 0)
(168.94 0 0)
(164.498 0 0)
(159.667 0 0)
(154.398 0 0)
(148.684 0 0)
(142.597 0 0)
(136.326 0 0)
(130.16 0 0)
(124.415 0 0)
(119.347 0 0)
(115.09 0 0)
(111.657 0 0)
(108.974 0 0)
(106.929 0 0)
(105.404 0 0)
(104.291 0 0)
(103.502 0 0)
(102.968 0 0)
(102.635 0 0)
(102.462 0 0)
(102.419 0 0)
(102.48 0 0)
(102.627 0 0)
(102.845 0 0)
(103.124 0 0)
(103.453 0 0)
(103.825 0 0)
(104.235 0 0)
(104.676 0 0)
(105.145 0 0)
(105.638 0 0)
(106.152 0 0)
(106.685 0 0)
(107.234 0 0)
(107.797 0 0)
(108.374 0 0)
(108.962 0 0)
(109.56 0 0)
(110.168 0 0)
(110.783 0 0)
(111.405 0 0)
(112.034 0 0)
(112.669 0 0)
(113.308 0 0)
(113.952 0 0)
(114.601 0 0)
(115.252 0 0)
(115.907 0 0)
(116.564 0 0)
(117.224 0 0)
(117.886 0 0)
(118.55 0 0)
(119.215 0 0)
(119.881 0 0)
(120.548 0 0)
(121.218 0 0)
(121.88 0 0)
(122.57 0 0)
(123.175 0 0)
(124.048 0 0)
(217.978 0 0)
(216.089 0 0)
(214.146 0 0)
(212.144 0 0)
(210.081 0 0)
(207.952 0 0)
(205.751 0 0)
(203.474 0 0)
(201.115 0 0)
(198.666 0 0)
(196.12 0 0)
(193.466 0 0)
(190.695 0 0)
(187.792 0 0)
(184.742 0 0)
(181.527 0 0)
(178.123 0 0)
(174.503 0 0)
(170.632 0 0)
(166.467 0 0)
(161.959 0 0)
(157.058 0 0)
(151.73 0 0)
(145.996 0 0)
(139.968 0 0)
(133.862 0 0)
(127.969 0 0)
(122.574 0 0)
(117.881 0 0)
(113.977 0 0)
(110.844 0 0)
(108.4 0 0)
(106.535 0 0)
(105.139 0 0)
(104.117 0 0)
(103.39 0 0)
(102.897 0 0)
(102.589 0 0)
(102.429 0 0)
(102.39 0 0)
(102.449 0 0)
(102.59 0 0)
(102.798 0 0)
(103.064 0 0)
(103.378 0 0)
(103.733 0 0)
(104.124 0 0)
(104.546 0 0)
(104.995 0 0)
(105.467 0 0)
(105.96 0 0)
(106.472 0 0)
(106.999 0 0)
(107.541 0 0)
(108.095 0 0)
(108.66 0 0)
(109.236 0 0)
(109.821 0 0)
(110.413 0 0)
(111.013 0 0)
(111.619 0 0)
(112.231 0 0)
(112.848 0 0)
(113.469 0 0)
(114.095 0 0)
(114.724 0 0)
(115.356 0 0)
(115.991 0 0)
(116.629 0 0)
(117.268 0 0)
(117.909 0 0)
(118.552 0 0)
(119.196 0 0)
(119.841 0 0)
(120.489 0 0)
(121.129 0 0)
(121.796 0 0)
(122.382 0 0)
(123.225 0 0)
(215.776 0 0)
(213.888 0 0)
(211.944 0 0)
(209.942 0 0)
(207.878 0 0)
(205.747 0 0)
(203.543 0 0)
(201.262 0 0)
(198.898 0 0)
(196.442 0 0)
(193.887 0 0)
(191.222 0 0)
(188.437 0 0)
(185.516 0 0)
(182.445 0 0)
(179.203 0 0)
(175.766 0 0)
(172.105 0 0)
(168.184 0 0)
(163.959 0 0)
(159.384 0 0)
(154.415 0 0)
(149.043 0 0)
(143.318 0 0)
(137.386 0 0)
(131.485 0 0)
(125.892 0 0)
(120.855 0 0)
(116.527 0 0)
(112.956 0 0)
(110.101 0 0)
(107.875 0 0)
(106.173 0 0)
(104.896 0 0)
(103.957 0 0)
(103.287 0 0)
(102.831 0 0)
(102.546 0 0)
(102.398 0 0)
(102.363 0 0)
(102.421 0 0)
(102.555 0 0)
(102.753 0 0)
(103.006 0 0)
(103.306 0 0)
(103.645 0 0)
(104.019 0 0)
(104.422 0 0)
(104.852 0 0)
(105.304 0 0)
(105.777 0 0)
(106.267 0 0)
(106.774 0 0)
(107.294 0 0)
(107.826 0 0)
(108.37 0 0)
(108.924 0 0)
(109.487 0 0)
(110.057 0 0)
(110.635 0 0)
(111.219 0 0)
(111.809 0 0)
(112.404 0 0)
(113.003 0 0)
(113.607 0 0)
(114.214 0 0)
(114.824 0 0)
(115.437 0 0)
(116.053 0 0)
(116.67 0 0)
(117.29 0 0)
(117.911 0 0)
(118.534 0 0)
(119.157 0 0)
(119.783 0 0)
(120.403 0 0)
(121.047 0 0)
(121.614 0 0)
(122.428 0 0)
(213.573 0 0)
(211.684 0 0)
(209.74 0 0)
(207.737 0 0)
(205.671 0 0)
(203.537 0 0)
(201.33 0 0)
(199.044 0 0)
(196.673 0 0)
(194.21 0 0)
(191.644 0 0)
(188.966 0 0)
(186.165 0 0)
(183.225 0 0)
(180.129 0 0)
(176.857 0 0)
(173.383 0 0)
(169.677 0 0)
(165.701 0 0)
(161.414 0 0)
(156.771 0 0)
(151.745 0 0)
(146.347 0 0)
(140.664 0 0)
(134.869 0 0)
(129.207 0 0)
(123.935 0 0)
(119.257 0 0)
(115.281 0 0)
(112.021 0 0)
(109.422 0 0)
(107.395 0 0)
(105.842 0 0)
(104.673 0 0)
(103.81 0 0)
(103.192 0 0)
(102.77 0 0)
(102.506 0 0)
(102.369 0 0)
(102.338 0 0)
(102.393 0 0)
(102.521 0 0)
(102.711 0 0)
(102.952 0 0)
(103.237 0 0)
(103.561 0 0)
(103.918 0 0)
(104.303 0 0)
(104.715 0 0)
(105.148 0 0)
(105.601 0 0)
(106.071 0 0)
(106.557 0 0)
(107.057 0 0)
(107.569 0 0)
(108.091 0 0)
(108.624 0 0)
(109.165 0 0)
(109.715 0 0)
(110.271 0 0)
(110.834 0 0)
(111.402 0 0)
(111.976 0 0)
(112.554 0 0)
(113.136 0 0)
(113.721 0 0)
(114.31 0 0)
(114.902 0 0)
(115.497 0 0)
(116.093 0 0)
(116.691 0 0)
(117.291 0 0)
(117.893 0 0)
(118.495 0 0)
(119.1 0 0)
(119.699 0 0)
(120.322 0 0)
(120.87 0 0)
(121.657 0 0)
(211.367 0 0)
(209.478 0 0)
(207.533 0 0)
(205.528 0 0)
(203.46 0 0)
(201.322 0 0)
(199.111 0 0)
(196.819 0 0)
(194.44 0 0)
(191.967 0 0)
(189.389 0 0)
(186.697 0 0)
(183.877 0 0)
(180.915 0 0)
(177.792 0 0)
(174.486 0 0)
(170.971 0 0)
(167.216 0 0)
(163.182 0 0)
(158.83 0 0)
(154.124 0 0)
(149.053 0 0)
(143.656 0 0)
(138.051 0 0)
(132.432 0 0)
(127.04 0 0)
(122.102 0 0)
(117.778 0 0)
(114.137 0 0)
(111.167 0 0)
(108.803 0 0)
(106.957 0 0)
(105.539 0 0)
(104.467 0 0)
(103.674 0 0)
(103.104 0 0)
(102.713 0 0)
(102.468 0 0)
(102.342 0 0)
(102.314 0 0)
(102.367 0 0)
(102.49 0 0)
(102.67 0 0)
(102.899 0 0)
(103.172 0 0)
(103.48 0 0)
(103.821 0 0)
(104.19 0 0)
(104.583 0 0)
(104.998 0 0)
(105.432 0 0)
(105.883 0 0)
(106.349 0 0)
(106.829 0 0)
(107.321 0 0)
(107.823 0 0)
(108.335 0 0)
(108.856 0 0)
(109.385 0 0)
(109.92 0 0)
(110.462 0 0)
(111.01 0 0)
(111.563 0 0)
(112.12 0 0)
(112.681 0 0)
(113.246 0 0)
(113.814 0 0)
(114.386 0 0)
(114.959 0 0)
(115.535 0 0)
(116.113 0 0)
(116.692 0 0)
(117.273 0 0)
(117.855 0 0)
(118.44 0 0)
(119.019 0 0)
(119.62 0 0)
(120.151 0 0)
(120.91 0 0)
(209.157 0 0)
(207.268 0 0)
(205.321 0 0)
(203.315 0 0)
(201.243 0 0)
(199.101 0 0)
(196.884 0 0)
(194.585 0 0)
(192.198 0 0)
(189.713 0 0)
(187.122 0 0)
(184.413 0 0)
(181.572 0 0)
(178.585 0 0)
(175.431 0 0)
(172.088 0 0)
(168.528 0 0)
(164.72 0 0)
(160.626 0 0)
(156.209 0 0)
(151.448 0 0)
(146.351 0 0)
(140.986 0 0)
(135.498 0 0)
(130.091 0 0)
(124.993 0 0)
(120.395 0 0)
(116.416 0 0)
(113.091 0 0)
(110.388 0 0)
(108.238 0 0)
(106.556 0 0)
(105.261 0 0)
(104.278 0 0)
(103.548 0 0)
(103.022 0 0)
(102.66 0 0)
(102.433 0 0)
(102.316 0 0)
(102.291 0 0)
(102.343 0 0)
(102.459 0 0)
(102.631 0 0)
(102.85 0 0)
(103.109 0 0)
(103.404 0 0)
(103.729 0 0)
(104.082 0 0)
(104.458 0 0)
(104.855 0 0)
(105.271 0 0)
(105.703 0 0)
(106.15 0 0)
(106.61 0 0)
(107.083 0 0)
(107.565 0 0)
(108.058 0 0)
(108.559 0 0)
(109.067 0 0)
(109.583 0 0)
(110.105 0 0)
(110.632 0 0)
(111.165 0 0)
(111.702 0 0)
(112.243 0 0)
(112.788 0 0)
(113.336 0 0)
(113.887 0 0)
(114.44 0 0)
(114.996 0 0)
(115.554 0 0)
(116.113 0 0)
(116.675 0 0)
(117.236 0 0)
(117.801 0 0)
(118.36 0 0)
(118.942 0 0)
(119.455 0 0)
(120.187 0 0)
(206.945 0 0)
(205.053 0 0)
(203.105 0 0)
(201.095 0 0)
(199.019 0 0)
(196.872 0 0)
(194.649 0 0)
(192.341 0 0)
(189.944 0 0)
(187.446 0 0)
(184.839 0 0)
(182.111 0 0)
(179.247 0 0)
(176.231 0 0)
(173.043 0 0)
(169.66 0 0)
(166.051 0 0)
(162.187 0 0)
(158.031 0 0)
(153.555 0 0)
(148.75 0 0)
(143.652 0 0)
(138.354 0 0)
(133.021 0 0)
(127.859 0 0)
(123.071 0 0)
(118.813 0 0)
(115.165 0 0)
(112.134 0 0)
(109.677 0 0)
(107.722 0 0)
(106.19 0 0)
(105.006 0 0)
(104.105 0 0)
(103.432 0 0)
(102.946 0 0)
(102.611 0 0)
(102.4 0 0)
(102.292 0 0)
(102.27 0 0)
(102.32 0 0)
(102.431 0 0)
(102.594 0 0)
(102.802 0 0)
(103.049 0 0)
(103.33 0 0)
(103.641 0 0)
(103.978 0 0)
(104.338 0 0)
(104.718 0 0)
(105.116 0 0)
(105.53 0 0)
(105.959 0 0)
(106.401 0 0)
(106.854 0 0)
(107.318 0 0)
(107.791 0 0)
(108.272 0 0)
(108.762 0 0)
(109.258 0 0)
(109.76 0 0)
(110.268 0 0)
(110.781 0 0)
(111.299 0 0)
(111.82 0 0)
(112.345 0 0)
(112.874 0 0)
(113.405 0 0)
(113.939 0 0)
(114.476 0 0)
(115.014 0 0)
(115.554 0 0)
(116.096 0 0)
(116.638 0 0)
(117.184 0 0)
(117.724 0 0)
(118.285 0 0)
(118.781 0 0)
(119.487 0 0)
(204.727 0 0)
(202.834 0 0)
(200.883 0 0)
(198.87 0 0)
(196.789 0 0)
(194.635 0 0)
(192.404 0 0)
(190.087 0 0)
(187.677 0 0)
(185.165 0 0)
(182.54 0 0)
(179.79 0 0)
(176.9 0 0)
(173.853 0 0)
(170.627 0 0)
(167.199 0 0)
(163.538 0 0)
(159.615 0 0)
(155.399 0 0)
(150.871 0 0)
(146.043 0 0)
(140.972 0 0)
(135.778 0 0)
(130.638 0 0)
(125.746 0 0)
(121.279 0 0)
(117.354 0 0)
(114.02 0 0)
(111.262 0 0)
(109.03 0 0)
(107.253 0 0)
(105.856 0 0)
(104.772 0 0)
(103.945 0 0)
(103.325 0 0)
(102.875 0 0)
(102.565 0 0)
(102.369 0 0)
(102.269 0 0)
(102.249 0 0)
(102.298 0 0)
(102.403 0 0)
(102.559 0 0)
(102.757 0 0)
(102.993 0 0)
(103.261 0 0)
(103.557 0 0)
(103.879 0 0)
(104.223 0 0)
(104.586 0 0)
(104.967 0 0)
(105.364 0 0)
(105.776 0 0)
(106.199 0 0)
(106.634 0 0)
(107.08 0 0)
(107.534 0 0)
(107.997 0 0)
(108.468 0 0)
(108.945 0 0)
(109.429 0 0)
(109.918 0 0)
(110.412 0 0)
(110.91 0 0)
(111.413 0 0)
(111.919 0 0)
(112.428 0 0)
(112.941 0 0)
(113.456 0 0)
(113.973 0 0)
(114.493 0 0)
(115.014 0 0)
(115.537 0 0)
(116.06 0 0)
(116.587 0 0)
(117.108 0 0)
(117.65 0 0)
(118.13 0 0)
(118.81 0 0)
(202.505 0 0)
(200.609 0 0)
(198.654 0 0)
(196.636 0 0)
(194.549 0 0)
(192.389 0 0)
(190.148 0 0)
(187.819 0 0)
(185.395 0 0)
(182.867 0 0)
(180.222 0 0)
(177.447 0 0)
(174.528 0 0)
(171.446 0 0)
(168.179 0 0)
(164.702 0 0)
(160.987 0 0)
(157.005 0 0)
(152.733 0 0)
(148.167 0 0)
(143.338 0 0)
(138.329 0 0)
(133.277 0 0)
(128.361 0 0)
(123.759 0 0)
(119.616 0 0)
(116.013 0 0)
(112.974 0 0)
(110.468 0 0)
(108.441 0 0)
(106.824 0 0)
(105.55 0 0)
(104.558 0 0)
(103.798 0 0)
(103.226 0 0)
(102.81 0 0)
(102.522 0 0)
(102.34 0 0)
(102.248 0 0)
(102.23 0 0)
(102.277 0 0)