/*--------------------------------*- C++ -*----------------------------------*\
| =========                 |                                                 |
| \\      /  F ield         | OpenFOAM: The Open Source CFD Toolbox           |
|  \\    /   O peration     | Version:  2206                                  |
|   \\  /    A nd           | Website:  www.openfoam.com                      |
|    \\/     M anipulation  |                                                 |
\*---------------------------------------------------------------------------*/
FoamFile
{
    version     2.0;
    format      ascii;
    arch        "LSB;label=32;scalar=64";
    class       volScalarField;
    location    "2.7";
    object      wave;
}
// * * * * * * * * * * * * * * * * * * * * * * * * * * * * * * * * * * * * * //

dimensions      [0 0 0 0 0 0 0];

internalField   nonuniform List<scalar> 
100
(
0.354388
0.20219
0.0449118
-0.113494
-0.269049
-0.417845
-0.556144
-0.680471
-0.787703
-0.875146
-0.940603
-0.982431
-0.999578
-0.991613
-0.958736
-0.901775
-0.822158
-0.721887
-0.603481
-0.469913
-0.324541
-0.171015
-0.0131933
0.14496
0.299472
0.44646
0.582232
0.703377
0.806852
0.890057
0.950902
0.987858
0.999996
0.987013
0.949234
0.887607
0.803683
0.699567
0.577878
0.44167
0.294367
0.139669
-0.0185384
-0.17628
-0.329593
-0.474625
-0.607734
-0.725576
-0.825189
-0.904072
-0.960243
-0.99229
-0.999408
-0.981419
-0.938775
-0.872547
-0.784398
-0.676544
-0.551693
-0.412982
-0.263897
-0.108181
0.0502515
0.207422
0.359382
0.502313
0.632625
0.747044
0.842696
0.917177
0.968617
0.995722
0.997814
0.974837
0.927371
0.856607
0.764324
0.652838
0.524952
0.383879
0.233161
0.0765853
-0.081914
-0.238355
-0.388809
-0.529495
-0.656878
-0.76776
-0.859353
-0.929358
-0.976015
-0.998153
-0.995214
-0.967274
-0.915034
-0.839806
-0.74348
-0.628476
-0.497684
-0.354388
)
;

boundaryField
{
    movingWall
    {
        type            calculated;
        value           uniform 0;
    }
    fixedWalls
    {
        type            calculated;
        value           uniform 0;
    }
    frontAndBack
    {
        type            empty;
    }
}


// ************************************************************************* //
