/*--------------------------------*- C++ -*----------------------------------*\
| =========                 |                                                 |
| \\      /  F ield         | OpenFOAM: The Open Source CFD Toolbox           |
|  \\    /   O peration     | Version:  2312                                  |
|   \\  /    A nd           | Website:  www.openfoam.com                      |
|    \\/     M anipulation  |                                                 |
\*---------------------------------------------------------------------------*/
FoamFile
{
    version     2.0;
    format      ascii;
    arch        "LSB;label=32;scalar=64";
    class       volVectorField;
    location    "0.701";
    object      U;
}
// * * * * * * * * * * * * * * * * * * * * * * * * * * * * * * * * * * * * * //

dimensions      [0 1 -1 0 0 0 0];

internalField   nonuniform List<vector> 
31205
(
(290.959 0 0)
(290.097 0 0)
(289.192 0 0)
(288.245 0 0)
(287.253 0 0)
(286.216 0 0)
(285.133 0 0)
(284.002 0 0)
(282.823 0 0)
(281.593 0 0)
(280.312 0 0)
(278.977 0 0)
(277.587 0 0)
(276.139 0 0)
(274.632 0 0)
(273.063 0 0)
(271.429 0 0)
(269.728 0 0)
(267.955 0 0)
(266.108 0 0)
(264.182 0 0)
(262.173 0 0)
(260.075 0 0)
(257.883 0 0)
(255.589 0 0)
(253.186 0 0)
(250.666 0 0)
(248.016 0 0)
(245.227 0 0)
(242.281 0 0)
(239.163 0 0)
(235.849 0 0)
(232.313 0 0)
(228.519 0 0)
(224.42 0 0)
(219.95 0 0)
(215.03 0 0)
(209.566 0 0)
(203.312 0 0)
(195.466 0 0)
(184.45 0 0)
(169.066 0 0)
(150.77 0 0)
(133.595 0 0)
(120.763 0 0)
(112.695 0 0)
(108.154 0 0)
(105.788 0 0)
(104.677 0 0)
(104.289 0 0)
(104.332 0 0)
(104.647 0 0)
(105.143 0 0)
(105.764 0 0)
(106.476 0 0)
(107.257 0 0)
(108.091 0 0)
(108.967 0 0)
(109.877 0 0)
(110.814 0 0)
(111.774 0 0)
(112.753 0 0)
(113.748 0 0)
(114.756 0 0)
(115.775 0 0)
(116.803 0 0)
(117.839 0 0)
(118.882 0 0)
(119.93 0 0)
(120.983 0 0)
(122.04 0 0)
(123.1 0 0)
(124.163 0 0)
(125.226 0 0)
(126.297 0 0)
(127.351 0 0)
(128.458 0 0)
(129.408 0 0)
(130.841 0 0)
(290.041 0 0)
(289.162 0 0)
(288.243 0 0)
(287.282 0 0)
(286.278 0 0)
(285.232 0 0)
(284.14 0 0)
(283.003 0 0)
(281.818 0 0)
(280.586 0 0)
(279.303 0 0)
(277.969 0 0)
(276.581 0 0)
(275.138 0 0)
(273.637 0 0)
(272.076 0 0)
(270.452 0 0)
(268.763 0 0)
(267.006 0 0)
(265.176 0 0)
(263.269 0 0)
(261.282 0 0)
(259.21 0 0)
(257.046 0 0)
(254.783 0 0)
(252.416 0 0)
(249.935 0 0)
(247.329 0 0)
(244.588 0 0)
(241.697 0 0)
(238.639 0 0)
(235.394 0 0)
(231.936 0 0)
(228.232 0 0)
(224.237 0 0)
(219.889 0 0)
(215.114 0 0)
(209.824 0 0)
(203.823 0 0)
(196.453 0 0)
(186.277 0 0)
(171.888 0 0)
(154.103 0 0)
(136.581 0 0)
(122.899 0 0)
(114.003 0 0)
(108.872 0 0)
(106.132 0 0)
(104.786 0 0)
(104.242 0 0)
(104.175 0 0)
(104.405 0 0)
(104.829 0 0)
(105.389 0 0)
(106.046 0 0)
(106.775 0 0)
(107.561 0 0)
(108.391 0 0)
(109.257 0 0)
(110.152 0 0)
(111.071 0 0)
(112.009 0 0)
(112.964 0 0)
(113.933 0 0)
(114.914 0 0)
(115.904 0 0)
(116.904 0 0)
(117.91 0 0)
(118.922 0 0)
(119.939 0 0)
(120.961 0 0)
(121.986 0 0)
(123.015 0 0)
(124.044 0 0)
(125.08 0 0)
(126.102 0 0)
(127.174 0 0)
(128.096 0 0)
(129.481 0 0)
(289.057 0 0)
(288.162 0 0)
(287.228 0 0)
(286.254 0 0)
(285.239 0 0)
(284.182 0 0)
(283.082 0 0)
(281.938 0 0)
(280.749 0 0)
(279.512 0 0)
(278.228 0 0)
(276.893 0 0)
(275.507 0 0)
(274.067 0 0)
(272.571 0 0)
(271.017 0 0)
(269.402 0 0)
(267.724 0 0)
(265.979 0 0)
(264.164 0 0)
(262.275 0 0)
(260.308 0 0)
(258.257 0 0)
(256.118 0 0)
(253.884 0 0)
(251.548 0 0)
(249.101 0 0)
(246.535 0 0)
(243.837 0 0)
(240.994 0 0)
(237.99 0 0)
(234.806 0 0)
(231.416 0 0)
(227.789 0 0)
(223.884 0 0)
(219.643 0 0)
(214.993 0 0)
(209.85 0 0)
(204.051 0 0)
(197.044 0 0)
(187.531 0 0)
(174.014 0 0)
(156.817 0 0)
(139.181 0 0)
(124.862 0 0)
(115.259 0 0)
(109.59 0 0)
(106.497 0 0)
(104.926 0 0)
(104.234 0 0)
(104.059 0 0)
(104.206 0 0)
(104.562 0 0)
(105.062 0 0)
(105.665 0 0)
(106.344 0 0)
(107.083 0 0)
(107.868 0 0)
(108.691 0 0)
(109.544 0 0)
(110.422 0 0)
(111.321 0 0)
(112.237 0 0)
(113.168 0 0)
(114.111 0 0)
(115.065 0 0)
(116.028 0 0)
(116.998 0 0)
(117.975 0 0)
(118.957 0 0)
(119.945 0 0)
(120.935 0 0)
(121.93 0 0)
(122.926 0 0)
(123.929 0 0)
(124.918 0 0)
(125.955 0 0)
(126.85 0 0)
(128.186 0 0)
(288.035 0 0)
(287.125 0 0)
(286.178 0 0)
(285.192 0 0)
(284.166 0 0)
(283.1 0 0)
(281.993 0 0)
(280.843 0 0)
(279.649 0 0)
(278.409 0 0)
(277.123 0 0)
(275.788 0 0)
(274.404 0 0)
(272.967 0 0)
(271.476 0 0)
(269.928 0 0)
(268.322 0 0)
(266.654 0 0)
(264.921 0 0)
(263.121 0 0)
(261.248 0 0)
(259.299 0 0)
(257.27 0 0)
(255.155 0 0)
(252.947 0 0)
(250.64 0 0)
(248.226 0 0)
(245.696 0 0)
(243.038 0 0)
(240.24 0 0)
(237.286 0 0)
(234.157 0 0)
(230.83 0 0)
(227.275 0 0)
(223.452 0 0)
(219.307 0 0)
(214.77 0 0)
(209.76 0 0)
(204.135 0 0)
(197.425 0 0)
(188.462 0 0)
(175.721 0 0)
(159.139 0 0)
(141.534 0 0)
(126.722 0 0)
(116.49 0 0)
(110.316 0 0)
(106.884 0 0)
(105.094 0 0)
(104.255 0 0)
(103.976 0 0)
(104.042 0 0)
(104.331 0 0)
(104.773 0 0)
(105.323 0 0)
(105.954 0 0)
(106.647 0 0)
(107.389 0 0)
(108.169 0 0)
(108.981 0 0)
(109.819 0 0)
(110.679 0 0)
(111.558 0 0)
(112.451 0 0)
(113.358 0 0)
(114.276 0 0)
(115.203 0 0)
(116.139 0 0)
(117.081 0 0)
(118.029 0 0)
(118.982 0 0)
(119.94 0 0)
(120.901 0 0)
(121.864 0 0)
(122.834 0 0)
(123.792 0 0)
(124.795 0 0)
(125.663 0 0)
(126.954 0 0)
(286.989 0 0)
(286.066 0 0)
(285.107 0 0)
(284.11 0 0)
(283.076 0 0)
(282.002 0 0)
(280.889 0 0)
(279.734 0 0)
(278.536 0 0)
(277.295 0 0)
(276.008 0 0)
(274.674 0 0)
(273.291 0 0)
(271.859 0 0)
(270.373 0 0)
(268.833 0 0)
(267.235 0 0)
(265.578 0 0)
(263.858 0 0)
(262.072 0 0)
(260.215 0 0)
(258.285 0 0)
(256.277 0 0)
(254.185 0 0)
(252.003 0 0)
(249.725 0 0)
(247.343 0 0)
(244.848 0 0)
(242.229 0 0)
(239.475 0 0)
(236.569 0 0)
(233.494 0 0)
(230.227 0 0)
(226.741 0 0)
(222.996 0 0)
(218.943 0 0)
(214.513 0 0)
(209.629 0 0)
(204.165 0 0)
(197.719 0 0)
(189.246 0 0)
(177.23 0 0)
(161.293 0 0)
(143.816 0 0)
(128.595 0 0)
(117.768 0 0)
(111.09 0 0)
(107.31 0 0)
(105.294 0 0)
(104.305 0 0)
(103.92 0 0)
(103.905 0 0)
(104.127 0 0)
(104.511 0 0)
(105.01 0 0)
(105.593 0 0)
(106.241 0 0)
(106.939 0 0)
(107.678 0 0)
(108.451 0 0)
(109.25 0 0)
(110.072 0 0)
(110.913 0 0)
(111.77 0 0)
(112.641 0 0)
(113.524 0 0)
(114.416 0 0)
(115.317 0 0)
(116.226 0 0)
(117.141 0 0)
(118.061 0 0)
(118.985 0 0)
(119.914 0 0)
(120.845 0 0)
(121.783 0 0)
(122.709 0 0)
(123.68 0 0)
(124.521 0 0)
(125.769 0 0)
(285.925 0 0)
(284.991 0 0)
(284.022 0 0)
(283.017 0 0)
(281.975 0 0)
(280.896 0 0)
(279.777 0 0)
(278.619 0 0)
(277.419 0 0)
(276.176 0 0)
(274.89 0 0)
(273.558 0 0)
(272.179 0 0)
(270.751 0 0)
(269.272 0 0)
(267.74 0 0)
(266.152 0 0)
(264.506 0 0)
(262.799 0 0)
(261.027 0 0)
(259.188 0 0)
(257.277 0 0)
(255.29 0 0)
(253.221 0 0)
(251.065 0 0)
(248.816 0 0)
(246.466 0 0)
(244.006 0 0)
(241.426 0 0)
(238.714 0 0)
(235.856 0 0)
(232.835 0 0)
(229.627 0 0)
(226.208 0 0)
(222.54 0 0)
(218.576 0 0)
(214.251 0 0)
(209.489 0 0)
(204.178 0 0)
(197.976 0 0)
(189.952 0 0)
(178.633 0 0)
(163.373 0 0)
(146.112 0 0)
(130.548 0 0)
(119.138 0 0)
(111.937 0 0)
(107.789 0 0)
(105.533 0 0)
(104.386 0 0)
(103.891 0 0)
(103.792 0 0)
(103.947 0 0)
(104.273 0 0)
(104.72 0 0)
(105.256 0 0)
(105.859 0 0)
(106.515 0 0)
(107.214 0 0)
(107.947 0 0)
(108.708 0 0)
(109.493 0 0)
(110.297 0 0)
(111.119 0 0)
(111.954 0 0)
(112.802 0 0)
(113.661 0 0)
(114.528 0 0)
(115.403 0 0)
(116.285 0 0)
(117.173 0 0)
(118.065 0 0)
(118.962 0 0)
(119.862 0 0)
(120.768 0 0)
(121.664 0 0)
(122.603 0 0)
(123.417 0 0)
(124.624 0 0)
(284.848 0 0)
(283.905 0 0)
(282.928 0 0)
(281.915 0 0)
(280.868 0 0)
(279.783 0 0)
(278.661 0 0)
(277.501 0 0)
(276.3 0 0)
(275.058 0 0)
(273.773 0 0)
(272.444 0 0)
(271.07 0 0)
(269.647 0 0)
(268.176 0 0)
(266.652 0 0)
(265.075 0 0)
(263.441 0 0)
(261.747 0 0)
(259.992 0 0)
(258.17 0 0)
(256.278 0 0)
(254.312 0 0)
(252.268 0 0)
(250.138 0 0)
(247.918 0 0)
(245.6 0 0)
(243.175 0 0)
(240.634 0 0)
(237.965 0 0)
(235.154 0 0)
(232.185 0 0)
(229.037 0 0)
(225.684 0 0)
(222.092 0 0)
(218.215 0 0)
(213.992 0 0)
(209.351 0 0)
(204.188 0 0)
(198.213 0 0)
(190.607 0 0)
(179.96 0 0)
(165.408 0 0)
(148.447 0 0)
(132.607 0 0)
(120.623 0 0)
(112.877 0 0)
(108.334 0 0)
(105.82 0 0)
(104.503 0 0)
(103.89 0 0)
(103.705 0 0)
(103.791 0 0)
(104.058 0 0)
(104.453 0 0)
(104.941 0 0)
(105.5 0 0)
(106.114 0 0)
(106.773 0 0)
(107.467 0 0)
(108.19 0 0)
(108.938 0 0)
(109.707 0 0)
(110.494 0 0)
(111.295 0 0)
(112.109 0 0)
(112.934 0 0)
(113.768 0 0)
(114.611 0 0)
(115.461 0 0)
(116.316 0 0)
(117.177 0 0)
(118.043 0 0)
(118.911 0 0)
(119.787 0 0)
(120.653 0 0)
(121.561 0 0)
(122.348 0 0)
(123.515 0 0)
(283.76 0 0)
(282.809 0 0)
(281.825 0 0)
(280.807 0 0)
(279.755 0 0)
(278.667 0 0)
(277.543 0 0)
(276.381 0 0)
(275.181 0 0)
(273.94 0 0)
(272.659 0 0)
(271.334 0 0)
(269.965 0 0)
(268.549 0 0)
(267.086 0 0)
(265.572 0 0)
(264.006 0 0)
(262.384 0 0)
(260.705 0 0)
(258.966 0 0)
(257.162 0 0)
(255.29 0 0)
(253.347 0 0)
(251.326 0 0)
(249.223 0 0)
(247.032 0 0)
(244.746 0 0)
(242.357 0 0)
(239.854 0 0)
(237.228 0 0)
(234.465 0 0)
(231.548 0 0)
(228.458 0 0)
(225.17 0 0)
(221.653 0 0)
(217.862 0 0)
(213.74 0 0)
(209.217 0 0)
(204.197 0 0)
(198.435 0 0)
(191.218 0 0)
(181.216 0 0)
(167.397 0 0)
(150.82 0 0)
(134.778 0 0)
(122.236 0 0)
(113.921 0 0)
(108.954 0 0)
(106.158 0 0)
(104.658 0 0)
(103.921 0 0)
(103.644 0 0)
(103.658 0 0)
(103.866 0 0)
(104.208 0 0)
(104.649 0 0)
(105.164 0 0)
(105.736 0 0)
(106.355 0 0)
(107.011 0 0)
(107.697 0 0)
(108.409 0 0)
(109.143 0 0)
(109.894 0 0)
(110.662 0 0)
(111.442 0 0)
(112.235 0 0)
(113.037 0 0)
(113.847 0 0)
(114.665 0 0)
(115.49 0 0)
(116.32 0 0)
(117.155 0 0)
(117.993 0 0)
(118.839 0 0)
(119.675 0 0)
(120.552 0 0)
(121.314 0 0)
(122.441 0 0)
(282.663 0 0)
(281.705 0 0)
(280.716 0 0)
(279.694 0 0)
(278.638 0 0)
(277.549 0 0)
(276.424 0 0)
(275.262 0 0)
(274.063 0 0)
(272.825 0 0)
(271.547 0 0)
(270.228 0 0)
(268.865 0 0)
(267.457 0 0)
(266.002 0 0)
(264.499 0 0)
(262.945 0 0)
(261.337 0 0)
(259.673 0 0)
(257.95 0 0)
(256.165 0 0)
(254.313 0 0)
(252.392 0 0)
(250.396 0 0)
(248.321 0 0)
(246.159 0 0)
(243.905 0 0)
(241.551 0 0)
(239.087 0 0)
(236.504 0 0)
(233.787 0 0)
(230.922 0 0)
(227.89 0 0)
(224.667 0 0)
(221.223 0 0)
(217.518 0 0)
(213.495 0 0)
(209.087 0 0)
(204.207 0 0)
(198.646 0 0)
(191.788 0 0)
(182.402 0 0)
(169.332 0 0)
(153.22 0 0)
(137.06 0 0)
(123.985 0 0)
(115.08 0 0)
(109.656 0 0)
(106.554 0 0)
(104.855 0 0)
(103.984 0 0)
(103.611 0 0)
(103.551 0 0)
(103.697 0 0)
(103.986 0 0)
(104.379 0 0)
(104.85 0 0)
(105.381 0 0)
(105.96 0 0)
(106.578 0 0)
(107.228 0 0)
(107.904 0 0)
(108.603 0 0)
(109.321 0 0)
(110.055 0 0)
(110.803 0 0)
(111.563 0 0)
(112.333 0 0)
(113.112 0 0)
(113.899 0 0)
(114.693 0 0)
(115.493 0 0)
(116.298 0 0)
(117.106 0 0)
(117.922 0 0)
(118.73 0 0)
(119.577 0 0)
(120.313 0 0)
(121.401 0 0)
(281.557 0 0)
(280.594 0 0)
(279.601 0 0)
(278.576 0 0)
(277.519 0 0)
(276.429 0 0)
(275.304 0 0)
(274.144 0 0)
(272.947 0 0)
(271.713 0 0)
(270.44 0 0)
(269.126 0 0)
(267.771 0 0)
(266.371 0 0)
(264.926 0 0)
(263.434 0 0)
(261.892 0 0)
(260.299 0 0)
(258.65 0 0)
(256.945 0 0)
(255.178 0 0)
(253.348 0 0)
(251.449 0 0)
(249.478 0 0)
(247.43 0 0)
(245.298 0 0)
(243.077 0 0)
(240.758 0 0)
(238.333 0 0)
(235.792 0 0)
(233.122 0 0)
(230.308 0 0)
(227.333 0 0)
(224.175 0 0)
(220.803 0 0)
(217.181 0 0)
(213.255 0 0)
(208.961 0 0)
(204.217 0 0)
(198.845 0 0)
(192.319 0 0)
(183.514 0 0)
(171.2 0 0)
(155.63 0 0)
(139.444 0 0)
(125.874 0 0)
(116.362 0 0)
(110.449 0 0)
(107.013 0 0)
(105.098 0 0)
(104.082 0 0)
(103.607 0 0)
(103.469 0 0)
(103.552 0 0)
(103.787 0 0)
(104.132 0 0)
(104.558 0 0)
(105.048 0 0)
(105.588 0 0)
(106.168 0 0)
(106.782 0 0)
(107.423 0 0)
(108.088 0 0)
(108.772 0 0)
(109.473 0 0)
(110.189 0 0)
(110.917 0 0)
(111.656 0 0)
(112.405 0 0)
(113.161 0 0)
(113.925 0 0)
(114.695 0 0)
(115.471 0 0)
(116.25 0 0)
(117.037 0 0)
(117.817 0 0)
(118.634 0 0)
(119.345 0 0)
(120.396 0 0)
(280.445 0 0)
(279.479 0 0)
(278.483 0 0)
(277.457 0 0)
(276.399 0 0)
(275.309 0 0)
(274.185 0 0)
(273.028 0 0)
(271.835 0 0)
(270.605 0 0)
(269.337 0 0)
(268.03 0 0)
(266.683 0 0)
(265.292 0 0)
(263.858 0 0)
(262.378 0 0)
(260.849 0 0)
(259.27 0 0)
(257.638 0 0)
(255.95 0 0)
(254.203 0 0)
(252.394 0 0)
(250.518 0 0)
(248.572 0 0)
(246.551 0 0)
(244.449 0 0)
(242.26 0 0)
(239.977 0 0)
(237.59 0 0)
(235.091 0 0)
(232.468 0 0)
(229.706 0 0)
(226.787 0 0)
(223.692 0 0)
(220.392 0 0)
(216.852 0 0)
(213.021 0 0)
(208.839 0 0)
(204.227 0 0)
(199.034 0 0)
(192.814 0 0)
(184.555 0 0)
(172.991 0 0)
(158.032 0 0)
(141.919 0 0)
(127.904 0 0)
(117.776 0 0)
(111.341 0 0)
(107.542 0 0)
(105.389 0 0)
(104.217 0 0)
(103.633 0 0)
(103.414 0 0)
(103.431 0 0)
(103.611 0 0)
(103.907 0 0)
(104.289 0 0)
(104.738 0 0)
(105.238 0 0)
(105.782 0 0)
(106.359 0 0)
(106.966 0 0)
(107.597 0 0)
(108.248 0 0)
(108.917 0 0)
(109.601 0 0)
(110.298 0 0)
(111.006 0 0)
(111.725 0 0)
(112.451 0 0)
(113.186 0 0)
(113.927 0 0)
(114.673 0 0)
(115.424 0 0)
(116.183 0 0)
(116.934 0 0)
(117.723 0 0)
(118.41 0 0)
(119.423 0 0)
(279.328 0 0)
(278.359 0 0)
(277.362 0 0)
(276.335 0 0)
(275.278 0 0)
(274.189 0 0)
(273.068 0 0)
(271.914 0 0)
(270.725 0 0)
(269.501 0 0)
(268.24 0 0)
(266.94 0 0)
(265.601 0 0)
(264.221 0 0)
(262.798 0 0)
(261.33 0 0)
(259.815 0 0)
(258.251 0 0)
(256.636 0 0)
(254.966 0 0)
(253.239 0 0)
(251.451 0 0)
(249.599 0 0)
(247.678 0 0)
(245.685 0 0)
(243.613 0 0)
(241.456 0 0)
(239.208 0 0)
(236.86 0 0)
(234.403 0 0)
(231.826 0 0)
(229.114 0 0)
(226.252 0 0)
(223.219 0 0)
(219.99 0 0)
(216.53 0 0)
(212.793 0 0)
(208.72 0 0)
(204.237 0 0)
(199.215 0 0)
(193.276 0 0)
(185.524 0 0)
(174.699 0 0)
(160.409 0 0)
(144.472 0 0)
(130.076 0 0)
(119.331 0 0)
(112.342 0 0)
(108.147 0 0)
(105.735 0 0)
(104.392 0 0)
(103.691 0 0)
(103.385 0 0)
(103.335 0 0)
(103.458 0 0)
(103.705 0 0)
(104.042 0 0)
(104.449 0 0)
(104.911 0 0)
(105.417 0 0)
(105.96 0 0)
(106.532 0 0)
(107.129 0 0)
(107.748 0 0)
(108.385 0 0)
(109.038 0 0)
(109.705 0 0)
(110.383 0 0)
(111.071 0 0)
(111.769 0 0)
(112.474 0 0)
(113.186 0 0)
(113.905 0 0)
(114.628 0 0)
(115.359 0 0)
(116.083 0 0)
(116.843 0 0)
(117.506 0 0)
(118.483 0 0)
(278.208 0 0)
(277.238 0 0)
(276.24 0 0)
(275.214 0 0)
(274.158 0 0)
(273.072 0 0)
(271.954 0 0)
(270.804 0 0)
(269.62 0 0)
(268.402 0 0)
(267.148 0 0)
(265.857 0 0)
(264.528 0 0)
(263.158 0 0)
(261.747 0 0)
(260.292 0 0)
(258.791 0 0)
(257.242 0 0)
(255.644 0 0)
(253.993 0 0)
(252.286 0 0)
(250.52 0 0)
(248.691 0 0)
(246.797 0 0)
(244.831 0 0)
(242.789 0 0)
(240.664 0 0)
(238.451 0 0)
(236.142 0 0)
(233.727 0 0)
(231.195 0 0)
(228.534 0 0)
(225.727 0 0)
(222.756 0 0)
(219.596 0 0)
(216.215 0 0)
(212.57 0 0)
(208.604 0 0)
(204.247 0 0)
(199.387 0 0)
(193.707 0 0)
(186.424 0 0)
(176.315 0 0)
(162.742 0 0)
(147.086 0 0)
(132.387 0 0)
(121.036 0 0)
(113.461 0 0)
(108.836 0 0)
(106.139 0 0)
(104.61 0 0)
(103.783 0 0)
(103.386 0 0)
(103.265 0 0)
(103.329 0 0)
(103.525 0 0)
(103.818 0 0)
(104.183 0 0)
(104.606 0 0)
(105.076 0 0)
(105.583 0 0)
(106.121 0 0)
(106.686 0 0)
(107.272 0 0)
(107.878 0 0)
(108.5 0 0)
(109.137 0 0)
(109.785 0 0)
(110.444 0 0)
(111.113 0 0)
(111.79 0 0)
(112.474 0 0)
(113.165 0 0)
(113.86 0 0)
(114.564 0 0)
(115.262 0 0)
(115.994 0 0)
(116.634 0 0)
(117.575 0 0)
(277.085 0 0)
(276.115 0 0)
(275.118 0 0)
(274.093 0 0)
(273.04 0 0)
(271.957 0 0)
(270.843 0 0)
(269.698 0 0)
(268.52 0 0)
(267.309 0 0)
(266.063 0 0)
(264.781 0 0)
(263.462 0 0)
(262.103 0 0)
(260.704 0 0)
(259.263 0 0)
(257.777 0 0)
(256.244 0 0)
(254.663 0 0)
(253.031 0 0)
(251.344 0 0)
(249.6 0 0)
(247.796 0 0)
(245.927 0 0)
(243.989 0 0)
(241.977 0 0)
(239.885 0 0)
(237.707 0 0)
(235.436 0 0)
(233.062 0 0)
(230.576 0 0)
(227.964 0 0)
(225.213 0 0)
(222.303 0 0)
(219.211 0 0)
(215.908 0 0)
(212.352 0 0)
(208.491 0 0)
(204.257 0 0)
(199.552 0 0)
(194.112 0 0)
(187.259 0 0)
(177.837 0 0)
(165.015 0 0)
(149.743 0 0)
(134.833 0 0)
(122.896 0 0)
(114.711 0 0)
(109.619 0 0)
(106.608 0 0)
(104.875 0 0)
(103.91 0 0)
(103.415 0 0)
(103.22 0 0)
(103.224 0 0)
(103.369 0 0)
(103.615 0 0)
(103.939 0 0)
(104.324 0 0)
(104.756 0 0)
(105.228 0 0)
(105.733 0 0)
(106.265 0 0)
(106.82 0 0)
(107.395 0 0)
(107.987 0 0)
(108.593 0 0)
(109.213 0 0)
(109.844 0 0)
(110.484 0 0)
(111.133 0 0)
(111.79 0 0)
(112.453 0 0)
(113.122 0 0)
(113.798 0 0)
(114.47 0 0)
(115.175 0 0)
(115.792 0 0)
(116.698 0 0)
(275.961 0 0)
(274.992 0 0)
(273.997 0 0)
(272.974 0 0)
(271.924 0 0)
(270.845 0 0)
(269.736 0 0)
(268.597 0 0)
(267.426 0 0)
(266.223 0 0)
(264.986 0 0)
(263.713 0 0)
(262.404 0 0)
(261.057 0 0)
(259.671 0 0)
(258.243 0 0)
(256.773 0 0)
(255.257 0 0)
(253.693 0 0)
(252.08 0 0)
(250.414 0 0)
(248.693 0 0)
(246.912 0 0)
(245.069 0 0)
(243.159 0 0)
(241.177 0 0)
(239.118 0 0)
(236.975 0 0)
(234.742 0 0)
(232.409 0 0)
(229.968 0 0)
(227.406 0 0)
(224.709 0 0)
(221.859 0 0)
(218.835 0 0)
(215.608 0 0)
(212.14 0 0)
(208.38 0 0)
(204.267 0 0)
(199.71 0 0)
(194.491 0 0)
(188.032 0 0)
(179.261 0 0)
(167.212 0 0)
(152.422 0 0)
(137.404 0 0)
(124.92 0 0)
(116.102 0 0)
(110.506 0 0)
(107.149 0 0)
(105.191 0 0)
(104.076 0 0)
(103.476 0 0)
(103.202 0 0)
(103.144 0 0)
(103.235 0 0)
(103.435 0 0)
(103.717 0 0)
(104.063 0 0)
(104.459 0 0)
(104.896 0 0)
(105.367 0 0)
(105.867 0 0)
(106.391 0 0)
(106.935 0 0)
(107.497 0 0)
(108.075 0 0)
(108.666 0 0)
(109.268 0 0)
(109.881 0 0)
(110.502 0 0)
(111.132 0 0)
(111.769 0 0)
(112.411 0 0)
(113.061 0 0)
(113.707 0 0)
(114.385 0 0)
(114.98 0 0)
(115.852 0 0)
(274.838 0 0)
(273.87 0 0)
(272.877 0 0)
(271.858 0 0)
(270.812 0 0)
(269.738 0 0)
(268.635 0 0)
(267.502 0 0)
(266.339 0 0)
(265.144 0 0)
(263.916 0 0)
(262.653 0 0)
(261.356 0 0)
(260.021 0 0)
(258.648 0 0)
(257.235 0 0)
(255.779 0 0)
(254.28 0 0)
(252.735 0 0)
(251.141 0 0)
(249.496 0 0)
(247.797 0 0)
(246.041 0 0)
(244.224 0 0)
(242.342 0 0)
(240.39 0 0)
(238.363 0 0)
(236.255 0 0)
(234.06 0 0)
(231.768 0 0)
(229.372 0 0)
(226.858 0 0)
(224.215 0 0)
(221.424 0 0)
(218.466 0 0)
(215.314 0 0)
(211.932 0 0)
(208.273 0 0)
(204.277 0 0)
(199.863 0 0)
(194.849 0 0)
(188.749 0 0)
(180.588 0 0)
(169.319 0 0)
(155.101 0 0)
(140.088 0 0)
(127.109 0 0)
(117.646 0 0)
(111.507 0 0)
(107.771 0 0)
(105.563 0 0)
(104.284 0 0)
(103.571 0 0)
(103.213 0 0)
(103.089 0 0)
(103.126 0 0)
(103.278 0 0)
(103.518 0 0)
(103.824 0 0)
(104.183 0 0)
(104.586 0 0)
(105.024 0 0)
(105.492 0 0)
(105.985 0 0)
(106.499 0 0)
(107.032 0 0)
(107.58 0 0)
(108.143 0 0)
(108.718 0 0)
(109.303 0 0)
(109.898 0 0)
(110.501 0 0)
(111.111 0 0)
(111.727 0 0)
(112.352 0 0)
(112.972 0 0)
(113.625 0 0)
(114.197 0 0)
(115.035 0 0)
(273.715 0 0)
(272.75 0 0)
(271.761 0 0)
(270.746 0 0)
(269.704 0 0)
(268.636 0 0)
(267.539 0 0)
(266.414 0 0)
(265.258 0 0)
(264.072 0 0)
(262.854 0 0)
(261.602 0 0)
(260.316 0 0)
(258.994 0 0)
(257.635 0 0)
(256.236 0 0)
(254.797 0 0)
(253.315 0 0)
(251.788 0 0)
(250.214 0 0)
(248.59 0 0)
(246.914 0 0)
(245.182 0 0)
(243.391 0 0)
(241.537 0 0)
(239.615 0 0)
(237.62 0 0)
(235.547 0 0)
(233.389 0 0)
(231.139 0 0)
(228.786 0 0)
(226.321 0 0)
(223.731 0 0)
(220.999 0 0)
(218.106 0 0)
(215.027 0 0)
(211.73 0 0)
(208.168 0 0)
(204.287 0 0)
(200.011 0 0)
(195.188 0 0)
(189.413 0 0)
(181.818 0 0)
(171.322 0 0)
(157.755 0 0)
(142.868 0 0)
(129.465 0 0)
(119.355 0 0)
(112.635 0 0)
(108.481 0 0)
(105.997 0 0)
(104.537 0 0)
(103.7 0 0)
(103.253 0 0)
(103.06 0 0)
(103.04 0 0)
(103.144 0 0)
(103.34 0 0)
(103.607 0 0)
(103.93 0 0)
(104.298 0 0)
(104.703 0 0)
(105.139 0 0)
(105.601 0 0)
(106.086 0 0)
(106.589 0 0)
(107.11 0 0)
(107.644 0 0)
(108.192 0 0)
(108.75 0 0)
(109.318 0 0)
(109.895 0 0)
(110.48 0 0)
(111.07 0 0)
(111.67 0 0)
(112.266 0 0)
(112.892 0 0)
(113.443 0 0)
(114.249 0 0)
(272.594 0 0)
(271.633 0 0)
(270.647 0 0)
(269.637 0 0)
(268.601 0 0)
(267.539 0 0)
(266.45 0 0)
(265.332 0 0)
(264.185 0 0)
(263.008 0 0)
(261.8 0 0)
(260.56 0 0)
(259.286 0 0)
(257.977 0 0)
(256.632 0 0)
(255.248 0 0)
(253.825 0 0)
(252.361 0 0)
(250.853 0 0)
(249.299 0 0)
(247.696 0 0)
(246.043 0 0)
(244.335 0 0)
(242.57 0 0)
(240.744 0 0)
(238.852 0 0)
(236.89 0 0)
(234.851 0 0)
(232.731 0 0)
(230.521 0 0)
(228.212 0 0)
(225.795 0 0)
(223.256 0 0)
(220.582 0 0)
(217.754 0 0)
(214.747 0 0)
(211.532 0 0)
(208.066 0 0)
(204.296 0 0)
(200.153 0 0)
(195.51 0 0)
(190.029 0 0)
(182.954 0 0)
(173.214 0 0)
(160.361 0 0)
(145.723 0 0)
(131.985 0 0)
(121.239 0 0)
(113.905 0 0)
(109.292 0 0)
(106.502 0 0)
(104.84 0 0)
(103.868 0 0)
(103.324 0 0)
(103.058 0 0)
(102.979 0 0)
(103.033 0 0)
(103.185 0 0)
(103.412 0 0)
(103.698 0 0)
(104.031 0 0)
(104.403 0 0)
(104.808 0 0)
(105.24 0 0)
(105.695 0 0)
(106.17 0 0)
(106.662 0 0)
(107.17 0 0)
(107.69 0 0)
(108.222 0 0)
(108.764 0 0)
(109.315 0 0)
(109.875 0 0)
(110.44 0 0)
(111.014 0 0)
(111.587 0 0)
(112.188 0 0)
(112.717 0 0)
(113.491 0 0)
(271.477 0 0)
(270.519 0 0)
(269.539 0 0)
(268.534 0 0)
(267.504 0 0)
(266.449 0 0)
(265.367 0 0)
(264.258 0 0)
(263.12 0 0)
(261.953 0 0)
(260.756 0 0)
(259.527 0 0)
(258.266 0 0)
(256.97 0 0)
(255.639 0 0)
(254.272 0 0)
(252.865 0 0)
(251.418 0 0)
(249.929 0 0)
(248.395 0 0)
(246.814 0 0)
(245.184 0 0)
(243.501 0 0)
(241.762 0 0)
(239.964 0 0)
(238.102 0 0)
(236.171 0 0)
(234.168 0 0)
(232.084 0 0)
(229.914 0 0)
(227.649 0 0)
(225.279 0 0)
(222.792 0 0)
(220.175 0 0)
(217.409 0 0)
(214.474 0 0)
(211.339 0 0)
(207.966 0 0)
(204.305 0 0)
(200.291 0 0)
(195.816 0 0)
(190.603 0 0)
(184.002 0 0)
(174.986 0 0)
(162.895 0 0)
(148.628 0 0)
(134.661 0 0)
(123.306 0 0)
(115.328 0 0)
(110.215 0 0)
(107.083 0 0)
(105.199 0 0)
(104.077 0 0)
(103.429 0 0)
(103.084 0 0)
(102.943 0 0)
(102.945 0 0)
(103.053 0 0)
(103.239 0 0)
(103.488 0 0)
(103.786 0 0)
(104.126 0 0)
(104.499 0 0)
(104.901 0 0)
(105.327 0 0)
(105.773 0 0)
(106.238 0 0)
(106.718 0 0)
(107.212 0 0)
(107.718 0 0)
(108.235 0 0)
(108.761 0 0)
(109.295 0 0)
(109.836 0 0)
(110.386 0 0)
(110.934 0 0)
(111.511 0 0)
(112.019 0 0)
(112.761 0 0)
(270.363 0 0)
(269.41 0 0)
(268.435 0 0)
(267.436 0 0)
(266.413 0 0)
(265.365 0 0)
(264.292 0 0)
(263.191 0 0)
(262.063 0 0)
(260.907 0 0)
(259.721 0 0)
(258.504 0 0)
(257.256 0 0)
(255.974 0 0)
(254.658 0 0)
(253.306 0 0)
(251.917 0 0)
(250.488 0 0)
(249.017 0 0)
(247.504 0 0)
(245.945 0 0)
(244.337 0 0)
(242.679 0 0)
(240.966 0 0)
(239.195 0 0)
(237.363 0 0)
(235.465 0 0)
(233.496 0 0)
(231.449 0 0)
(229.319 0 0)
(227.096 0 0)
(224.773 0 0)
(222.337 0 0)
(219.776 0 0)
(217.073 0 0)
(214.207 0 0)
(211.151 0 0)
(207.868 0 0)
(204.313 0 0)
(200.425 0 0)
(196.109 0 0)
(191.14 0 0)
(184.967 0 0)
(176.636 0 0)
(165.335 0 0)
(151.555 0 0)
(137.48 0 0)
(125.563 0 0)
(116.921 0 0)
(111.264 0 0)
(107.753 0 0)
(105.618 0 0)
(104.331 0 0)
(103.568 0 0)
(103.14 0 0)
(102.934 0 0)
(102.882 0 0)
(102.943 0 0)
(103.088 0 0)
(103.3 0 0)
(103.563 0 0)
(103.87 0 0)
(104.212 0 0)
(104.583 0 0)
(104.98 0 0)
(105.399 0 0)
(105.836 0 0)
(106.29 0 0)
(106.758 0 0)
(107.238 0 0)
(107.729 0 0)
(108.23 0 0)
(108.74 0 0)
(109.257 0 0)
(109.783 0 0)
(110.308 0 0)
(110.86 0 0)
(111.348 0 0)
(112.059 0 0)
(269.253 0 0)
(268.306 0 0)
(267.337 0 0)
(266.345 0 0)
(265.33 0 0)
(264.29 0 0)
(263.224 0 0)
(262.133 0 0)
(261.016 0 0)
(259.87 0 0)
(258.696 0 0)
(257.491 0 0)
(256.256 0 0)
(254.989 0 0)
(253.688 0 0)
(252.352 0 0)
(250.979 0 0)
(249.569 0 0)
(248.118 0 0)
(246.625 0 0)
(245.087 0 0)
(243.503 0 0)
(241.869 0 0)
(240.182 0 0)
(238.44 0 0)
(236.637 0 0)
(234.771 0 0)
(232.836 0 0)
(230.825 0 0)
(228.734 0 0)
(226.555 0 0)
(224.277 0 0)
(221.892 0 0)
(219.386 0 0)
(216.744 0 0)
(213.946 0 0)
(210.967 0 0)
(207.773 0 0)
(204.321 0 0)
(200.554 0 0)
(196.389 0 0)
(191.642 0 0)
(185.855 0 0)
(178.162 0 0)
(167.661 0 0)
(154.474 0 0)
(140.424 0 0)
(128.014 0 0)
(118.697 0 0)
(112.453 0 0)
(108.521 0 0)
(106.107 0 0)
(104.635 0 0)
(103.747 0 0)
(103.228 0 0)
(102.952 0 0)
(102.844 0 0)
(102.857 0 0)
(102.96 0 0)
(103.133 0 0)
(103.362 0 0)
(103.636 0 0)
(103.946 0 0)
(104.288 0 0)
(104.656 0 0)
(105.047 0 0)
(105.457 0 0)
(105.884 0 0)
(106.327 0 0)
(106.782 0 0)
(107.248 0 0)
(107.725 0 0)
(108.21 0 0)
(108.703 0 0)
(109.206 0 0)
(109.708 0 0)
(110.236 0 0)
(110.704 0 0)
(111.385 0 0)
(268.149 0 0)
(267.208 0 0)
(266.245 0 0)
(265.261 0 0)
(264.253 0 0)
(263.222 0 0)
(262.166 0 0)
(261.085 0 0)
(259.977 0 0)
(258.843 0 0)
(257.68 0 0)
(256.489 0 0)
(255.267 0 0)
(254.015 0 0)
(252.729 0 0)
(251.409 0 0)
(250.054 0 0)
(248.662 0 0)
(247.23 0 0)
(245.758 0 0)
(244.242 0 0)
(242.681 0 0)
(241.071 0 0)
(239.411 0 0)
(237.696 0 0)
(235.924 0 0)
(234.089 0 0)
(232.187 0 0)
(230.213 0 0)
(228.161 0 0)
(226.024 0 0)
(223.792 0 0)
(221.457 0 0)
(219.005 0 0)
(216.423 0 0)
(213.691 0 0)
(210.787 0 0)
(207.68 0 0)
(204.328 0 0)
(200.679 0 0)
(196.658 0 0)
(192.115 0 0)
(186.673 0 0)
(179.567 0 0)
(169.86 0 0)
(157.352 0 0)
(143.468 0 0)
(130.655 0 0)
(120.67 0 0)
(113.798 0 0)
(109.4 0 0)
(106.672 0 0)
(104.995 0 0)
(103.967 0 0)
(103.349 0 0)
(102.999 0 0)
(102.832 0 0)
(102.795 0 0)
(102.855 0 0)
(102.989 0 0)
(103.182 0 0)
(103.423 0 0)
(103.702 0 0)
(104.014 0 0)
(104.354 0 0)
(104.717 0 0)
(105.1 0 0)
(105.502 0 0)
(105.918 0 0)
(106.348 0 0)
(106.79 0 0)
(107.243 0 0)
(107.705 0 0)
(108.174 0 0)
(108.654 0 0)
(109.133 0 0)
(109.638 0 0)
(110.086 0 0)
(110.737 0 0)
(267.05 0 0)
(266.116 0 0)
(265.161 0 0)
(264.184 0 0)
(263.185 0 0)
(262.162 0 0)
(261.116 0 0)
(260.045 0 0)
(258.948 0 0)
(257.826 0 0)
(256.676 0 0)
(255.497 0 0)
(254.29 0 0)
(253.051 0 0)
(251.781 0 0)
(250.478 0 0)
(249.14 0 0)
(247.767 0 0)
(246.355 0 0)
(244.903 0 0)
(243.409 0 0)
(241.871 0 0)
(240.286 0 0)
(238.652 0 0)
(236.965 0 0)
(235.222 0 0)
(233.419 0 0)
(231.551 0 0)
(229.613 0 0)
(227.599 0 0)
(225.503 0 0)
(223.317 0 0)
(221.03 0 0)
(218.632 0 0)
(216.109 0 0)
(213.443 0 0)
(210.612 0 0)
(207.589 0 0)
(204.334 0 0)
(200.799 0 0)
(196.917 0 0)
(192.562 0 0)
(187.429 0 0)
(180.857 0 0)
(171.918 0 0)
(160.158 0 0)
(146.583 0 0)
(133.479 0 0)
(122.851 0 0)
(115.318 0 0)
(110.406 0 0)
(107.326 0 0)
(105.416 0 0)
(104.233 0 0)
(103.506 0 0)
(103.076 0 0)
(102.846 0 0)
(102.757 0 0)
(102.773 0 0)
(102.868 0 0)
(103.025 0 0)
(103.232 0 0)
(103.48 0 0)
(103.762 0 0)
(104.073 0 0)
(104.409 0 0)
(104.766 0 0)
(105.141 0 0)
(105.532 0 0)
(105.938 0 0)
(106.355 0 0)
(106.784 0 0)
(107.223 0 0)
(107.67 0 0)
(108.126 0 0)
(108.583 0 0)
(109.066 0 0)
(109.494 0 0)
(110.116 0 0)
(265.959 0 0)
(265.031 0 0)
(264.084 0 0)
(263.115 0 0)
(262.124 0 0)
(261.111 0 0)
(260.075 0 0)
(259.015 0 0)
(257.93 0 0)
(256.819 0 0)
(255.681 0 0)
(254.517 0 0)
(253.323 0 0)
(252.1 0 0)
(250.846 0 0)
(249.559 0 0)
(248.239 0 0)
(246.884 0 0)
(245.491 0 0)
(244.06 0 0)
(242.589 0 0)
(241.074 0 0)
(239.514 0 0)
(237.905 0 0)
(236.246 0 0)
(234.532 0 0)
(232.76 0 0)
(230.926 0 0)
(229.023 0 0)
(227.048 0 0)
(224.993 0 0)
(222.851 0 0)
(220.613 0 0)
(218.267 0 0)
(215.802 0 0)
(213.2 0 0)
(210.442 0 0)
(207.5 0 0)
(204.34 0 0)
(200.916 0 0)
(197.166 0 0)
(192.986 0 0)
(188.129 0 0)
(182.037 0 0)
(173.829 0 0)
(162.862 0 0)
(149.732 0 0)
(136.471 0 0)
(125.248 0 0)
(117.028 0 0)
(111.554 0 0)
(108.079 0 0)
(105.907 0 0)
(104.55 0 0)
(103.703 0 0)
(103.186 0 0)
(102.889 0 0)
(102.745 0 0)
(102.715 0 0)
(102.769 0 0)
(102.889 0 0)
(103.062 0 0)
(103.279 0 0)
(103.531 0 0)
(103.814 0 0)
(104.122 0 0)
(104.452 0 0)
(104.802 0 0)
(105.168 0 0)
(105.549 0 0)
(105.943 0 0)
(106.349 0 0)
(106.764 0 0)
(107.189 0 0)
(107.623 0 0)
(108.058 0 0)
(108.518 0 0)
(108.927 0 0)
(109.521 0 0)
(264.874 0 0)
(263.954 0 0)
(263.015 0 0)
(262.054 0 0)
(261.073 0 0)
(260.07 0 0)
(259.044 0 0)
(257.995 0 0)
(256.921 0 0)
(255.823 0 0)
(254.698 0 0)
(253.547 0 0)
(252.368 0 0)
(251.16 0 0)
(249.922 0 0)
(248.652 0 0)
(247.35 0 0)
(246.013 0 0)
(244.64 0 0)
(243.23 0 0)
(241.78 0 0)
(240.289 0 0)
(238.753 0 0)
(237.171 0 0)
(235.539 0 0)
(233.855 0 0)
(232.114 0 0)
(230.312 0 0)
(228.445 0 0)
(226.508 0 0)
(224.493 0 0)
(222.395 0 0)
(220.204 0 0)
(217.911 0 0)
(215.502 0 0)
(212.963 0 0)
(210.275 0 0)
(207.414 0 0)
(204.345 0 0)
(201.028 0 0)
(197.406 0 0)
(193.39 0 0)
(188.781 0 0)
(183.116 0 0)
(175.59 0 0)
(165.439 0 0)
(152.878 0 0)
(139.608 0 0)
(127.864 0 0)
(118.947 0 0)
(112.862 0 0)
(108.945 0 0)
(106.477 0 0)
(104.923 0 0)
(103.943 0 0)
(103.33 0 0)
(102.961 0 0)
(102.76 0 0)
(102.681 0 0)
(102.693 0 0)
(102.776 0 0)
(102.915 0 0)
(103.099 0 0)
(103.322 0 0)
(103.576 0 0)
(103.857 0 0)
(104.161 0 0)
(104.485 0 0)
(104.827 0 0)
(105.184 0 0)
(105.554 0 0)
(105.936 0 0)
(106.329 0 0)
(106.731 0 0)
(107.143 0 0)
(107.557 0 0)
(107.995 0 0)
(108.385 0 0)
(108.951 0 0)
(263.797 0 0)
(262.885 0 0)
(261.954 0 0)
(261.003 0 0)
(260.031 0 0)
(259.038 0 0)
(258.023 0 0)
(256.985 0 0)
(255.923 0 0)
(254.837 0 0)
(253.726 0 0)
(252.589 0 0)
(251.424 0 0)
(250.231 0 0)
(249.009 0 0)
(247.757 0 0)
(246.472 0 0)
(245.155 0 0)
(243.802 0 0)
(242.413 0 0)
(240.985 0 0)
(239.516 0 0)
(238.005 0 0)
(236.449 0 0)
(234.845 0 0)
(233.189 0 0)
(231.479 0 0)
(229.71 0 0)
(227.878 0 0)
(225.978 0 0)
(224.004 0 0)
(221.949 0 0)
(219.805 0 0)
(217.562 0 0)
(215.209 0 0)
(212.732 0 0)
(210.113 0 0)
(207.329 0 0)
(204.35 0 0)
(201.136 0 0)
(197.637 0 0)
(193.775 0 0)
(189.39 0 0)
(184.104 0 0)
(177.204 0 0)
(167.867 0 0)
(155.981 0 0)
(142.86 0 0)
(130.696 0 0)
(121.09 0 0)
(114.352 0 0)
(109.941 0 0)
(107.137 0 0)
(105.361 0 0)
(104.231 0 0)
(103.512 0 0)
(103.064 0 0)
(102.802 0 0)
(102.672 0 0)
(102.641 0 0)
(102.685 0 0)
(102.789 0 0)
(102.941 0 0)
(103.134 0 0)
(103.359 0 0)
(103.613 0 0)
(103.891 0 0)
(104.19 0 0)
(104.507 0 0)
(104.84 0 0)
(105.187 0 0)
(105.546 0 0)
(105.917 0 0)
(106.297 0 0)
(106.687 0 0)
(107.08 0 0)
(107.496 0 0)
(107.867 0 0)
(108.406 0 0)
(262.727 0 0)
(261.824 0 0)
(260.902 0 0)
(259.96 0 0)
(258.999 0 0)
(258.016 0 0)
(257.012 0 0)
(255.985 0 0)
(254.936 0 0)
(253.863 0 0)
(252.765 0 0)
(251.642 0 0)
(250.492 0 0)
(249.315 0 0)
(248.109 0 0)
(246.874 0 0)
(245.607 0 0)
(244.308 0 0)
(242.976 0 0)
(241.607 0 0)
(240.201 0 0)
(238.756 0 0)
(237.27 0 0)
(235.739 0 0)
(234.162 0 0)
(232.535 0 0)
(230.855 0 0)
(229.119 0 0)
(227.322 0 0)
(225.459 0 0)
(223.524 0 0)
(221.512 0 0)
(219.414 0 0)
(217.222 0 0)
(214.924 0 0)
(212.507 0 0)
(209.955 0 0)
(207.246 0 0)
(204.354 0 0)