/*--------------------------------*- C++ -*----------------------------------*\
| =========                 |                                                 |
| \\      /  F ield         | OpenFOAM: The Open Source CFD Toolbox           |
|  \\    /   O peration     | Version:  2312                                  |
|   \\  /    A nd           | Website:  www.openfoam.com                      |
|    \\/     M anipulation  |                                                 |
\*---------------------------------------------------------------------------*/
FoamFile
{
    version     2.0;
    format      ascii;
    arch        "LSB;label=32;scalar=64";
    class       volVectorField;
    location    "0.69";
    object      U;
}
// * * * * * * * * * * * * * * * * * * * * * * * * * * * * * * * * * * * * * //

dimensions      [0 1 -1 0 0 0 0];

internalField   nonuniform List<vector> 
31205
(
(258.836 0 0)
(256.961 0 0)
(255.027 0 0)
(253.031 0 0)
(250.969 0 0)
(248.84 0 0)
(246.638 0 0)
(244.362 0 0)
(242.005 0 0)
(239.565 0 0)
(237.034 0 0)
(234.409 0 0)
(231.681 0 0)
(228.843 0 0)
(225.886 0 0)
(222.8 0 0)
(219.573 0 0)
(216.192 0 0)
(212.638 0 0)
(208.893 0 0)
(204.931 0 0)
(200.722 0 0)
(196.227 0 0)
(191.395 0 0)
(186.16 0 0)
(180.432 0 0)
(174.073 0 0)
(166.893 0 0)
(158.71 0 0)
(149.538 0 0)
(139.809 0 0)
(130.362 0 0)
(122.084 0 0)
(115.513 0 0)
(110.714 0 0)
(107.441 0 0)
(105.347 0 0)
(104.113 0 0)
(103.492 0 0)
(103.307 0 0)
(103.437 0 0)
(103.796 0 0)
(104.326 0 0)
(104.987 0 0)
(105.749 0 0)
(106.589 0 0)
(107.493 0 0)
(108.447 0 0)
(109.442 0 0)
(110.472 0 0)
(111.529 0 0)
(112.61 0 0)
(113.71 0 0)
(114.826 0 0)
(115.955 0 0)
(117.096 0 0)
(118.246 0 0)
(119.404 0 0)
(120.568 0 0)
(121.738 0 0)
(122.911 0 0)
(124.088 0 0)
(125.268 0 0)
(126.449 0 0)
(127.632 0 0)
(128.816 0 0)
(130 0 0)
(131.184 0 0)
(132.367 0 0)
(133.55 0 0)
(134.732 0 0)
(135.912 0 0)
(137.091 0 0)
(138.267 0 0)
(139.446 0 0)
(140.606 0 0)
(141.819 0 0)
(142.857 0 0)
(144.424 0 0)
(257.141 0 0)
(255.265 0 0)
(253.33 0 0)
(251.334 0 0)
(249.274 0 0)
(247.146 0 0)
(244.947 0 0)
(242.674 0 0)
(240.322 0 0)
(237.887 0 0)
(235.362 0 0)
(232.743 0 0)
(230.022 0 0)
(227.192 0 0)
(224.243 0 0)
(221.166 0 0)
(217.948 0 0)
(214.576 0 0)
(211.032 0 0)
(207.296 0 0)
(203.343 0 0)
(199.141 0 0)
(194.652 0 0)
(189.824 0 0)
(184.589 0 0)
(178.852 0 0)
(172.475 0 0)
(165.27 0 0)
(157.076 0 0)
(147.957 0 0)
(138.388 0 0)
(129.201 0 0)
(121.228 0 0)
(114.936 0 0)
(110.351 0 0)
(107.221 0 0)
(105.211 0 0)
(104.019 0 0)
(103.414 0 0)
(103.227 0 0)
(103.343 0 0)
(103.681 0 0)
(104.186 0 0)
(104.818 0 0)
(105.549 0 0)
(106.358 0 0)
(107.229 0 0)
(108.151 0 0)
(109.113 0 0)
(110.109 0 0)
(111.133 0 0)
(112.18 0 0)
(113.246 0 0)
(114.329 0 0)
(115.425 0 0)
(116.533 0 0)
(117.65 0 0)
(118.775 0 0)
(119.907 0 0)
(121.044 0 0)
(122.185 0 0)
(123.33 0 0)
(124.478 0 0)
(125.628 0 0)
(126.779 0 0)
(127.931 0 0)
(129.084 0 0)
(130.237 0 0)
(131.39 0 0)
(132.542 0 0)
(133.693 0 0)
(134.843 0 0)
(135.992 0 0)
(137.137 0 0)
(138.287 0 0)
(139.417 0 0)
(140.599 0 0)
(141.613 0 0)
(143.132 0 0)
(255.356 0 0)
(253.478 0 0)
(251.543 0 0)
(249.546 0 0)
(247.486 0 0)
(245.359 0 0)
(243.162 0 0)
(240.891 0 0)
(238.542 0 0)
(236.109 0 0)
(233.589 0 0)
(230.973 0 0)
(228.257 0 0)
(225.432 0 0)
(222.489 0 0)
(219.417 0 0)
(216.204 0 0)
(212.837 0 0)
(209.297 0 0)
(205.565 0 0)
(201.614 0 0)
(197.412 0 0)
(192.92 0 0)
(188.084 0 0)
(182.835 0 0)
(177.074 0 0)
(170.658 0 0)
(163.406 0 0)
(155.188 0 0)
(146.125 0 0)
(136.74 0 0)
(127.855 0 0)
(120.232 0 0)
(114.261 0 0)
(109.923 0 0)
(106.96 0 0)
(105.052 0 0)
(103.917 0 0)
(103.335 0 0)
(103.153 0 0)
(103.26 0 0)
(103.582 0 0)
(104.065 0 0)
(104.671 0 0)
(105.374 0 0)
(106.153 0 0)
(106.993 0 0)
(107.883 0 0)
(108.813 0 0)
(109.777 0 0)
(110.768 0 0)
(111.783 0 0)
(112.817 0 0)
(113.867 0 0)
(114.931 0 0)
(116.007 0 0)
(117.092 0 0)
(118.185 0 0)
(119.285 0 0)
(120.391 0 0)
(121.501 0 0)
(122.615 0 0)
(123.731 0 0)
(124.85 0 0)
(125.971 0 0)
(127.093 0 0)
(128.215 0 0)
(129.338 0 0)
(130.46 0 0)
(131.582 0 0)
(132.704 0 0)
(133.824 0 0)
(134.944 0 0)
(136.06 0 0)
(137.18 0 0)
(138.282 0 0)
(139.433 0 0)
(140.424 0 0)
(141.896 0 0)
(253.531 0 0)
(251.651 0 0)
(249.714 0 0)
(247.716 0 0)
(245.656 0 0)
(243.529 0 0)
(241.333 0 0)
(239.063 0 0)
(236.715 0 0)
(234.285 0 0)
(231.766 0 0)
(229.154 0 0)
(226.44 0 0)
(223.617 0 0)
(220.677 0 0)
(217.607 0 0)
(214.397 0 0)
(211.031 0 0)
(207.492 0 0)
(203.758 0 0)
(199.803 0 0)
(195.594 0 0)
(191.091 0 0)
(186.238 0 0)
(180.963 0 0)
(175.162 0 0)
(168.69 0 0)
(161.373 0 0)
(153.123 0 0)
(144.124 0 0)
(134.946 0 0)
(126.394 0 0)
(119.15 0 0)
(113.523 0 0)
(109.45 0 0)
(106.669 0 0)
(104.876 0 0)
(103.805 0 0)
(103.257 0 0)
(103.085 0 0)
(103.189 0 0)
(103.498 0 0)
(103.962 0 0)
(104.545 0 0)
(105.222 0 0)
(105.973 0 0)
(106.784 0 0)
(107.644 0 0)
(108.544 0 0)
(109.477 0 0)
(110.437 0 0)
(111.42 0 0)
(112.423 0 0)
(113.442 0 0)
(114.475 0 0)
(115.519 0 0)
(116.573 0 0)
(117.636 0 0)
(118.705 0 0)
(119.78 0 0)
(120.86 0 0)
(121.943 0 0)
(123.03 0 0)
(124.119 0 0)
(125.209 0 0)
(126.301 0 0)
(127.394 0 0)
(128.488 0 0)
(129.581 0 0)
(130.674 0 0)
(131.766 0 0)
(132.857 0 0)
(133.948 0 0)
(135.036 0 0)
(136.127 0 0)
(137.201 0 0)
(138.322 0 0)
(139.29 0 0)
(140.72 0 0)
(251.692 0 0)
(249.81 0 0)
(247.871 0 0)
(245.873 0 0)
(243.812 0 0)
(241.685 0 0)
(239.489 0 0)
(237.22 0 0)
(234.873 0 0)
(232.444 0 0)
(229.927 0 0)
(227.316 0 0)
(224.604 0 0)
(221.783 0 0)
(218.843 0 0)
(215.775 0 0)
(212.564 0 0)
(209.197 0 0)
(205.656 0 0)
(201.917 0 0)
(197.955 0 0)
(193.736 0 0)
(189.216 0 0)
(184.339 0 0)
(179.03 0 0)
(173.18 0 0)
(166.639 0 0)
(159.251 0 0)
(150.974 0 0)
(142.057 0 0)
(133.112 0 0)
(124.912 0 0)
(118.058 0 0)
(112.778 0 0)
(108.97 0 0)
(106.372 0 0)
(104.694 0 0)
(103.691 0 0)
(103.178 0 0)
(103.019 0 0)
(103.122 0 0)
(103.421 0 0)
(103.868 0 0)
(104.43 0 0)
(105.083 0 0)
(105.808 0 0)
(106.592 0 0)
(107.424 0 0)
(108.294 0 0)
(109.197 0 0)
(110.128 0 0)
(111.081 0 0)
(112.054 0 0)
(113.042 0 0)
(114.045 0 0)
(115.059 0 0)
(116.083 0 0)
(117.115 0 0)
(118.155 0 0)
(119.2 0 0)
(120.25 0 0)
(121.304 0 0)
(122.361 0 0)
(123.421 0 0)
(124.482 0 0)
(125.546 0 0)
(126.61 0 0)
(127.674 0 0)
(128.739 0 0)
(129.803 0 0)
(130.867 0 0)
(131.93 0 0)
(132.993 0 0)
(134.053 0 0)
(135.116 0 0)
(136.162 0 0)
(137.254 0 0)
(138.199 0 0)
(139.588 0 0)
(249.85 0 0)
(247.966 0 0)
(246.026 0 0)
(244.027 0 0)
(241.966 0 0)
(239.839 0 0)
(237.644 0 0)
(235.375 0 0)
(233.029 0 0)
(230.602 0 0)
(228.086 0 0)
(225.476 0 0)
(222.765 0 0)
(219.945 0 0)
(217.006 0 0)
(213.937 0 0)
(210.726 0 0)
(207.357 0 0)
(203.811 0 0)
(200.066 0 0)
(196.094 0 0)
(191.861 0 0)
(187.321 0 0)
(182.416 0 0)
(177.067 0 0)
(171.159 0 0)
(164.544 0 0)
(157.086 0 0)
(148.795 0 0)
(139.986 0 0)
(131.298 0 0)
(123.463 0 0)
(116.997 0 0)
(112.054 0 0)
(108.503 0 0)
(106.081 0 0)
(104.515 0 0)
(103.579 0 0)
(103.1 0 0)
(102.955 0 0)
(103.058 0 0)
(103.348 0 0)
(103.779 0 0)
(104.322 0 0)
(104.953 0 0)
(105.653 0 0)
(106.411 0 0)
(107.215 0 0)
(108.057 0 0)
(108.932 0 0)
(109.834 0 0)
(110.758 0 0)
(111.701 0 0)
(112.661 0 0)
(113.634 0 0)
(114.619 0 0)
(115.614 0 0)
(116.617 0 0)
(117.627 0 0)
(118.643 0 0)
(119.665 0 0)
(120.69 0 0)
(121.718 0 0)
(122.75 0 0)
(123.783 0 0)
(124.818 0 0)
(125.853 0 0)
(126.89 0 0)
(127.927 0 0)
(128.963 0 0)
(129.999 0 0)
(131.035 0 0)
(132.07 0 0)
(133.102 0 0)
(134.138 0 0)
(135.158 0 0)
(136.221 0 0)
(137.142 0 0)
(138.494 0 0)
(248.01 0 0)
(246.126 0 0)
(244.185 0 0)
(242.186 0 0)
(240.125 0 0)
(237.999 0 0)
(235.804 0 0)
(233.536 0 0)
(231.192 0 0)
(228.765 0 0)
(226.25 0 0)
(223.642 0 0)
(220.932 0 0)
(218.112 0 0)
(215.173 0 0)
(212.104 0 0)
(208.89 0 0)
(205.518 0 0)
(201.966 0 0)
(198.214 0 0)
(194.23 0 0)
(189.981 0 0)
(185.418 0 0)
(180.481 0 0)
(175.086 0 0)
(169.116 0 0)
(162.424 0 0)
(154.902 0 0)
(146.616 0 0)
(137.943 0 0)
(129.534 0 0)
(122.071 0 0)
(115.985 0 0)
(111.367 0 0)
(108.059 0 0)
(105.803 0 0)
(104.343 0 0)
(103.47 0 0)
(103.024 0 0)
(102.893 0 0)
(102.997 0 0)
(103.278 0 0)
(103.695 0 0)
(104.219 0 0)
(104.828 0 0)
(105.505 0 0)
(106.237 0 0)
(107.015 0 0)
(107.831 0 0)
(108.678 0 0)
(109.552 0 0)
(110.448 0 0)
(111.363 0 0)
(112.294 0 0)
(113.239 0 0)
(114.195 0 0)
(115.162 0 0)
(116.137 0 0)
(117.119 0 0)
(118.107 0 0)
(119.1 0 0)
(120.097 0 0)
(121.097 0 0)
(122.101 0 0)
(123.106 0 0)
(124.114 0 0)
(125.122 0 0)
(126.131 0 0)
(127.14 0 0)
(128.15 0 0)
(129.159 0 0)
(130.168 0 0)
(131.176 0 0)
(132.181 0 0)
(133.191 0 0)
(134.184 0 0)
(135.22 0 0)
(136.118 0 0)
(137.432 0 0)
(246.176 0 0)
(244.291 0 0)
(242.35 0 0)
(240.351 0 0)
(238.291 0 0)
(236.165 0 0)
(233.972 0 0)
(231.705 0 0)
(229.362 0 0)
(226.936 0 0)
(224.423 0 0)
(221.815 0 0)
(219.106 0 0)
(216.287 0 0)
(213.347 0 0)
(210.276 0 0)
(207.061 0 0)
(203.684 0 0)
(200.126 0 0)
(196.364 0 0)
(192.368 0 0)
(188.1 0 0)
(183.511 0 0)
(178.539 0 0)
(173.095 0 0)
(167.057 0 0)
(160.289 0 0)
(152.713 0 0)
(144.456 0 0)
(135.945 0 0)
(127.836 0 0)
(120.747 0 0)
(115.031 0 0)
(110.72 0 0)
(107.641 0 0)
(105.54 0 0)
(104.18 0 0)
(103.365 0 0)
(102.951 0 0)
(102.833 0 0)
(102.937 0 0)
(103.21 0 0)
(103.614 0 0)
(104.12 0 0)
(104.708 0 0)
(105.362 0 0)
(106.07 0 0)
(106.823 0 0)
(107.612 0 0)
(108.433 0 0)
(109.28 0 0)
(110.149 0 0)
(111.036 0 0)
(111.94 0 0)
(112.857 0 0)
(113.786 0 0)
(114.725 0 0)
(115.672 0 0)
(116.627 0 0)
(117.587 0 0)
(118.553 0 0)
(119.523 0 0)
(120.497 0 0)
(121.473 0 0)
(122.451 0 0)
(123.432 0 0)
(124.413 0 0)
(125.396 0 0)
(126.379 0 0)
(127.362 0 0)
(128.344 0 0)
(129.327 0 0)
(130.309 0 0)
(131.288 0 0)
(132.271 0 0)
(133.239 0 0)
(134.247 0 0)
(135.123 0 0)
(136.401 0 0)
(244.347 0 0)
(242.463 0 0)
(240.522 0 0)
(238.524 0 0)
(236.464 0 0)
(234.34 0 0)
(232.148 0 0)
(229.883 0 0)
(227.54 0 0)
(225.116 0 0)
(222.604 0 0)
(219.998 0 0)
(217.289 0 0)
(214.47 0 0)
(211.529 0 0)
(208.457 0 0)
(205.238 0 0)
(201.856 0 0)
(198.291 0 0)
(194.518 0 0)
(190.507 0 0)
(186.219 0 0)
(181.602 0 0)
(176.591 0 0)
(171.093 0 0)
(164.985 0 0)
(158.142 0 0)
(150.527 0 0)
(142.324 0 0)
(134.004 0 0)
(126.209 0 0)
(119.494 0 0)
(114.134 0 0)
(110.115 0 0)
(107.249 0 0)
(105.294 0 0)
(104.026 0 0)
(103.266 0 0)
(102.881 0 0)
(102.776 0 0)
(102.88 0 0)
(103.145 0 0)
(103.536 0 0)
(104.025 0 0)
(104.593 0 0)
(105.225 0 0)
(105.91 0 0)
(106.638 0 0)
(107.402 0 0)
(108.197 0 0)
(109.018 0 0)
(109.86 0 0)
(110.721 0 0)
(111.598 0 0)
(112.489 0 0)
(113.391 0 0)
(114.303 0 0)
(115.224 0 0)
(116.151 0 0)
(117.085 0 0)
(118.024 0 0)
(118.968 0 0)
(119.915 0 0)
(120.865 0 0)
(121.817 0 0)
(122.771 0 0)
(123.727 0 0)
(124.683 0 0)
(125.64 0 0)
(126.597 0 0)
(127.554 0 0)
(128.511 0 0)
(129.467 0 0)
(130.421 0 0)
(131.378 0 0)
(132.321 0 0)
(133.303 0 0)
(134.157 0 0)
(135.4 0 0)
(242.525 0 0)
(240.641 0 0)
(238.702 0 0)
(236.705 0 0)
(234.646 0 0)
(232.523 0 0)
(230.332 0 0)
(228.069 0 0)
(225.728 0 0)
(223.305 0 0)
(220.795 0 0)
(218.189 0 0)
(215.481 0 0)
(212.661 0 0)
(209.72 0 0)
(206.645 0 0)
(203.422 0 0)
(200.034 0 0)
(196.461 0 0)
(192.676 0 0)
(188.649 0 0)
(184.337 0 0)
(179.69 0 0)
(174.636 0 0)
(169.08 0 0)
(162.9 0 0)
(155.988 0 0)
(148.35 0 0)
(140.227 0 0)
(132.124 0 0)
(124.658 0 0)
(118.312 0 0)
(113.293 0 0)
(109.549 0 0)
(106.882 0 0)
(105.062 0 0)
(103.88 0 0)
(103.172 0 0)
(102.815 0 0)
(102.72 0 0)
(102.825 0 0)
(103.083 0 0)
(103.46 0 0)
(103.933 0 0)
(104.482 0 0)
(105.093 0 0)
(105.755 0 0)
(106.46 0 0)
(107.2 0 0)
(107.97 0 0)
(108.765 0 0)
(109.582 0 0)
(110.417 0 0)
(111.268 0 0)
(112.133 0 0)
(113.009 0 0)
(113.895 0 0)
(114.79 0 0)
(115.691 0 0)
(116.599 0 0)
(117.513 0 0)
(118.43 0 0)
(119.352 0 0)
(120.276 0 0)
(121.203 0 0)
(122.131 0 0)
(123.061 0 0)
(123.992 0 0)
(124.924 0 0)
(125.856 0 0)
(126.788 0 0)
(127.719 0 0)
(128.651 0 0)
(129.58 0 0)
(130.512 0 0)
(131.43 0 0)
(132.387 0 0)
(133.22 0 0)
(134.427 0 0)
(240.71 0 0)
(238.827 0 0)
(236.889 0 0)
(234.893 0 0)
(232.836 0 0)
(230.715 0 0)
(228.526 0 0)
(226.264 0 0)
(223.925 0 0)
(221.504 0 0)
(218.994 0 0)
(216.389 0 0)
(213.681 0 0)
(210.861 0 0)
(207.918 0 0)
(204.84 0 0)
(201.613 0 0)
(198.218 0 0)
(194.635 0 0)
(190.837 0 0)
(186.791 0 0)
(182.455 0 0)
(177.773 0 0)
(172.673 0 0)
(167.055 0 0)
(160.802 0 0)
(153.829 0 0)
(146.188 0 0)
(138.174 0 0)
(130.311 0 0)
(123.182 0 0)
(117.2 0 0)
(112.507 0 0)
(109.02 0 0)
(106.54 0 0)
(104.845 0 0)
(103.743 0 0)
(103.083 0 0)
(102.752 0 0)
(102.668 0 0)
(102.772 0 0)
(103.023 0 0)
(103.388 0 0)
(103.845 0 0)
(104.375 0 0)
(104.966 0 0)
(105.606 0 0)
(106.288 0 0)
(107.005 0 0)
(107.751 0 0)
(108.522 0 0)
(109.314 0 0)
(110.124 0 0)
(110.95 0 0)
(111.789 0 0)
(112.64 0 0)
(113.501 0 0)
(114.37 0 0)
(115.247 0 0)
(116.13 0 0)
(117.018 0 0)
(117.91 0 0)
(118.806 0 0)
(119.706 0 0)
(120.607 0 0)
(121.511 0 0)
(122.416 0 0)
(123.323 0 0)
(124.23 0 0)
(125.137 0 0)
(126.045 0 0)
(126.952 0 0)
(127.859 0 0)
(128.763 0 0)
(129.671 0 0)
(130.566 0 0)
(131.497 0 0)
(132.309 0 0)
(133.483 0 0)
(238.902 0 0)
(237.02 0 0)
(235.084 0 0)
(233.09 0 0)
(231.035 0 0)
(228.916 0 0)
(226.728 0 0)
(224.468 0 0)
(222.131 0 0)
(219.711 0 0)
(217.202 0 0)
(214.598 0 0)
(211.889 0 0)
(209.068 0 0)
(206.123 0 0)
(203.042 0 0)
(199.81 0 0)
(196.407 0 0)
(192.813 0 0)
(189 0 0)
(184.934 0 0)
(180.57 0 0)
(175.852 0 0)
(170.701 0 0)
(165.018 0 0)
(158.693 0 0)
(151.669 0 0)
(144.047 0 0)
(136.17 0 0)
(128.569 0 0)
(121.782 0 0)
(116.154 0 0)
(111.772 0 0)
(108.527 0 0)
(106.22 0 0)
(104.642 0 0)
(103.614 0 0)
(102.999 0 0)
(102.691 0 0)
(102.617 0 0)
(102.722 0 0)
(102.965 0 0)
(103.319 0 0)
(103.76 0 0)
(104.273 0 0)
(104.844 0 0)
(105.463 0 0)
(106.123 0 0)
(106.817 0 0)
(107.54 0 0)
(108.287 0 0)
(109.055 0 0)
(109.841 0 0)
(110.643 0 0)
(111.458 0 0)
(112.284 0 0)
(113.12 0 0)
(113.965 0 0)
(114.817 0 0)
(115.675 0 0)
(116.539 0 0)
(117.407 0 0)
(118.279 0 0)
(119.154 0 0)
(120.031 0 0)
(120.911 0 0)
(121.792 0 0)
(122.674 0 0)
(123.557 0 0)
(124.441 0 0)
(125.324 0 0)
(126.207 0 0)
(127.091 0 0)
(127.972 0 0)
(128.856 0 0)
(129.727 0 0)
(130.634 0 0)
(131.426 0 0)
(132.567 0 0)
(237.101 0 0)
(235.222 0 0)
(233.287 0 0)
(231.295 0 0)
(229.243 0 0)
(227.125 0 0)
(224.94 0 0)
(222.682 0 0)
(220.346 0 0)
(217.927 0 0)
(215.419 0 0)
(212.815 0 0)
(210.107 0 0)
(207.284 0 0)
(204.336 0 0)
(201.251 0 0)
(198.012 0 0)
(194.601 0 0)
(190.995 0 0)
(187.165 0 0)
(183.076 0 0)
(178.682 0 0)
(173.923 0 0)
(168.719 0 0)
(162.969 0 0)
(156.575 0 0)
(149.513 0 0)
(141.934 0 0)
(134.22 0 0)
(126.899 0 0)
(120.458 0 0)
(115.174 0 0)
(111.086 0 0)
(108.067 0 0)
(105.921 0 0)
(104.451 0 0)
(103.493 0 0)
(102.919 0 0)
(102.634 0 0)
(102.569 0 0)
(102.673 0 0)
(102.91 0 0)
(103.252 0 0)
(103.679 0 0)
(104.174 0 0)
(104.726 0 0)
(105.326 0 0)
(105.964 0 0)
(106.636 0 0)
(107.336 0 0)
(108.061 0 0)
(108.805 0 0)
(109.568 0 0)
(110.346 0 0)
(111.137 0 0)
(111.94 0 0)
(112.752 0 0)
(113.573 0 0)
(114.401 0 0)
(115.236 0 0)
(116.075 0 0)
(116.92 0 0)
(117.768 0 0)
(118.619 0 0)
(119.473 0 0)
(120.329 0 0)
(121.187 0 0)
(122.046 0 0)
(122.905 0 0)
(123.765 0 0)
(124.626 0 0)
(125.486 0 0)
(126.346 0 0)
(127.204 0 0)
(128.065 0 0)
(128.914 0 0)
(129.796 0 0)
(130.568 0 0)
(131.677 0 0)
(235.31 0 0)
(233.432 0 0)
(231.5 0 0)
(229.51 0 0)
(227.459 0 0)
(225.344 0 0)
(223.161 0 0)
(220.904 0 0)
(218.57 0 0)
(216.153 0 0)
(213.645 0 0)
(211.041 0 0)
(208.332 0 0)
(205.507 0 0)
(202.557 0 0)
(199.466 0 0)
(196.22 0 0)
(192.799 0 0)
(189.179 0 0)
(185.331 0 0)
(181.217 0 0)
(176.79 0 0)
(171.988 0 0)
(166.726 0 0)
(160.907 0 0)
(154.449 0 0)
(147.366 0 0)
(139.856 0 0)
(132.331 0 0)
(125.305 0 0)
(119.208 0 0)
(114.255 0 0)
(110.446 0 0)
(107.638 0 0)
(105.641 0 0)
(104.272 0 0)
(103.379 0 0)
(102.844 0 0)
(102.579 0 0)
(102.523 0 0)
(102.627 0 0)
(102.857 0 0)
(103.188 0 0)
(103.601 0 0)
(104.08 0 0)
(104.614 0 0)
(105.193 0 0)
(105.811 0 0)
(106.462 0 0)
(107.14 0 0)
(107.843 0 0)
(108.565 0 0)
(109.305 0 0)
(110.06 0 0)
(110.828 0 0)
(111.608 0 0)
(112.397 0 0)
(113.194 0 0)
(113.999 0 0)
(114.811 0 0)
(115.627 0 0)
(116.449 0 0)
(117.274 0 0)
(118.102 0 0)
(118.933 0 0)
(119.766 0 0)
(120.601 0 0)
(121.437 0 0)
(122.274 0 0)
(123.111 0 0)
(123.949 0 0)
(124.786 0 0)
(125.624 0 0)
(126.459 0 0)
(127.298 0 0)
(128.124 0 0)
(128.984 0 0)
(129.736 0 0)
(130.814 0 0)
(233.526 0 0)
(231.651 0 0)
(229.721 0 0)
(227.734 0 0)
(225.685 0 0)
(223.573 0 0)
(221.391 0 0)
(219.136 0 0)
(216.804 0 0)
(214.387 0 0)
(211.881 0 0)
(209.276 0 0)
(206.565 0 0)
(203.738 0 0)
(200.784 0 0)
(197.687 0 0)
(194.433 0 0)
(191 0 0)
(187.365 0 0)
(183.497 0 0)
(179.356 0 0)
(174.894 0 0)
(170.043 0 0)
(164.721 0 0)
(158.834 0 0)
(152.32 0 0)
(145.234 0 0)
(137.819 0 0)
(130.508 0 0)
(123.788 0 0)
(118.031 0 0)
(113.397 0 0)
(109.849 0 0)
(107.238 0 0)
(105.381 0 0)
(104.105 0 0)
(103.271 0 0)
(102.772 0 0)
(102.528 0 0)
(102.479 0 0)
(102.582 0 0)
(102.806 0 0)
(103.127 0 0)
(103.526 0 0)
(103.989 0 0)
(104.505 0 0)
(105.066 0 0)
(105.664 0 0)
(106.294 0 0)
(106.952 0 0)
(107.632 0 0)
(108.333 0 0)
(109.051 0 0)
(109.784 0 0)
(110.53 0 0)
(111.287 0 0)
(112.054 0 0)
(112.829 0 0)
(113.611 0 0)
(114.4 0 0)
(115.194 0 0)
(115.993 0 0)
(116.796 0 0)
(117.602 0 0)
(118.41 0 0)
(119.221 0 0)
(120.034 0 0)
(120.847 0 0)
(121.662 0 0)
(122.477 0 0)
(123.293 0 0)
(124.108 0 0)
(124.924 0 0)
(125.738 0 0)
(126.554 0 0)
(127.359 0 0)
(128.195 0 0)
(128.929 0 0)
(129.976 0 0)
(231.752 0 0)
(229.879 0 0)
(227.952 0 0)
(225.967 0 0)
(223.921 0 0)
(221.811 0 0)
(219.631 0 0)
(217.378 0 0)
(215.047 0 0)
(212.631 0 0)
(210.124 0 0)
(207.519 0 0)
(204.807 0 0)
(201.977 0 0)
(199.018 0 0)
(195.914 0 0)
(192.651 0 0)
(189.205 0 0)
(185.553 0 0)
(181.662 0 0)
(177.492 0 0)
(172.991 0 0)
(168.09 0 0)
(162.705 0 0)
(156.751 0 0)
(150.192 0 0)
(143.123 0 0)
(135.831 0 0)
(128.754 0 0)
(122.348 0 0)
(116.926 0 0)
(112.595 0 0)
(109.293 0 0)
(106.865 0 0)
(105.137 0 0)
(103.948 0 0)
(103.17 0 0)
(102.705 0 0)
(102.478 0 0)
(102.436 0 0)
(102.539 0 0)
(102.757 0 0)
(103.068 0 0)
(103.453 0 0)
(103.901 0 0)
(104.401 0 0)
(104.943 0 0)
(105.523 0 0)
(106.133 0 0)
(106.77 0 0)
(107.43 0 0)
(108.11 0 0)
(108.806 0 0)
(109.518 0 0)
(110.242 0 0)
(110.977 0 0)
(111.722 0 0)
(112.476 0 0)
(113.236 0 0)
(114.003 0 0)
(114.776 0 0)
(115.552 0 0)
(116.333 0 0)
(117.117 0 0)
(117.904 0 0)
(118.693 0 0)
(119.484 0 0)
(120.276 0 0)
(121.07 0 0)
(121.863 0 0)
(122.657 0 0)
(123.451 0 0)
(124.245 0 0)
(125.038 0 0)
(125.833 0 0)
(126.617 0 0)
(127.431 0 0)
(128.146 0 0)
(129.164 0 0)
(229.987 0 0)
(228.117 0 0)
(226.193 0 0)
(224.211 0 0)
(222.167 0 0)
(220.059 0 0)
(217.881 0 0)
(215.63 0 0)
(213.299 0 0)
(210.884 0 0)
(208.377 0 0)
(205.771 0 0)
(203.056 0 0)
(200.223 0 0)
(197.258 0 0)
(194.147 0 0)
(190.873 0 0)
(187.413 0 0)
(183.743 0 0)
(179.827 0 0)
(175.625 0 0)
(171.081 0 0)
(166.126 0 0)
(160.677 0 0)
(154.66 0 0)
(148.069 0 0)
(141.042 0 0)
(133.897 0 0)
(127.074 0 0)
(120.986 0 0)
(115.889 0 0)
(111.847 0 0)
(108.775 0 0)
(106.518 0 0)
(104.909 0 0)
(103.801 0 0)
(103.075 0 0)
(102.641 0 0)
(102.431 0 0)
(102.396 0 0)
(102.498 0 0)
(102.71 0 0)
(103.011 0 0)
(103.384 0 0)
(103.817 0 0)
(104.301 0 0)
(104.826 0 0)
(105.387 0 0)
(105.978 0 0)
(106.595 0 0)
(107.235 0 0)
(107.894 0 0)
(108.57 0 0)
(109.261 0 0)
(109.964 0 0)
(110.678 0 0)
(111.402 0 0)
(112.134 0 0)
(112.874 0 0)
(113.62 0 0)
(114.371 0 0)
(115.126 0 0)
(115.886 0 0)
(116.649 0 0)
(117.415 0 0)
(118.183 0 0)
(118.953 0 0)
(119.724 0 0)
(120.496 0 0)
(121.269 0 0)
(122.042 0 0)
(122.815 0 0)
(123.588 0 0)
(124.36 0 0)
(125.134 0 0)
(125.897 0 0)
(126.69 0 0)
(127.387 0 0)
(128.376 0 0)
(228.232 0 0)
(226.365 0 0)
(224.443 0 0)
(222.464 0 0)
(220.423 0 0)
(218.316 0 0)
(216.141 0 0)
(213.891 0 0)
(211.561 0 0)
(209.146 0 0)
(206.639 0 0)
(204.031 0 0)
(201.313 0 0)
(198.475 0 0)
(195.504 0 0)
(192.385 0 0)
(189.099 0 0)
(185.624 0 0)
(181.932 0 0)
(177.99 0 0)
(173.753 0 0)
(169.164 0 0)
(164.152 0 0)
(158.638 0 0)
(152.564 0 0)
(145.957 0 0)
(138.996 0 0)
(132.024 0 0)
(125.47 0 0)
(119.7 0 0)
(114.919 0 0)
(111.15 0 0)
(108.293 0 0)
(106.195 0 0)
(104.697 0 0)
(103.663 0 0)
(102.985 0 0)
(102.58 0 0)
(102.386 0 0)
(102.357 0 0)
(102.459 0 0)
(102.665 0 0)
(102.957 0 0)
(103.318 0 0)
(103.737 0 0)
(104.204 0 0)
(104.713 0 0)
(105.256 0 0)
(105.829 0 0)
(106.427 0 0)
(107.047 0 0)
(107.687 0 0)
(108.343 0 0)
(109.013 0 0)
(109.696 0 0)
(110.39 0 0)
(111.093 0 0)
(111.805 0 0)
(112.524 0 0)
(113.249 0 0)
(113.979 0 0)
(114.715 0 0)
(115.454 0 0)
(116.196 0 0)
(116.941 0 0)
(117.689 0 0)
(118.438 0 0)
(119.189 0 0)
(119.94 0 0)
(120.693 0 0)
(121.445 0 0)
(122.198 0 0)
(122.951 0 0)
(123.702 0 0)
(124.456 0 0)
(125.2 0 0)
(125.971 0 0)
(126.651 0 0)
(127.611 0 0)
(226.487 0 0)
(224.623 0 0)
(222.704 0 0)
(220.727 0 0)
(218.688 0 0)
(216.584 0 0)
(214.41 0 0)
(212.161 0 0)
(209.833 0 0)
(207.418 0 0)
(204.909 0 0)
(202.299 0 0)
(199.578 0 0)
(196.735 0 0)
(193.756 0 0)
(190.627 0 0)
(187.328 0 0)
(183.836 0 0)
(180.122 0 0)
(176.15 0 0)
(171.875 0 0)
(167.238 0 0)
(162.168 0 0)
(156.59 0 0)
(150.468 0 0)
(143.864 0 0)
(136.993 0 0)
(130.217 0 0)
(123.943 0 0)
(118.49 0 0)
(114.013 0 0)
(110.501 0 0)
(107.845 0 0)
(105.893 0 0)
(104.498 0 0)
(103.534 0 0)
(102.901 0 0)
(102.523 0 0)
(102.344 0 0)
(102.32 0 0)
(102.421 0 0)
(102.622 0 0)
(102.904 0 0)
(103.254 0 0)
(103.659 0 0)
(104.112 0 0)
(104.604 0 0)
(105.13 0 0)
(105.685 0 0)
(106.265 0 0)
(106.866 0 0)
(107.487 0 0)
(108.123 0 0)
(108.774 0 0)
(109.437 0 0)
(110.111 0 0)
(110.795 0 0)
(111.487 0 0)
(112.186 0 0)
(112.891 0 0)
(113.601 0 0)
(114.316 0 0)
(115.035 0 0)
(115.758 0 0)
(116.483 0 0)
(117.21 0 0)
(117.94 0 0)
(118.671 0 0)
(119.402 0 0)
(120.135 0 0)
(120.868 0 0)
(121.601 0 0)
(122.334 0 0)
(123.065 0 0)
(123.799 0 0)
(124.523 0 0)
(125.274 0 0)
(125.937 0 0)
(126.87 0 0)
(224.753 0 0)
(222.891 0 0)
(220.975 0 0)
(219.001 0 0)
(216.964 0 0)
(214.862 0 0)
(212.69 0 0)
(210.442 0 0)
(208.113 0 0)
(205.698 0 0)
(203.188 0 0)
(200.575 0 0)
(197.85 0 0)
(195.001 0 0)
(192.014 0 0)
(188.874 0 0)
(185.56 0 0)
(182.049 0 0)
(178.311 0 0)
(174.307 0 0)
(169.992 0 0)
(165.304 0 0)
(160.172 0 0)
(154.534 0 0)
(148.375 0 0)
(141.794 0 0)
(135.039 0 0)
(128.48 0 0)
(122.494 0 0)
(117.354 0 0)
(113.167 0 0)
(109.898 0 0)
(107.429 0 0)
(105.613 0 0)
(104.313 0 0)
(103.413 0 0)
(102.821 0 0)
(102.469 0 0)
(102.303 0 0)
(102.285 0 0)
(102.385 0 0)
(102.58 0 0)
(102.854 0 0)
(103.192 0 0)
(103.585 0 0)
(104.023 0 0)
(104.499 0 0)
(105.009 0 0)
(105.546 0 0)
(106.109 0 0)
(106.692 0 0)
(107.294 0 0)
(107.912 0 0)
(108.544 0 0)
(109.188 0 0)
(109.843 0 0)
(110.507 0 0)
(111.179 0 0)
(111.859 0 0)
(112.545 0 0)
(113.236 0 0)
(113.931 0 0)
(114.631 0 0)
(115.334 0 0)
(116.04 0 0)
(116.748 0 0)
(117.458 0 0)
(118.169 0 0)
(118.882 0 0)
(119.595 0 0)
(120.308 0 0)
(121.022 0 0)
(121.736 0 0)
(122.448 0 0)
(123.163 0 0)
(123.868 0 0)
(124.599 0 0)
(125.245 0 0)
(126.151 0 0)
(223.028 0 0)
(221.17 0 0)
(219.257 0 0)
(217.285 0 0)
(215.251 0 0)
(213.15 0 0)
(210.979 0 0)
(208.732 0 0)
(206.404 0 0)
(203.987 0 0)
(201.475 0 0)
(198.859 0 0)
(196.129 0 0)
(193.273 0 0)
(190.277 0 0)
(187.125 0 0)
(183.795 0 0)
(180.263 0 0)
(176.498 0 0)
(172.461 0 0)
(168.101 0 0)
(163.359 0 0)
(158.167 0 0)
(152.474 0 0)
(146.292 0 0)
(139.756 0 0)
(133.142 0 0)
(126.817 0 0)
(121.125 0 0)
(116.29 0 0)
(112.379 0 0)
(109.337 0 0)
(107.041 0 0)
(105.351 0 0)
(104.14 0 0)
(103.299 0 0)
(102.746 0 0)
(102.417 0 0)
(102.265 0 0)
(102.251 0 0)
(102.35 0 0)
(102.54 0 0)
(102.806 0 0)
(103.133 0 0)
(103.513 0 0)
(103.937 0 0)
(104.398 0 0)
(104.892 0 0)
(105.413 0 0)
(105.958 0 0)
(106.524 0 0)
(107.108 0 0)
(107.708 0 0)
(108.322 0 0)
(108.947 0 0)
(109.584 0 0)
(110.229 0 0)
(110.883 0 0)
(111.543 0 0)
(112.21 0 0)
(112.883 0 0)
(113.559 0 0)
(114.24 0 0)
(114.924 0 0)
(115.611 0 0)
(116.3 0 0)
(116.991 0 0)
(117.684 0 0)
(118.378 0 0)
(119.072 0 0)
(119.767 0 0)
(120.462 0 0)
(121.157 0 0)
(121.85 0 0)
(122.546 0 0)
(123.233 0 0)
(123.944 0 0)
(124.574 0 0)
(125.454 0 0)
(221.314 0 0)
(219.459 0 0)
(217.549 0 0)
(215.579 0 0)
(213.547 0 0)
(211.448 0 0)
(209.278 0 0)
(207.032 0 0)
(204.703 0 0)
(202.285 0 0)
(199.771 0 0)
(197.151 0 0)
(194.415 0 0)
(191.551 0 0)
(188.545 0 0)
(185.379 0 0)
(182.032 0 0)
(178.477 0 0)
(174.683 0 0)
(170.609 0 0)
(166.203 0 0)
(161.406 0 0)
(156.153 0 0)
(150.412 0 0)
(144.224 0 0)
(137.757 0 0)
(131.307 0 0)
(125.23 0 0)
(119.833 0 0)
(115.294 0 0)
(111.646 0 0)
(108.816 0 0)
(106.681 0 0)
(105.108 0 0)
(103.978 0 0)
(103.193 0 0)
(102.676 0 0)
(102.369 0 0)
(102.228 0 0)
(102.219 0 0)
(102.317 0 0)
(102.502 0 0)
(102.759 0 0)
(103.077 0 0)
(103.444 0 0)
(103.855 0 0)
(104.302 0 0)
(104.78 0 0)
(105.285 0 0)
(105.814 0 0)
(106.363 0 0)
(106.929 0 0)
(107.512 0 0)
(108.107 0 0)
(108.715 0 0)
(109.334 0 0)
(109.961 0 0)
(110.596 0 0)
(111.239 0 0)
(111.887 0 0)
(112.541 0 0)
(113.2 0 0)
(113.862 0 0)
(114.528 0 0)
(115.197 0 0)
(115.867 0 0)
(116.54 0 0)
(117.214 0 0)
(117.89 0 0)
(118.566 0 0)
(119.242 0 0)
(119.919 0 0)
(120.596 0 0)
(121.271 0 0)
(121.949 0 0)
(122.617 0 0)
(123.31 0 0)
(123.924 0 0)
(124.778 0 0)
(219.611 0 0)
(217.759 0 0)
(215.851 0 0)
(213.884 0 0)
(211.854 0 0)
(209.757 0 0)
(207.588 0 0)
(205.341 0 0)
(203.011 0 0)
(200.592 0 0)
(198.074 0 0)
(195.45 0 0)
(192.708 0 0)
(189.835 0 0)
(186.817 0 0)
(183.636 0 0)
(180.27 0 0)
(176.69 0 0)
(172.865 0 0)
(168.752 0 0)
(164.297 0 0)
(159.442 0 0)
(154.133 0 0)
(148.353 0 0)
(142.177 0 0)
(135.803 0 0)
(129.538 0 0)
(123.721 0 0)
(118.618 0 0)
(114.365 0 0)
(110.964 0 0)
(108.332 0 0)
(106.346 0 0)
(104.881 0 0)
(103.827 0 0)
(103.093 0 0)
(102.609 0 0)
(102.323 0 0)
(102.193 0 0)
(102.188 0 0)
(102.285 0 0)
(102.465 0 0)
(102.715 0 0)
(103.022 0 0)
(103.378 0 0)
(103.776 0 0)
(104.209 0 0)
(104.672 0 0)
(105.162 0 0)
(105.674 0 0)
(106.207 0 0)
(106.757 0 0)
(107.322 0 0)
(107.901 0 0)
(108.492 0 0)
(109.092 0 0)
(109.702 0 0)
(110.32 0 0)
(110.945 0 0)
(111.576 0 0)
(112.212 0 0)
(112.852 0 0)
(113.497 0 0)
(114.145 0 0)
(114.796 0 0)
(115.449 0 0)
(116.104 0 0)
(116.76 0 0)
(117.418 0 0)
(118.076 0 0)
(118.735 0 0)
(119.393 0 0)
(120.052 0 0)
(120.71 0 0)
(121.37 0 0)
(122.021 0 0)
(122.695 0 0)
(123.294 0 0)
(124.124 0 0)
(217.919 0 0)
(216.07 0 0)
(214.165 0 0)
(212.2 0 0)
(210.172 0 0)
(208.075 0 0)
(205.907 0 0)
(203.66 0 0)
(201.329 0 0)
(198.907 0 0)
(196.386 0 0)
(193.756 0 0)
(191.006 0 0)
(188.124 0 0)
(185.094 0 0)
(181.896 0 0)
(178.508 0 0)
(174.903 0 0)
(171.044 0 0)
(166.888 0 0)
(162.383 0 0)
(157.471 0 0)
(152.108 0 0)
(146.303 0 0)
(140.159 0 0)
(133.901 0 0)
(127.841 0 0)
(122.291 0 0)
(117.479 0 0)
(113.499 0 0)
(110.331 0 0)
(107.883 0 0)
(106.035 0 0)
(104.67 0 0)
(103.685 0 0)
(102.999 0 0)
(102.547 0 0)
(102.279 0 0)
(102.159 0 0)
(102.159 0 0)
(102.254 0 0)
(102.43 0 0)
(102.672 0 0)
(102.97 0 0)
(103.315 0 0)
(103.7 0 0)
(104.119 0 0)
(104.568 0 0)
(105.043 0 0)
(105.54 0 0)
(106.057 0 0)
(106.591 0 0)
(107.14 0 0)
(107.702 0 0)
(108.276 0 0)
(108.86 0 0)
(109.452 0 0)
(110.053 0 0)
(110.661 0 0)
(111.274 0 0)
(111.893 0 0)
(112.517 0 0)
(113.144 0 0)
(113.775 0 0)
(114.408 0 0)
(115.044 0 0)
(115.681 0 0)
(116.32 0 0)
(116.961 0 0)
(117.602 0 0)
(118.243 0 0)
(118.885 0 0)
(119.526 0 0)
(120.167 0 0)
(120.809 0 0)
(121.444 0 0)
(122.1 0 0)
(122.684 0 0)
(123.489 0 0)
(216.238 0 0)
(214.391 0 0)
(212.489 0 0)
(210.526 0 0)
(208.499 0 0)
(206.404 0 0)
(204.235 0 0)
(201.988 0 0)
(199.655 0 0)
(197.23 0 0)
(194.705 0 0)
(192.069 0 0)
(189.311 0 0)
(186.418 0 0)
(183.373 0 0)
(180.158 0 0)
(176.747 0 0)
(173.113 0 0)
(169.218 0 0)
(165.018 0 0)
(160.46 0 0)
(155.491 0 0)
(150.083 0 0)
(144.267 0 0)
(138.177 0 0)
(132.058 0 0)
(126.218 0 0)
(120.94 0 0)
(116.411 0 0)
(112.692 0 0)
(109.743 0 0)
(107.466 0 0)
(105.746 0 0)
(104.473 0 0)
(103.553 0 0)
(102.911 0 0)
(102.488 0 0)
(102.238 0 0)
(102.128 0 0)
(102.13 0 0)
(102.225 0 0)
(102.396 0 0)
(102.631 0 0)
(102.92 0 0)
(103.254 0 0)
(103.627 0 0)
(104.033 0 0)
(104.468 0 0)
(104.929 0 0)
(105.411 0 0)
(105.913 0 0)
(106.431 0 0)
(106.964 0 0)
(107.51 0 0)
(108.068 0 0)
(108.635 0 0)
(109.212 0 0)
(109.796 0 0)
(110.387 0 0)
(110.984 0 0)
(111.586 0 0)
(112.192 0 0)
(112.803 0 0)
(113.417 0 0)
(114.033 0 0)
(114.652 0 0)
(115.273 0 0)
(115.895 0 0)
(116.519 0 0)
(117.143 0 0)
(117.767 0 0)
(118.392 0 0)
(119.017 0 0)
(119.641 0 0)
(120.266 0 0)
(120.884 0 0)
(121.523 0 0)
(122.092 0 0)
(122.874 0 0)
(214.568 0 0)
(212.724 0 0)
(210.824 0 0)
(208.863 0 0)
(206.837 0 0)
(204.742 0 0)
(202.574 0 0)
(200.325 0 0)
(197.99 0 0)
(195.562 0 0)
(193.031 0 0)
(190.388 0 0)
(187.621 0 0)
(184.716 0 0)
(181.656 0 0)
(178.421 0 0)
(174.986 0 0)
(171.321 0 0)
(167.387 0 0)
(163.14 0 0)
(158.528 0 0)
(153.506 0 0)
(148.061 0 0)
(142.251 0 0)
(136.237 0 0)
(130.278 0 0)
(124.671 0 0)
(119.668 0 0)
(115.414 0 0)
(111.942 0 0)
(109.197 0 0)
(107.078 0 0)
(105.477 0 0)
(104.289 0 0)
(103.429 0 0)
(102.828 0 0)
(102.432 0 0)
(102.199 0 0)
(102.098 0 0)
(102.103 0 0)
(102.197 0 0)
(102.364 0 0)
(102.592 0 0)
(102.871 0 0)
(103.195 0 0)
(103.556 0 0)
(103.95 0 0)
(104.372 0 0)
(104.819 0 0)
(105.287 0 0)
(105.774 0 0)
(106.277 0 0)
(106.795 0 0)
(107.325 0 0)
(107.867 0 0)
(108.419 0 0)
(108.979 0 0)
(109.547 0 0)
(110.122 0 0)
(110.703 0 0)
(111.289 0 0)
(111.879 0 0)
(112.473 0 0)
(113.071 0 0)
(113.671 0 0)
(114.274 0 0)
(114.878 0 0)
(115.484 0 0)
(116.091 0 0)
(116.699 0 0)
(117.307 0 0)
(117.916 0 0)
(118.524 0 0)
(119.132 0 0)
(119.741 0 0)
(120.342 0 0)
(120.964 0 0)
(121.519 0 0)
(122.278 0 0)
(212.908 0 0)
(211.067 0 0)
(209.169 0 0)
(207.21 0 0)
(205.185 0 0)
(203.091 0 0)
(200.922 0 0)
(198.672 0 0)
(196.334 0 0)
(193.902 0 0)
(191.365 0 0)
(188.714 0 0)
(185.937 0 0)
(183.019 0 0)
(179.942 0 0)
(176.685 0 0)
(173.224 0 0)
(169.525 0 0)
(165.551 0 0)
(161.255 0 0)
(156.59 0 0)
(151.518 0 0)
(146.047 0 0)
(140.261 0 0)
(134.346 0 0)
(128.567 0 0)
(123.203 0 0)
(118.472 0 0)
(114.484 0 0)
(111.245 0 0)
(108.69 0 0)
(106.719 0 0)
(105.227 0 0)
(104.118 0 0)
(103.314 0 0)
(102.751 0 0)
(102.379 0 0)
(102.162 0 0)
(102.069 0 0)
(102.077 0 0)
(102.17 0 0)