/*--------------------------------*- C++ -*----------------------------------*\
| =========                 |                                                 |
| \\      /  F ield         | OpenFOAM: The Open Source CFD Toolbox           |
|  \\    /   O peration     | Version:  2312                                  |
|   \\  /    A nd           | Website:  www.openfoam.com                      |
|    \\/     M anipulation  |                                                 |
\*---------------------------------------------------------------------------*/
FoamFile
{
    version     2.0;
    format      ascii;
    arch        "LSB;label=32;scalar=64";
    class       volVectorField;
    location    "0.119";
    object      U;
}
// * * * * * * * * * * * * * * * * * * * * * * * * * * * * * * * * * * * * * //

dimensions      [0 1 -1 0 0 0 0];

internalField   nonuniform List<vector> 
31205
(
(126.526 0 0)
(123.318 0 0)
(120.154 0 0)
(117.071 0 0)
(114.119 0 0)
(111.354 0 0)
(108.837 0 0)
(106.627 0 0)
(104.77 0 0)
(103.298 0 0)
(102.219 0 0)
(101.524 0 0)
(101.189 0 0)
(101.179 0 0)
(101.457 0 0)
(101.981 0 0)
(102.716 0 0)
(103.627 0 0)
(104.685 0 0)
(105.865 0 0)
(107.144 0 0)
(108.506 0 0)
(109.935 0 0)
(111.419 0 0)
(112.947 0 0)
(114.511 0 0)
(116.104 0 0)
(117.719 0 0)
(119.353 0 0)
(121 0 0)
(122.658 0 0)
(124.323 0 0)
(125.993 0 0)
(127.665 0 0)
(129.339 0 0)
(131.012 0 0)
(132.683 0 0)
(134.352 0 0)
(136.017 0 0)
(137.677 0 0)
(139.332 0 0)
(140.981 0 0)
(142.624 0 0)
(144.261 0 0)
(145.89 0 0)
(147.512 0 0)
(149.126 0 0)
(150.732 0 0)
(152.33 0 0)
(153.921 0 0)
(155.502 0 0)
(157.076 0 0)
(158.641 0 0)
(160.197 0 0)
(161.745 0 0)
(163.284 0 0)
(164.814 0 0)
(166.336 0 0)
(167.849 0 0)
(169.353 0 0)
(170.848 0 0)
(172.335 0 0)
(173.813 0 0)
(175.283 0 0)
(176.743 0 0)
(178.195 0 0)
(179.639 0 0)
(181.074 0 0)
(182.5 0 0)
(183.918 0 0)
(185.327 0 0)
(186.728 0 0)
(188.121 0 0)
(189.503 0 0)
(190.884 0 0)
(192.236 0 0)
(193.644 0 0)
(194.845 0 0)
(196.648 0 0)
(123.616 0 0)
(120.527 0 0)
(117.51 0 0)
(114.608 0 0)
(111.873 0 0)
(109.36 0 0)
(107.126 0 0)
(105.218 0 0)
(103.669 0 0)
(102.494 0 0)
(101.69 0 0)
(101.238 0 0)
(101.109 0 0)
(101.269 0 0)
(101.68 0 0)
(102.307 0 0)
(103.117 0 0)
(104.08 0 0)
(105.17 0 0)
(106.367 0 0)
(107.65 0 0)
(109.006 0 0)
(110.422 0 0)
(111.885 0 0)
(113.388 0 0)
(114.923 0 0)
(116.483 0 0)
(118.064 0 0)
(119.66 0 0)
(121.27 0 0)
(122.888 0 0)
(124.513 0 0)
(126.142 0 0)
(127.773 0 0)
(129.406 0 0)
(131.037 0 0)
(132.667 0 0)
(134.295 0 0)
(135.918 0 0)
(137.538 0 0)
(139.152 0 0)
(140.761 0 0)
(142.364 0 0)
(143.961 0 0)
(145.55 0 0)
(147.133 0 0)
(148.709 0 0)
(150.277 0 0)
(151.837 0 0)
(153.39 0 0)
(154.935 0 0)
(156.471 0 0)
(158 0 0)
(159.52 0 0)
(161.032 0 0)
(162.536 0 0)
(164.032 0 0)
(165.519 0 0)
(166.997 0 0)
(168.468 0 0)
(169.929 0 0)
(171.383 0 0)
(172.828 0 0)
(174.265 0 0)
(175.693 0 0)
(177.113 0 0)
(178.525 0 0)
(179.929 0 0)
(181.324 0 0)
(182.711 0 0)
(184.09 0 0)
(185.46 0 0)
(186.823 0 0)
(188.176 0 0)
(189.527 0 0)
(190.85 0 0)
(192.228 0 0)
(193.406 0 0)
(195.16 0 0)
(120.678 0 0)
(117.737 0 0)
(114.902 0 0)
(112.217 0 0)
(109.736 0 0)
(107.509 0 0)
(105.584 0 0)
(103.992 0 0)
(102.754 0 0)
(101.869 0 0)
(101.326 0 0)
(101.099 0 0)
(101.158 0 0)
(101.469 0 0)
(101.998 0 0)
(102.714 0 0)
(103.587 0 0)
(104.593 0 0)
(105.709 0 0)
(106.917 0 0)
(108.201 0 0)
(109.548 0 0)
(110.947 0 0)
(112.389 0 0)
(113.865 0 0)
(115.37 0 0)
(116.897 0 0)
(118.443 0 0)
(120.003 0 0)
(121.574 0 0)
(123.153 0 0)
(124.738 0 0)
(126.327 0 0)
(127.918 0 0)
(129.51 0 0)
(131.101 0 0)
(132.691 0 0)
(134.277 0 0)
(135.861 0 0)
(137.44 0 0)
(139.014 0 0)
(140.584 0 0)
(142.147 0 0)
(143.705 0 0)
(145.256 0 0)
(146.801 0 0)
(148.338 0 0)
(149.869 0 0)
(151.392 0 0)
(152.908 0 0)
(154.416 0 0)
(155.917 0 0)
(157.41 0 0)
(158.895 0 0)
(160.372 0 0)
(161.841 0 0)
(163.302 0 0)
(164.755 0 0)
(166.2 0 0)
(167.637 0 0)
(169.066 0 0)
(170.487 0 0)
(171.9 0 0)
(173.305 0 0)
(174.702 0 0)
(176.09 0 0)
(177.471 0 0)
(178.844 0 0)
(180.208 0 0)
(181.565 0 0)
(182.914 0 0)
(184.255 0 0)
(185.588 0 0)
(186.912 0 0)
(188.234 0 0)
(189.529 0 0)
(190.876 0 0)
(192.033 0 0)
(193.739 0 0)
(117.822 0 0)
(115.059 0 0)
(112.435 0 0)
(109.999 0 0)
(107.797 0 0)
(105.874 0 0)
(104.263 0 0)
(102.984 0 0)
(102.042 0 0)
(101.427 0 0)
(101.12 0 0)
(101.094 0 0)
(101.317 0 0)
(101.759 0 0)
(102.389 0 0)
(103.179 0 0)
(104.105 0 0)
(105.145 0 0)
(106.28 0 0)
(107.495 0 0)
(108.776 0 0)
(110.113 0 0)
(111.494 0 0)
(112.913 0 0)
(114.363 0 0)
(115.838 0 0)
(117.333 0 0)
(118.845 0 0)
(120.369 0 0)
(121.903 0 0)
(123.444 0 0)
(124.99 0 0)
(126.54 0 0)
(128.092 0 0)
(129.644 0 0)
(131.195 0 0)
(132.745 0 0)
(134.292 0 0)
(135.836 0 0)
(137.376 0 0)
(138.912 0 0)
(140.442 0 0)
(141.968 0 0)
(143.487 0 0)
(145.001 0 0)
(146.508 0 0)
(148.009 0 0)
(149.503 0 0)
(150.99 0 0)
(152.469 0 0)
(153.942 0 0)
(155.407 0 0)
(156.865 0 0)
(158.316 0 0)
(159.759 0 0)
(161.194 0 0)
(162.621 0 0)
(164.041 0 0)
(165.454 0 0)
(166.858 0 0)
(168.255 0 0)
(169.644 0 0)
(171.025 0 0)
(172.398 0 0)
(173.764 0 0)
(175.122 0 0)
(176.472 0 0)
(177.814 0 0)
(179.149 0 0)
(180.476 0 0)
(181.795 0 0)
(183.107 0 0)
(184.411 0 0)
(185.706 0 0)
(187 0 0)
(188.267 0 0)
(189.584 0 0)
(190.718 0 0)
(192.382 0 0)
(115.119 0 0)
(112.561 0 0)
(110.176 0 0)
(108.01 0 0)
(106.103 0 0)
(104.488 0 0)
(103.185 0 0)
(102.202 0 0)
(101.531 0 0)
(101.159 0 0)
(101.059 0 0)
(101.206 0 0)
(101.569 0 0)
(102.121 0 0)
(102.834 0 0)
(103.685 0 0)
(104.653 0 0)
(105.719 0 0)
(106.867 0 0)
(108.085 0 0)
(109.36 0 0)
(110.683 0 0)
(112.046 0 0)
(113.442 0 0)
(114.865 0 0)
(116.31 0 0)
(117.773 0 0)
(119.251 0 0)
(120.74 0 0)
(122.238 0 0)
(123.742 0 0)
(125.251 0 0)
(126.762 0 0)
(128.276 0 0)
(129.789 0 0)
(131.302 0 0)
(132.814 0 0)
(134.323 0 0)
(135.828 0 0)
(137.33 0 0)
(138.828 0 0)
(140.321 0 0)
(141.809 0 0)
(143.292 0 0)
(144.769 0 0)
(146.24 0 0)
(147.704 0 0)
(149.163 0 0)
(150.614 0 0)
(152.059 0 0)
(153.497 0 0)
(154.928 0 0)
(156.352 0 0)
(157.768 0 0)
(159.178 0 0)
(160.58 0 0)
(161.974 0 0)
(163.362 0 0)
(164.742 0 0)
(166.114 0 0)
(167.479 0 0)
(168.837 0 0)
(170.187 0 0)
(171.53 0 0)
(172.865 0 0)
(174.192 0 0)
(175.512 0 0)
(176.825 0 0)
(178.13 0 0)
(179.428 0 0)
(180.718 0 0)
(182.001 0 0)
(183.277 0 0)
(184.544 0 0)
(185.809 0 0)
(187.049 0 0)
(188.337 0 0)
(189.448 0 0)
(191.071 0 0)
(112.612 0 0)
(110.286 0 0)
(108.162 0 0)
(106.281 0 0)
(104.673 0 0)
(103.359 0 0)
(102.347 0 0)
(101.634 0 0)
(101.207 0 0)
(101.045 0 0)
(101.124 0 0)
(101.417 0 0)
(101.897 0 0)
(102.539 0 0)
(103.32 0 0)
(104.22 0 0)
(105.219 0 0)
(106.304 0 0)
(107.46 0 0)
(108.676 0 0)
(109.942 0 0)
(111.25 0 0)
(112.593 0 0)
(113.965 0 0)
(115.361 0 0)
(116.777 0 0)
(118.209 0 0)
(119.653 0 0)
(121.108 0 0)
(122.57 0 0)
(124.038 0 0)
(125.511 0 0)
(126.986 0 0)
(128.462 0 0)
(129.938 0 0)
(131.414 0 0)
(132.888 0 0)
(134.359 0 0)
(135.828 0 0)
(137.293 0 0)
(138.754 0 0)
(140.211 0 0)
(141.663 0 0)
(143.11 0 0)
(144.551 0 0)
(145.986 0 0)
(147.416 0 0)
(148.839 0 0)
(150.256 0 0)
(151.667 0 0)
(153.071 0 0)
(154.468 0 0)
(155.859 0 0)
(157.243 0 0)
(158.619 0 0)
(159.989 0 0)
(161.352 0 0)
(162.707 0 0)
(164.056 0 0)
(165.397 0 0)
(166.731 0 0)
(168.058 0 0)
(169.378 0 0)
(170.69 0 0)
(171.995 0 0)
(173.293 0 0)
(174.584 0 0)
(175.868 0 0)
(177.144 0 0)
(178.413 0 0)
(179.675 0 0)
(180.929 0 0)
(182.177 0 0)
(183.416 0 0)
(184.653 0 0)
(185.866 0 0)
(187.126 0 0)
(188.213 0 0)
(189.798 0 0)
(110.335 0 0)
(108.261 0 0)
(106.413 0 0)
(104.821 0 0)
(103.505 0 0)
(102.476 0 0)
(101.731 0 0)
(101.26 0 0)
(101.046 0 0)
(101.066 0 0)
(101.296 0 0)
(101.711 0 0)
(102.287 0 0)
(103.002 0 0)
(103.837 0 0)
(104.774 0 0)
(105.797 0 0)
(106.894 0 0)
(108.052 0 0)
(109.263 0 0)
(110.518 0 0)
(111.809 0 0)
(113.131 0 0)
(114.479 0 0)
(115.848 0 0)
(117.234 0 0)
(118.635 0 0)
(120.047 0 0)
(121.468 0 0)
(122.896 0 0)
(124.329 0 0)
(125.766 0 0)
(127.205 0 0)
(128.645 0 0)
(130.085 0 0)
(131.525 0 0)
(132.963 0 0)
(134.398 0 0)
(135.831 0 0)
(137.26 0 0)
(138.686 0 0)
(140.107 0 0)
(141.524 0 0)
(142.935 0 0)
(144.342 0 0)
(145.743 0 0)
(147.139 0 0)
(148.528 0 0)
(149.912 0 0)
(151.289 0 0)
(152.66 0 0)
(154.025 0 0)
(155.383 0 0)
(156.735 0 0)
(158.08 0 0)
(159.418 0 0)
(160.749 0 0)
(162.074 0 0)
(163.391 0 0)
(164.702 0 0)
(166.006 0 0)
(167.303 0 0)
(168.593 0 0)
(169.876 0 0)
(171.152 0 0)
(172.42 0 0)
(173.682 0 0)
(174.937 0 0)
(176.185 0 0)
(177.426 0 0)
(178.66 0 0)
(179.887 0 0)
(181.107 0 0)
(182.319 0 0)
(183.529 0 0)
(184.715 0 0)
(185.946 0 0)
(187.011 0 0)
(188.559 0 0)
(108.309 0 0)
(106.5 0 0)
(104.932 0 0)
(103.625 0 0)
(102.587 0 0)
(101.82 0 0)
(101.315 0 0)
(101.057 0 0)
(101.026 0 0)
(101.2 0 0)
(101.556 0 0)
(102.072 0 0)
(102.726 0 0)
(103.5 0 0)
(104.377 0 0)
(105.342 0 0)
(106.381 0 0)
(107.484 0 0)
(108.641 0 0)
(109.844 0 0)
(111.084 0 0)
(112.358 0 0)
(113.658 0 0)
(114.981 0 0)
(116.323 0 0)
(117.68 0 0)
(119.05 0 0)
(120.43 0 0)
(121.819 0 0)
(123.213 0 0)
(124.612 0 0)
(126.014 0 0)
(127.419 0 0)
(128.824 0 0)
(130.229 0 0)
(131.633 0 0)
(133.036 0 0)
(134.437 0 0)
(135.834 0 0)
(137.229 0 0)
(138.62 0 0)
(140.007 0 0)
(141.39 0 0)
(142.767 0 0)
(144.14 0 0)
(145.508 0 0)
(146.87 0 0)
(148.227 0 0)
(149.578 0 0)
(150.923 0 0)
(152.262 0 0)
(153.595 0 0)
(154.921 0 0)
(156.242 0 0)
(157.556 0 0)
(158.863 0 0)
(160.164 0 0)
(161.458 0 0)
(162.746 0 0)
(164.027 0 0)
(165.301 0 0)
(166.569 0 0)
(167.83 0 0)
(169.084 0 0)
(170.331 0 0)
(171.572 0 0)
(172.805 0 0)
(174.032 0 0)
(175.252 0 0)
(176.466 0 0)
(177.672 0 0)
(178.872 0 0)
(180.065 0 0)
(181.25 0 0)
(182.433 0 0)
(183.593 0 0)
(184.797 0 0)
(185.84 0 0)
(187.35 0 0)
(106.546 0 0)
(105.009 0 0)
(103.717 0 0)
(102.68 0 0)
(101.899 0 0)
(101.369 0 0)
(101.075 0 0)
(101.001 0 0)
(101.126 0 0)
(101.429 0 0)
(101.89 0 0)
(102.487 0 0)
(103.205 0 0)
(104.025 0 0)
(104.934 0 0)
(105.919 0 0)
(106.968 0 0)
(108.073 0 0)
(109.225 0 0)
(110.416 0 0)
(111.642 0 0)
(112.896 0 0)
(114.173 0 0)
(115.471 0 0)
(116.786 0 0)
(118.115 0 0)
(119.455 0 0)
(120.804 0 0)
(122.16 0 0)
(123.521 0 0)
(124.887 0 0)
(126.256 0 0)
(127.626 0 0)
(128.998 0 0)
(130.369 0 0)
(131.739 0 0)
(133.108 0 0)
(134.474 0 0)
(135.838 0 0)
(137.199 0 0)
(138.557 0 0)
(139.91 0 0)
(141.26 0 0)
(142.605 0 0)
(143.945 0 0)
(145.28 0 0)
(146.61 0 0)
(147.935 0 0)
(149.254 0 0)
(150.568 0 0)
(151.875 0 0)
(153.177 0 0)
(154.473 0 0)
(155.763 0 0)
(157.047 0 0)
(158.324 0 0)
(159.595 0 0)
(160.86 0 0)
(162.119 0 0)
(163.371 0 0)
(164.616 0 0)
(165.855 0 0)
(167.087 0 0)
(168.313 0 0)
(169.533 0 0)
(170.745 0 0)
(171.952 0 0)
(173.151 0 0)
(174.344 0 0)
(175.53 0 0)
(176.71 0 0)
(177.883 0 0)
(179.05 0 0)
(180.209 0 0)
(181.366 0 0)
(182.5 0 0)
(183.677 0 0)
(184.698 0 0)
(186.172 0 0)
(105.05 0 0)
(103.78 0 0)
(102.752 0 0)
(101.966 0 0)
(101.418 0 0)
(101.097 0 0)
(100.987 0 0)
(101.07 0 0)
(101.326 0 0)
(101.736 0 0)
(102.282 0 0)
(102.946 0 0)
(103.714 0 0)
(104.57 0 0)
(105.502 0 0)
(106.5 0 0)
(107.555 0 0)
(108.657 0 0)
(109.801 0 0)
(110.98 0 0)
(112.188 0 0)
(113.422 0 0)
(114.677 0 0)
(115.95 0 0)
(117.238 0 0)
(118.538 0 0)
(119.848 0 0)
(121.166 0 0)
(122.491 0 0)
(123.821 0 0)
(125.155 0 0)
(126.491 0 0)
(127.828 0 0)
(129.166 0 0)
(130.505 0 0)
(131.842 0 0)
(133.177 0 0)
(134.511 0 0)
(135.842 0 0)
(137.17 0 0)
(138.495 0 0)
(139.817 0 0)
(141.134 0 0)
(142.447 0 0)
(143.755 0 0)
(145.059 0 0)
(146.358 0 0)
(147.651 0 0)
(148.94 0 0)
(150.223 0 0)
(151.5 0 0)
(152.772 0 0)
(154.038 0 0)
(155.298 0 0)
(156.552 0 0)
(157.801 0 0)
(159.043 0 0)
(160.279 0 0)
(161.509 0 0)
(162.732 0 0)
(163.95 0 0)
(165.161 0 0)
(166.366 0 0)
(167.564 0 0)
(168.756 0 0)
(169.942 0 0)
(171.121 0 0)
(172.294 0 0)
(173.46 0 0)
(174.62 0 0)
(175.773 0 0)
(176.92 0 0)
(178.061 0 0)
(179.194 0 0)
(180.326 0 0)
(181.435 0 0)
(182.586 0 0)
(183.585 0 0)
(185.024 0 0)
(103.816 0 0)
(102.803 0 0)
(102.019 0 0)
(101.461 0 0)
(101.12 0 0)
(100.98 0 0)
(101.027 0 0)
(101.242 0 0)
(101.608 0 0)
(102.106 0 0)
(102.722 0 0)
(103.439 0 0)
(104.246 0 0)
(105.128 0 0)
(106.078 0 0)
(107.084 0 0)
(108.139 0 0)
(109.236 0 0)
(110.37 0 0)
(111.534 0 0)
(112.724 0 0)
(113.937 0 0)
(115.169 0 0)
(116.417 0 0)
(117.678 0 0)
(118.95 0 0)
(120.231 0 0)
(121.519 0 0)
(122.814 0 0)
(124.112 0 0)
(125.414 0 0)
(126.719 0 0)
(128.024 0 0)
(129.331 0 0)
(130.636 0 0)
(131.942 0 0)
(133.245 0 0)
(134.547 0 0)
(135.846 0 0)
(137.143 0 0)
(138.436 0 0)
(139.726 0 0)
(141.012 0 0)
(142.294 0 0)
(143.571 0 0)
(144.844 0 0)
(146.113 0 0)
(147.376 0 0)
(148.635 0 0)
(149.888 0 0)
(151.136 0 0)
(152.378 0 0)
(153.615 0 0)
(154.846 0 0)
(156.072 0 0)
(157.292 0 0)
(158.506 0 0)
(159.714 0 0)
(160.916 0 0)
(162.112 0 0)
(163.302 0 0)
(164.486 0 0)
(165.663 0 0)
(166.835 0 0)
(168 0 0)
(169.159 0 0)
(170.312 0 0)
(171.459 0 0)
(172.599 0 0)
(173.733 0 0)
(174.861 0 0)
(175.983 0 0)
(177.098 0 0)
(178.206 0 0)
(179.312 0 0)
(180.398 0 0)
(181.522 0 0)
(182.5 0 0)
(183.904 0 0)
(102.832 0 0)
(102.057 0 0)
(101.496 0 0)
(101.141 0 0)
(100.979 0 0)
(100.996 0 0)
(101.176 0 0)
(101.501 0 0)
(101.957 0 0)
(102.528 0 0)
(103.199 0 0)
(103.958 0 0)
(104.794 0 0)
(105.697 0 0)
(106.657 0 0)
(107.666 0 0)
(108.719 0 0)
(109.808 0 0)
(110.929 0 0)
(112.077 0 0)
(113.249 0 0)
(114.44 0 0)
(115.649 0 0)
(116.871 0 0)
(118.106 0 0)
(119.35 0 0)
(120.603 0 0)
(121.862 0 0)
(123.127 0 0)
(124.395 0 0)
(125.667 0 0)
(126.94 0 0)
(128.215 0 0)
(129.49 0 0)
(130.765 0 0)
(132.039 0 0)
(133.311 0 0)
(134.582 0 0)
(135.85 0 0)
(137.116 0 0)
(138.378 0 0)
(139.638 0 0)
(140.893 0 0)
(142.145 0 0)
(143.393 0 0)
(144.636 0 0)
(145.875 0 0)
(147.109 0 0)
(148.338 0 0)
(149.563 0 0)
(150.782 0 0)
(151.996 0 0)
(153.204 0 0)
(154.408 0 0)
(155.605 0 0)
(156.797 0 0)
(157.984 0 0)
(159.165 0 0)
(160.34 0 0)
(161.509 0 0)
(162.672 0 0)
(163.829 0 0)
(164.981 0 0)
(166.126 0 0)
(167.265 0 0)
(168.399 0 0)
(169.526 0 0)
(170.647 0 0)
(171.762 0 0)
(172.871 0 0)
(173.974 0 0)
(175.07 0 0)
(176.161 0 0)
(177.244 0 0)
(178.326 0 0)
(179.387 0 0)
(180.486 0 0)
(181.443 0 0)
(182.813 0 0)
(102.079 0 0)
(101.521 0 0)
(101.158 0 0)
(100.98 0 0)
(100.973 0 0)
(101.123 0 0)
(101.414 0 0)
(101.831 0 0)
(102.361 0 0)
(102.989 0 0)
(103.705 0 0)
(104.497 0 0)
(105.355 0 0)
(106.27 0 0)
(107.236 0 0)
(108.245 0 0)
(109.292 0 0)
(110.371 0 0)
(111.479 0 0)
(112.61 0 0)
(113.762 0 0)
(114.932 0 0)
(116.117 0 0)
(117.315 0 0)
(118.523 0 0)
(119.74 0 0)
(120.965 0 0)
(122.196 0 0)
(123.431 0 0)
(124.67 0 0)
(125.912 0 0)
(127.155 0 0)
(128.4 0 0)
(129.645 0 0)
(130.889 0 0)
(132.133 0 0)
(133.375 0 0)
(134.616 0 0)
(135.854 0 0)
(137.09 0 0)
(138.323 0 0)
(139.553 0 0)
(140.779 0 0)
(142.001 0 0)
(143.22 0 0)
(144.434 0 0)
(145.644 0 0)
(146.85 0 0)
(148.051 0 0)
(149.247 0 0)
(150.438 0 0)
(151.625 0 0)
(152.806 0 0)
(153.982 0 0)
(155.152 0 0)
(156.317 0 0)
(157.477 0 0)
(158.631 0 0)
(159.78 0 0)
(160.922 0 0)
(162.06 0 0)
(163.191 0 0)
(164.317 0 0)
(165.436 0 0)
(166.55 0 0)
(167.658 0 0)
(168.761 0 0)
(169.857 0 0)
(170.947 0 0)
(172.031 0 0)
(173.109 0 0)
(174.182 0 0)
(175.248 0 0)
(176.307 0 0)
(177.365 0 0)
(178.402 0 0)
(179.477 0 0)
(180.413 0 0)
(181.75 0 0)
(101.536 0 0)
(101.171 0 0)
(100.982 0 0)
(100.956 0 0)
(101.081 0 0)
(101.342 0 0)
(101.725 0 0)
(102.218 0 0)
(102.807 0 0)
(103.483 0 0)
(104.233 0 0)
(105.049 0 0)
(105.922 0 0)
(106.846 0 0)
(107.814 0 0)
(108.82 0 0)
(109.858 0 0)
(110.926 0 0)
(112.018 0 0)
(113.132 0 0)
(114.264 0 0)
(115.412 0 0)
(116.573 0 0)
(117.746 0 0)
(118.929 0 0)
(120.119 0 0)
(121.317 0 0)
(122.52 0 0)
(123.727 0 0)
(124.937 0 0)
(126.15 0 0)
(127.364 0 0)
(128.58 0 0)
(129.795 0 0)
(131.01 0 0)
(132.225 0 0)
(133.438 0 0)
(134.649 0 0)
(135.858 0 0)
(137.065 0 0)
(138.269 0 0)
(139.47 0 0)
(140.668 0 0)
(141.862 0 0)
(143.052 0 0)
(144.239 0 0)
(145.421 0 0)
(146.599 0 0)
(147.772 0 0)
(148.941 0 0)
(150.105 0 0)
(151.264 0 0)
(152.419 0 0)
(153.568 0 0)
(154.712 0 0)
(155.851 0 0)
(156.984 0 0)
(158.113 0 0)
(159.235 0 0)
(160.353 0 0)
(161.464 0 0)
(162.571 0 0)
(163.671 0 0)
(164.766 0 0)
(165.855 0 0)
(166.939 0 0)
(168.016 0 0)
(169.088 0 0)
(170.154 0 0)
(171.214 0 0)
(172.269 0 0)
(173.317 0 0)
(174.36 0 0)
(175.395 0 0)
(176.429 0 0)
(177.444 0 0)
(178.494 0 0)
(179.41 0 0)
(180.715 0 0)
(101.179 0 0)
(100.984 0 0)
(100.944 0 0)
(101.049 0 0)
(101.284 0 0)
(101.637 0 0)
(102.097 0 0)
(102.65 0 0)
(103.288 0 0)
(104 0 0)
(104.776 0 0)
(105.61 0 0)
(106.494 0 0)
(107.422 0 0)
(108.388 0 0)
(109.387 0 0)
(110.416 0 0)
(111.47 0 0)
(112.547 0 0)
(113.642 0 0)
(114.754 0 0)
(115.88 0 0)
(117.018 0 0)
(118.167 0 0)
(119.324 0 0)
(120.488 0 0)
(121.659 0 0)
(122.835 0 0)
(124.014 0 0)
(125.196 0 0)
(126.381 0 0)
(127.567 0 0)
(128.754 0 0)
(129.941 0 0)
(131.128 0 0)
(132.314 0 0)
(133.499 0 0)
(134.682 0 0)
(135.863 0 0)
(137.041 0 0)
(138.217 0 0)
(139.39 0 0)
(140.56 0 0)
(141.727 0 0)
(142.89 0 0)
(144.049 0 0)
(145.204 0 0)
(146.355 0 0)
(147.502 0 0)
(148.644 0 0)
(149.782 0 0)
(150.915 0 0)
(152.043 0 0)
(153.166 0 0)
(154.285 0 0)
(155.398 0 0)
(156.506 0 0)
(157.609 0 0)
(158.707 0 0)
(159.799 0 0)
(160.886 0 0)
(161.968 0 0)
(163.044 0 0)
(164.114 0 0)
(165.179 0 0)
(166.239 0 0)
(167.292 0 0)
(168.34 0 0)
(169.383 0 0)
(170.419 0 0)
(171.45 0 0)
(172.475 0 0)
(173.495 0 0)
(174.507 0 0)
(175.518 0 0)
(176.511 0 0)
(177.537 0 0)
(178.434 0 0)
(179.706 0 0)
(100.984 0 0)
(100.935 0 0)
(101.024 0 0)
(101.237 0 0)
(101.565 0 0)
(101.994 0 0)
(102.516 0 0)
(103.119 0 0)
(103.795 0 0)
(104.534 0 0)
(105.33 0 0)
(106.176 0 0)
(107.066 0 0)
(107.994 0 0)
(108.956 0 0)
(109.948 0 0)
(110.965 0 0)
(112.005 0 0)
(113.064 0 0)
(114.141 0 0)
(115.232 0 0)
(116.336 0 0)
(117.451 0 0)
(118.576 0 0)
(119.708 0 0)
(120.847 0 0)
(121.992 0 0)
(123.141 0 0)
(124.293 0 0)
(125.449 0 0)
(126.606 0 0)
(127.764 0 0)
(128.924 0 0)
(130.083 0 0)
(131.242 0 0)
(132.401 0 0)
(133.558 0 0)
(134.713 0 0)
(135.867 0 0)
(137.018 0 0)
(138.167 0 0)
(139.313 0 0)
(140.456 0 0)
(141.596 0 0)
(142.732 0 0)
(143.865 0 0)
(144.994 0 0)
(146.118 0 0)
(147.239 0 0)
(148.356 0 0)
(149.468 0 0)
(150.575 0 0)
(151.678 0 0)
(152.776 0 0)
(153.869 0 0)
(154.958 0 0)
(156.041 0 0)
(157.12 0 0)
(158.193 0 0)
(159.261 0 0)
(160.324 0 0)
(161.382 0 0)
(162.434 0 0)
(163.481 0 0)
(164.522 0 0)
(165.558 0 0)
(166.588 0 0)
(167.613 0 0)
(168.632 0 0)
(169.646 0 0)
(170.654 0 0)
(171.656 0 0)
(172.653 0 0)
(173.643 0 0)
(174.632 0 0)
(175.602 0 0)
(176.605 0 0)
(177.483 0 0)
(178.724 0 0)
(100.928 0 0)
(101.005 0 0)
(101.201 0 0)
(101.506 0 0)
(101.91 0 0)
(102.402 0 0)
(102.973 0 0)
(103.616 0 0)
(104.321 0 0)
(105.081 0 0)
(105.891 0 0)
(106.745 0 0)
(107.636 0 0)
(108.562 0 0)
(109.517 0 0)
(110.499 0 0)
(111.503 0 0)
(112.528 0 0)
(113.57 0 0)
(114.628 0 0)
(115.698 0 0)
(116.781 0 0)
(117.873 0 0)
(118.974 0 0)
(120.082 0 0)
(121.196 0 0)
(122.315 0 0)
(123.438 0 0)
(124.564 0 0)
(125.693 0 0)
(126.824 0 0)
(127.956 0 0)
(129.089 0 0)
(130.221 0 0)
(131.354 0 0)
(132.485 0 0)
(133.615 0 0)
(134.744 0 0)
(135.871 0 0)
(136.996 0 0)
(138.119 0 0)
(139.238 0 0)
(140.355 0 0)
(141.469 0 0)
(142.58 0 0)
(143.686 0 0)
(144.79 0 0)
(145.889 0 0)
(146.985 0 0)
(148.076 0 0)
(149.163 0 0)
(150.246 0 0)
(151.324 0 0)
(152.397 0 0)
(153.466 0 0)
(154.531 0 0)
(155.59 0 0)
(156.645 0 0)
(157.694 0 0)
(158.738 0 0)
(159.778 0 0)
(160.812 0 0)
(161.841 0 0)
(162.865 0 0)
(163.883 0 0)
(164.896 0 0)
(165.904 0 0)
(166.906 0 0)
(167.903 0 0)
(168.894 0 0)
(169.88 0 0)
(170.86 0 0)
(171.834 0 0)
(172.803 0 0)
(173.769 0 0)
(174.717 0 0)
(175.698 0 0)
(176.557 0 0)
(177.768 0 0)
(100.991 0 0)
(101.173 0 0)
(101.459 0 0)
(101.84 0 0)
(102.306 0 0)
(102.849 0 0)
(103.46 0 0)
(104.133 0 0)
(104.86 0 0)
(105.636 0 0)
(106.455 0 0)
(107.312 0 0)
(108.203 0 0)
(109.124 0 0)
(110.071 0 0)
(111.041 0 0)
(112.032 0 0)
(113.04 0 0)
(114.065 0 0)
(115.103 0 0)
(116.153 0 0)
(117.214 0 0)
(118.284 0 0)
(119.361 0 0)
(120.445 0 0)
(121.535 0 0)
(122.629 0 0)
(123.727 0 0)
(124.828 0 0)
(125.931 0 0)
(127.036 0 0)
(128.142 0 0)
(129.249 0 0)
(130.355 0 0)
(131.462 0 0)
(132.567 0 0)
(133.672 0 0)
(134.775 0 0)
(135.876 0 0)
(136.975 0 0)
(138.072 0 0)
(139.166 0 0)
(140.258 0 0)
(141.346 0 0)
(142.432 0 0)
(143.513 0 0)
(144.592 0 0)
(145.667 0 0)
(146.737 0 0)
(147.804 0 0)
(148.867 0 0)
(149.926 0 0)
(150.98 0 0)
(152.03 0 0)
(153.075 0 0)
(154.116 0 0)
(155.152 0 0)
(156.183 0 0)
(157.209 0 0)
(158.231 0 0)
(159.247 0 0)
(160.259 0 0)
(161.265 0 0)
(162.266 0 0)
(163.262 0 0)
(164.253 0 0)
(165.238 0 0)
(166.218 0 0)
(167.193 0 0)
(168.162 0 0)
(169.126 0 0)
(170.084 0 0)
(171.038 0 0)
(171.984 0 0)
(172.929 0 0)
(173.857 0 0)
(174.815 0 0)
(175.656 0 0)
(176.837 0 0)
(101.153 0 0)
(101.423 0 0)
(101.784 0 0)
(102.227 0 0)
(102.743 0 0)
(103.327 0 0)
(103.969 0 0)
(104.666 0 0)
(105.409 0 0)
(106.195 0 0)
(107.019 0 0)
(107.877 0 0)
(108.764 0 0)
(109.678 0 0)
(110.615 0 0)
(111.573 0 0)
(112.549 0 0)
(113.541 0 0)
(114.548 0 0)
(115.567 0 0)
(116.596 0 0)
(117.636 0 0)
(118.683 0 0)
(119.738 0 0)
(120.799 0 0)
(121.864 0 0)
(122.934 0 0)
(124.008 0 0)
(125.084 0 0)
(126.162 0 0)
(127.242 0 0)
(128.323 0 0)
(129.404 0 0)
(130.486 0 0)
(131.567 0 0)
(132.647 0 0)
(133.726 0 0)
(134.804 0 0)
(135.88 0 0)
(136.955 0 0)
(138.027 0 0)
(139.096 0 0)
(140.163 0 0)
(141.227 0 0)
(142.288 0 0)
(143.346 0 0)
(144.4 0 0)
(145.451 0 0)
(146.498 0 0)
(147.541 0 0)
(148.58 0 0)
(149.615 0 0)
(150.646 0 0)
(151.673 0 0)
(152.695 0 0)
(153.713 0 0)
(154.726 0 0)
(155.735 0 0)
(156.738 0 0)
(157.737 0 0)
(158.731 0 0)
(159.721 0 0)
(160.705 0 0)
(161.684 0 0)
(162.658 0 0)
(163.627 0 0)
(164.591 0 0)
(165.549 0 0)
(166.503 0 0)
(167.451 0 0)
(168.393 0 0)
(169.33 0 0)
(170.263 0 0)
(171.188 0 0)
(172.112 0 0)
(173.019 0 0)
(173.955 0 0)
(174.778 0 0)
(175.93 0 0)
(101.397 0 0)
(101.74 0 0)
(102.163 0 0)
(102.656 0 0)
(103.213 0 0)
(103.828 0 0)
(104.495 0 0)
(105.209 0 0)
(105.964 0 0)
(106.756 0 0)
(107.582 0 0)
(108.437 0 0)
(109.318 0 0)
(110.224 0 0)
(111.15 0 0)
(112.094 0 0)
(113.055 0 0)
(114.031 0 0)
(115.019 0 0)
(116.019 0 0)
(117.028 0 0)
(118.046 0 0)
(119.072 0 0)
(120.104 0 0)
(121.142 0 0)
(122.184 0 0)
(123.231 0 0)
(124.28 0 0)
(125.332 0 0)
(126.386 0 0)
(127.442 0 0)
(128.498 0 0)
(129.555 0 0)
(130.612 0 0)
(131.669 0 0)
(132.725 0 0)
(133.779 0 0)
(134.833 0 0)
(135.885 0 0)
(136.935 0 0)
(137.983 0 0)
(139.028 0 0)
(140.071 0 0)
(141.112 0 0)
(142.149 0 0)
(143.183 0 0)
(144.214 0 0)
(145.241 0 0)
(146.265 0 0)
(147.285 0 0)
(148.302 0 0)
(149.314 0 0)
(150.322 0 0)
(151.326 0 0)
(152.326 0 0)
(153.322 0 0)
(154.313 0 0)
(155.299 0 0)
(156.281 0 0)
(157.258 0 0)
(158.231 0 0)
(159.198 0 0)
(160.161 0 0)
(161.119 0 0)
(162.071 0 0)
(163.019 0 0)
(163.962 0 0)
(164.899 0 0)
(165.832 0 0)
(166.759 0 0)
(167.681 0 0)
(168.597 0 0)
(169.509 0 0)
(170.414 0 0)
(171.317 0 0)
(172.204 0 0)
(173.119 0 0)
(173.924 0 0)
(175.047 0 0)
(101.708 0 0)
(102.112 0 0)
(102.584 0 0)
(103.118 0 0)
(103.707 0 0)
(104.347 0 0)
(105.032 0 0)
(105.758 0 0)
(106.52 0 0)
(107.316 0 0)
(108.14 0 0)
(108.991 0 0)
(109.865 0 0)
(110.76 0 0)
(111.674 0 0)
(112.605 0 0)
(113.55 0 0)
(114.508 0 0)
(115.479 0 0)
(116.459 0 0)
(117.449 0 0)
(118.446 0 0)
(119.45 0 0)
(120.46 0 0)
(121.476 0 0)
(122.495 0 0)
(123.519 0 0)
(124.545 0 0)
(125.574 0 0)
(126.604 0 0)
(127.636 0 0)
(128.669 0 0)
(129.702 0 0)
(130.735 0 0)
(131.768 0 0)
(132.8 0 0)
(133.831 0 0)
(134.861 0 0)
(135.889 0 0)
(136.916 0 0)
(137.941 0 0)
(138.963 0 0)
(139.983 0 0)
(141 0 0)
(142.014 0 0)
(143.025 0 0)
(144.034 0 0)
(145.038 0 0)
(146.04 0 0)
(147.037 0 0)
(148.032 0 0)
(149.022 0 0)
(150.008 0 0)
(150.99 0 0)
(151.968 0 0)
(152.942 0 0)
(153.911 0 0)
(154.876 0 0)
(155.837 0 0)
(156.793 0 0)
(157.744 0 0)
(158.69 0 0)
(159.632 0 0)
(160.569 0 0)
(161.501 0 0)
(162.428 0 0)
(163.35 0 0)
(164.267 0 0)
(165.179 0 0)
(166.086 0 0)
(166.987 0 0)
(167.884 0 0)
(168.775 0 0)
(169.66 0 0)
(170.543 0 0)
(171.411 0 0)
(172.305 0 0)
(173.093 0 0)
(174.189 0 0)
(102.075 0 0)
(102.528 0 0)
(103.04 0 0)
(103.606 0 0)
(104.22 0 0)
(104.879 0 0)
(105.577 0 0)
(106.311 0 0)
(107.077 0 0)
(107.872 0 0)
(108.693 0 0)
(109.537 0 0)
(110.403 0 0)
(111.287 0 0)
(112.188 0 0)
(113.104 0 0)
(114.033 0 0)
(114.975 0 0)
(115.927 0 0)
(116.888 0 0)
(117.858 0 0)
(118.835 0 0)
(119.818 0 0)
(120.807 0 0)
(121.8 0 0)
(122.798 0 0)
(123.799 0 0)
(124.802 0 0)
(125.808 0 0)
(126.816 0 0)
(127.825 0 0)
(128.834 0 0)
(129.844 0 0)
(130.854 0 0)
(131.864 0 0)
(132.873 0 0)
(133.882 0 0)
(134.889 0 0)
(135.894 0 0)
(136.898 0 0)
(137.9 0 0)
(138.899 0 0)
(139.897 0 0)
(140.891 0 0)
(141.883 0 0)
(142.873 0 0)
(143.859 0 0)
(144.841 0 0)
(145.821 0 0)
(146.797 0 0)
(147.769 0 0)
(148.738 0 0)
(149.703 0 0)
(150.664 0 0)
(151.62 0 0)
(152.573 0 0)
(153.521 0 0)
(154.466 0 0)
(155.405 0 0)
(156.34 0 0)
(157.271 0 0)
(158.197 0 0)
(159.118 0 0)
(160.035 0 0)
(160.947 0 0)
(161.854 0 0)
(162.756 0 0)
(163.653 0 0)
(164.545 0 0)
(165.432 0 0)
(166.313 0 0)
(167.19 0 0)
(168.062 0 0)
(168.927 0 0)
(169.791 0 0)
(170.639 0 0)
(171.513 0 0)
(172.285 0 0)
(173.353 0 0)
(102.485 0 0)
(102.978 0 0)
(103.522 0 0)
(104.113 0 0)
(104.746 0 0)
(105.418 0 0)
(106.125 0 0)
(106.863 0 0)
(107.63 0 0)
(108.423 0 0)
(109.239 0 0)
(110.075 0 0)
(110.931 0 0)
(111.803 0 0)
(112.691 0 0)
(113.592 0 0)
(114.505 0 0)
(115.429 0 0)
(116.363 0 0)
(117.306 0 0)
(118.256 0 0)
(119.213 0 0)
(120.175 0 0)
(121.143 0 0)
(122.115 0 0)
(123.091 0 0)
(124.07 0 0)
(125.052 0 0)
(126.036 0 0)
(127.021 0 0)
(128.008 0 0)
(128.995 0 0)
(129.983 0 0)
(130.97 0 0)
(131.958 0 0)
(132.945 0 0)
(133.931 0 0)
(134.915 0 0)
(135.899 0 0)
(136.88 0 0)
(137.86 0 0)
(138.838 0 0)
(139.813 0 0)
(140.786 0 0)
(141.757 0 0)
(142.724 0 0)
(143.689 0 0)
(144.65 0 0)
(145.609 0 0)
(146.564 0 0)
(147.515 0 0)
(148.463 0 0)
(149.407 0 0)
(150.347 0 0)
(151.283 0 0)
(152.215 0 0)
(153.143 0 0)
(154.067 0 0)
(154.986 0 0)
(155.901 0 0)
(156.812 0 0)
(157.718 0 0)
(158.619 0 0)
(159.516 0 0)
(160.408 0 0)
(161.295 0 0)
(162.178 0 0)
(163.055 0 0)
(163.928 0 0)
(164.796 0 0)
(165.658 0 0)
(166.515 0 0)
(167.368 0 0)
(168.215 0 0)
(169.059 0 0)
(169.888 0 0)
(170.743 0 0)
(171.498 0 0)
(172.539 0 0)
(102.93 0 0)
(103.454 0 0)
(104.024 0 0)
(104.634 0 0)
(105.281 0 0)
(105.962 0 0)
(106.674 0 0)
(107.414 0 0)
(108.18 0 0)
(108.968 0 0)
(109.777 0 0)
(110.604 0 0)
(111.449 0 0)
(112.309 0 0)
(113.182 0 0)
(114.068 0 0)
(114.966 0 0)
(115.873 0 0)
(116.789 0 0)
(117.712 0 0)
(118.643 0 0)
(119.58 0 0)
(120.523 0 0)
(121.47 0 0)
(122.422 0 0)
(123.376 0 0)
(124.334 0 0)
(125.295 0 0)
(126.257 0 0)
(127.221 0 0)
(128.185 0 0)
(129.151 0 0)
(130.117 0 0)
(131.083 0 0)
(132.049 0 0)
(133.014 0 0)
(133.978 0 0)
(134.941 0 0)
(135.903 0 0)
(136.864 0 0)
(137.822 0 0)
(138.778 0 0)
(139.733 0 0)
(140.685 0 0)
(141.634 0 0)
(142.581 0 0)
(143.524 0 0)
(144.465 0 0)
(145.403 0 0)
(146.337 0 0)
(147.268 0 0)
(148.195 0 0)
(149.119 0 0)
(150.039 0 0)
(150.955 0 0)
(151.867 0 0)
(152.776 0 0)
(153.68 0 0)
(154.579 0 0)
(155.475 0 0)
(156.366 0 0)
(157.252 0 0)
(158.135 0 0)
(159.012 0 0)
(159.885 0 0)
(160.753 0 0)
(161.616 0 0)
(162.475 0 0)
(163.329 0 0)
(164.177 0 0)
(165.021 0 0)
(165.86 0 0)
(166.694 0 0)
(167.521 0 0)
(168.347 0 0)
(169.158 0 0)
(169.993 0 0)
(170.733 0 0)
(171.748 0 0)
(103.402 0 0)
(103.951 0 0)
(104.54 0 0)
(105.164 0 0)
(105.821 0 0)
(106.508 0 0)
(107.222 0 0)
(107.961 0 0)
(108.723 0 0)
(109.505 0 0)
(110.306 0 0)
(111.124 0 0)
(111.957 0 0)
(112.804 0 0)
(113.663 0 0)
(114.534 0 0)
(115.414 0 0)
(116.304 0 0)
(117.203 0 0)
(118.108 0 0)
(119.02 0 0)
(119.938 0 0)
(120.861 0 0)
(121.788 0 0)
(122.719 0 0)
(123.653 0 0)
(124.591 0 0)
(125.53 0 0)
(126.471 0 0)
(127.414 0 0)
(128.358 0 0)
(129.303 0 0)
(130.248 0 0)
(131.192 0 0)
(132.137 0 0)
(133.081 0 0)
(134.025 0 0)
(134.967 0 0)
(135.908 0 0)
(136.847 0 0)
(137.785 0 0)
(138.721 0 0)
(139.655 0 0)
(140.586 0 0)
(141.515 0 0)
(142.441 0 0)
(143.365 0 0)
(144.286 0 0)
(145.203 0 0)
(146.117 0 0)
(147.029 0 0)
(147.936 0 0)
(148.84 0 0)
(149.741 0 0)
(150.637 0 0)
(151.53 0 0)
(152.419 0 0)
(153.304 0 0)
(154.184 0 0)
(155.061 0 0)
(155.933 0 0)
(156.8 0 0)
(157.664 0 0)
(158.522 0 0)
(159.376 0 0)
(160.226 0 0)
(161.071 0 0)
(161.911 0 0)
(162.746 0 0)
(163.576 0 0)
(164.402 0 0)
(165.222 0 0)
(166.038 0 0)
(166.847 0 0)
(167.655 0 0)
(168.448 0 0)
(169.264 0 0)
(169.988 0 0)
(170.978 0 0)
(103.895 0 0)
(104.463 0 0)
(105.065 0 0)
(105.7 0 0)
(106.363 0 0)
(107.053 0 0)
(107.767 0 0)
(108.503 0 0)
(109.259 0 0)
(110.034 0 0)
(110.826 0 0)
(111.633 0 0)
(112.454 0 0)
(113.287 0 0)
(114.132 0 0)
(114.987 0 0)
(115.852 0 0)
(116.725 0 0)
(117.606 0 0)
(118.493 0 0)
(119.386 0 0)
(120.285 0 0)
(121.189 0 0)
(122.097 0 0)
(123.008 0 0)
(123.922 0 0)
(124.839 0 0)
(125.759 0 0)
(126.68 0 0)
(127.602 0 0)
(128.526 0 0)
(129.45 0 0)
(130.374 0 0)
(131.299 0 0)
(132.223 0 0)
(133.147 0 0)
(134.07 0 0)
(134.992 0 0)
(135.912 0 0)
(136.832 0 0)
(137.749 0 0)
(138.665 0 0)
(139.579 0 0)
(140.49 0 0)
(141.4 0 0)
(142.306 0 0)
(143.21 0 0)
(144.111 0 0)
(145.009 0 0)
(145.904 0 0)
(146.796 0 0)
(147.685 0 0)
(148.569 0 0)
(149.451 0 0)
(150.329 0 0)
(151.202 0 0)
(152.072 0 0)
(152.938 0 0)
(153.8 0 0)
(154.658 0 0)
(155.512 0 0)
(156.361 0 0)
(157.206 0 0)
(158.046 0 0)
(158.882 0 0)
(159.714 0 0)
(160.54 0 0)
(161.362 0 0)
(162.18 0 0)
(162.992 0 0)
(163.8 0 0)
(164.602 0 0)
(165.4 0 0)
(166.192 0 0)
(166.982 0 0)
(167.758 0 0)
(168.555 0 0)
(169.264 0 0)
(170.229 0 0)
(104.403 0 0)
(104.985 0 0)
(105.597 0 0)
(106.238 0 0)
(106.904 0 0)
(107.594 0 0)
(108.306 0 0)
(109.038 0 0)
(109.788 0 0)
(110.554 0 0)
(111.336 0 0)
(112.131 0 0)
(112.94 0 0)
(113.76 0 0)
(114.59 0 0)
(115.43 0 0)
(116.278 0 0)
(117.134 0 0)
(117.998 0 0)
(118.867 0 0)
(119.743 0 0)
(120.623 0 0)
(121.508 0 0)
(122.396 0 0)
(123.289 0 0)
(124.184 0 0)
(125.081 0 0)
(125.981 0 0)
(126.882 0 0)
(127.785 0 0)
(128.688 0 0)
(129.593 0 0)
(130.497 0 0)
(131.402 0 0)
(132.306 0 0)
(133.21 0 0)
(134.114 0 0)
(135.016 0 0)
(135.917 0 0)
(136.817 0 0)
(137.715 0 0)
(138.611 0 0)
(139.506 0 0)