/*--------------------------------*- C++ -*----------------------------------*\
| =========                 |                                                 |
| \\      /  F ield         | OpenFOAM: The Open Source CFD Toolbox           |
|  \\    /   O peration     | Version:  2312                                  |
|   \\  /    A nd           | Website:  www.openfoam.com                      |
|    \\/     M anipulation  |                                                 |
\*---------------------------------------------------------------------------*/
FoamFile
{
    version     2.0;
    format      ascii;
    arch        "LSB;label=32;scalar=64";
    class       surfaceScalarField;
    location    "0.95";
    object      phi;
}
// * * * * * * * * * * * * * * * * * * * * * * * * * * * * * * * * * * * * * //

dimensions      [0 3 -1 0 0 0 0];

oriented        oriented;

internalField   nonuniform List<scalar> 
62015
(
55.1779
0.290393
-56.1839
54.1629
0.28072
53.1381
0.270977
52.102
0.261173
51.0532
0.251312
49.9898
0.241404
48.91
0.231455
47.8115
0.221471
46.6917
0.211459
45.5476
0.201427
44.3757
0.19138
43.1722
0.181325
41.9326
0.17127
40.6518
0.161221
39.3244
0.151186
37.9452
0.141177
36.5105
0.131212
35.021
0.121322
33.488
0.111566
31.9394
0.102045
30.4221
0.0929063
28.9963
0.0843237
27.7209
0.0764474
26.6382
0.0693588
25.7652
0.0630503
25.096
0.0574391
24.609
0.0524009
24.2759
0.0478024
24.0685
0.0435217
23.9614
0.0394573
23.934
0.0355294
23.9697
0.0316773
24.0558
0.027856
24.1824
0.0240313
24.3419
0.0201789
24.5287
0.0162799
24.7383
0.0123214
24.9671
0.00829289
25.2125
0.00418748
25.4724
0
25.745
-0.00427325
26.0291
-0.00863417
26.3235
-0.0130848
26.6275
-0.017625
26.9403
-0.0222552
27.2614
-0.0269744
27.5903
-0.031782
27.9267
-0.0366761
28.2702
-0.0416556
28.6208
-0.046718
28.9782
-0.0518613
29.3422
-0.0570832
29.7128
-0.0623812
30.0898
-0.0677523
30.4733
-0.0731938
30.8632
-0.0787026
31.2594
-0.0842759
31.662
-0.0899102
32.0709
-0.0956024
32.4861
-0.101349
32.9078
-0.107146
33.3358
-0.112991
33.7702
-0.11888
34.211
-0.124809
34.6583
-0.130774
35.1121
-0.136772
35.5723
-0.142799
36.0391
-0.14885
36.5124
-0.154923
36.9923
-0.161013
37.4788
-0.167117
37.9719
-0.173229
38.4715
-0.179347
38.9782
-0.185464
39.4899
-0.191586
40.0134
-0.197676
40.5277
-0.203831
41.0977
-0.209733
-0.216362
41.5236
52.8881
0.565118
-53.8606
51.9064
0.546197
50.915
0.527141
49.9124
0.507964
48.8972
0.48868
47.8677
0.469301
46.8219
0.449841
45.7576
0.430314
44.6721
0.410732
43.5626
0.391108
42.4256
0.371455
41.2573
0.351786
40.0534
0.332115
38.8091
0.312456
37.5194
0.292829
36.18
0.27326
34.789
0.253794
33.3505
0.23451
31.8805
0.215554
30.4114
0.197154
28.9922
0.179617
27.6793
0.163267
26.5229
0.148348
25.5545
0.134956
24.7825
0.123025
24.1959
0.112365
23.7725
0.102732
23.4858
0.0938764
23.3102
0.0855771
23.2236
0.0776534
23.2078
0.0699636
23.2484
0.0623998
23.3344
0.0548814
23.457
0.0473484
23.6096
0.0397558
23.7873
0.0320705
23.9859
0.0242681
24.2024
0.0163303
24.4344
0.00824412
24.68
0
24.9377
-0.00840855
25.2061
-0.0169857
25.4844
-0.025734
25.7718
-0.0346545
26.0677
-0.0437465
26.3714
-0.0530094
26.6828
-0.0624408
27.0013
-0.072038
27.3267
-0.081798
27.6589
-0.0917167
27.9976
-0.10179
28.3428
-0.112013
28.6943
-0.122381
29.052
-0.132889
29.416
-0.143531
29.7861
-0.154301
30.1624
-0.165194
30.5448
-0.176203
30.9333
-0.187321
31.328
-0.198543
31.7287
-0.209862
32.1357
-0.22127
32.5488
-0.232761
32.9681
-0.244327
33.3936
-0.255962
33.8253
-0.267658
34.2633
-0.279408
34.7076
-0.291204
35.1581
-0.303038
35.615
-0.314904
36.0782
-0.326793
36.5478
-0.338698
37.0235
-0.350611
37.5062
-0.362521
37.9936
-0.374436
38.4922
-0.38629
38.9824
-0.398264
39.5245
-0.409757
-0.422615
39.9345
50.6535
0.824367
-51.5943
49.7036
0.796608
48.7441
0.768653
47.7734
0.740521
46.7903
0.712231
45.7929
0.683802
44.7793
0.655254
43.7472
0.626606
42.6941
0.597876
41.6172
0.569083
40.513
0.540246
39.3777
0.511384
38.2074
0.482518
36.9974
0.453674
35.7435
0.424883
34.4427
0.396197
33.0954
0.3677
31.7099
0.339546
30.3072
0.311996
28.9237
0.285429
27.6083
0.260304
26.412
0.237048
25.3749
0.215936
24.5183
0.197012
23.8429
0.180112
23.3344
0.164931
22.9705
0.151114
22.7269
0.138316
22.581
0.126242
22.5133
0.114651
22.5083
0.103355
22.5535
0.0922129
22.6393
0.0811165
22.7582
0.0699856
22.9044
0.0587603
23.0735
0.047396
23.2619
0.0358593
23.4669
0.0241254
23.6863
0.0121768
23.9185
0
24.162
-0.0124136
24.4157
-0.0250697
24.6788
-0.0379717
24.9506
-0.0511208
25.2304
-0.0645167
25.5178
-0.078157
25.8125
-0.0920395
26.1141
-0.10616
26.4224
-0.120513
26.7372
-0.135094
27.0583
-0.149896
27.3856
-0.164912
27.719
-0.180136
28.0585
-0.19556
28.404
-0.211176
28.7554
-0.226975
29.1128
-0.242948
29.476
-0.259087
29.8452
-0.275383
30.2204
-0.291825
30.6014
-0.308404
30.9884
-0.32511
31.3813
-0.341934
31.7802
-0.358864
32.185
-0.37589
32.5959
-0.393002
33.0128
-0.410189
33.4357
-0.42744
33.8646
-0.444743
34.2997
-0.462089
34.7408
-0.479466
35.188
-0.496861
35.6412
-0.514267
36.1009
-0.531663
36.5654
-0.549064
37.0403
-0.566375
37.5077
-0.58385
38.0234
-0.600642
-0.61936
38.4168
48.4908
1.06861
-49.4012
47.5713
1.03241
46.6421
0.995951
45.7019
0.959261
44.7491
0.922364
43.7822
0.885286
42.799
0.848051
41.7975
0.810683
40.775
0.773207
39.7287
0.735646
38.6553
0.698026
37.5511
0.660372
36.4124
0.622715
35.2349
0.585091
34.0155
0.547555
32.7527
0.510192
31.4501
0.47315
30.1204
0.436686
28.7894
0.401202
27.4963
0.367236
26.2879
0.335368
25.2079
0.306072
24.2864
0.279579
23.5354
0.255836
22.9495
0.234555
22.5125
0.215319
22.2027
0.197679
21.9982
0.18122
21.8791
0.16559
21.8287
0.150506
21.8335
0.13575
21.8829
0.121154
21.9686
0.106593
22.0841
0.0919702
22.2243
0.0772156
22.3854
0.0622755
22.5643
0.0471097
22.7586
0.0316887
22.9663
0.0159907
23.1858
0
23.4161
-0.0162941
23.656
-0.0328986
23.9049
-0.0498174
24.1619
-0.0670515
24.4267
-0.0846004
24.6987
-0.102462
24.9777
-0.120631
25.2634
-0.139104
25.5555
-0.157873
25.8538
-0.176933
26.1583
-0.196274
26.4687
-0.215887
26.7851
-0.235765
27.1073
-0.255897
27.4352
-0.276272
27.769
-0.296879
28.1085
-0.317708
28.4536
-0.338747
28.8045
-0.359983
29.1611
-0.381405
29.5234
-0.403
29.8915
-0.424754
30.2653
-0.446656
30.6448
-0.468691
31.03
-0.490847
31.4211
-0.513108
31.8179
-0.535462
32.2206
-0.557895
32.629
-0.580391
33.0433
-0.602938
33.4635
-0.62552
33.8895
-0.648122
34.3212
-0.670733
34.7592
-0.693327
35.2018
-0.715924
35.6543
-0.738401
36.1
-0.76108
36.5908
-0.782889
-0.807129
36.9677
46.4064
1.29842
-47.2877
45.516
1.25414
44.6159
1.20956
43.7048
1.16469
42.7811
1.11957
41.8432
1.07422
40.8892
1.02869
39.9167
0.982981
38.9233
0.937142
37.9061
0.891196
36.8621
0.845176
35.7876
0.799114
34.6791
0.753054
33.5333
0.707049
32.3479
0.661184
31.1238
0.615596
29.8681
0.570525
28.5983
0.526359
27.3439
0.483659
26.1449
0.443106
25.0441
0.40535
24.077
0.37084
23.2642
0.33971
22.6099
0.311772
22.1047
0.286615
21.7312
0.263721
21.4691
0.242567
21.299
0.222686
21.2034
0.203691
21.1681
0.185271
21.1814
0.167187
21.2343
0.149254
21.3196
0.131335
21.4317
0.113322
21.5662
0.0951384
21.7198
0.0767225
21.8898
0.05803
22.074
0.0390274
22.2706
0.0196899
22.4784
0
22.6962
-0.0200545
22.9232
-0.0404814
23.1586
-0.0612849
23.4018
-0.0824661
23.6524
-0.104024
23.91
-0.125955
24.1742
-0.148255
24.4448
-0.170918
24.7216
-0.193934
25.0045
-0.217297
25.2932
-0.240996
25.5877
-0.26502
25.8879
-0.289359
26.1937
-0.314
26.5052
-0.33893
26.8221
-0.364138
27.1447
-0.389608
27.4727
-0.415327
27.8062
-0.441281
28.1453
-0.467454
28.4898
-0.493831
28.8399
-0.520397
29.1955
-0.547136
29.5567
-0.574031
29.9233
-0.601066
30.2956
-0.628225
30.6734
-0.655491
31.0568
-0.682846
31.4458
-0.710274
31.8404
-0.737756
32.2405
-0.765277
32.6464
-0.792816
33.0577
-0.820361
33.4751
-0.84788
33.8968
-0.875396
34.3281
-0.902763
34.753
-0.930365
35.2203
-0.956924
-0.986369
35.581
44.4016
1.51433
-45.2549
43.5392
1.46235
42.667
1.41001
41.7838
1.35732
40.8881
1.30434
39.978
1.2511
39.0518
1.19762
38.1072
1.14395
37.1416
1.09011
36.1524
1.03614
35.1365
0.982092
34.0906
0.927995
33.0116
0.87391
31.897
0.81992
30.7461
0.76615
29.5625
0.712817
28.3572
0.660277
27.1518
0.609076
25.9784
0.559931
24.8758
0.513623
23.881
0.47081
23.0211
0.431852
22.3084
0.396741
21.7411
0.365144
21.3072
0.336534
20.9892
0.310311
20.7686
0.285902
20.6281
0.262805
20.5527
0.240611
20.5302
0.218995
20.5506
0.197702
20.6061
0.176542
20.6906
0.155365
20.7993
0.134061
20.9283
0.112544
21.0748
0.0907493
21.2363
0.0686295
21.4109
0.0461479
21.5972
0.0232777
21.7939
0
22
-0.0236985
22.2148
-0.047826
22.4375
-0.0723868
22.6677
-0.0973821
22.905
-0.12281
23.1489
-0.148667
23.3991
-0.174947
23.6556
-0.201643
23.9179
-0.228745
24.1861
-0.256243
24.46
-0.284127
24.7394
-0.312383
25.0243
-0.340999
25.3147
-0.36996
25.6105
-0.399252
25.9116
-0.42886
26.218
-0.458768
26.5298
-0.488959
26.8469
-0.519417
27.1693
-0.550124
27.497
-0.581062
27.83
-0.612214
28.1684
-0.64356
28.5121
-0.675082
28.8611
-0.706761
29.2155
-0.738577
29.5752
-0.770512
29.9403
-0.802544
30.3108
-0.834654
30.6866
-0.866822
31.0679
-0.899027
31.4546
-0.931248
31.8465
-0.963469
32.2442
-0.995653
32.6462
-1.02783
33.0571
-1.05982
33.4622
-1.09208
33.9073
-1.12314
-1.15749
34.2523
42.4749
1.7169
-43.3012
41.6394
1.65756
40.7941
1.59779
39.9378
1.53765
39.0689
1.47715
38.1856
1.41636
37.2861
1.35529
36.3682
1.294
35.4295
1.23252
34.4672
1.17089
33.4785
1.10916
32.4605
1.04739
31.4106
0.985654
30.3274
0.924077
29.2122
0.862849
28.0718
0.802289
26.9209
0.742898
25.7845
0.685387
24.6955
0.630603
23.6897
0.579371
22.7974
0.532286
22.0375
0.489567
21.4157
0.451039
20.9256
0.416233
20.554
0.38452
20.284
0.355243
20.0991
0.327794
19.9839
0.301656
19.9257
0.276409
19.9139
0.25172
19.94
0.227331
19.9973
0.203043
20.0807
0.178706
20.1858
0.154203
20.3095
0.129446
20.4491
0.104368
20.6026
0.078917
20.7682
0.0530563
20.9447
0.0267575
21.1309
0
21.326
-0.0272296
21.5292
-0.0549397
21.7401
-0.0831349
21.958
-0.111816
22.1826
-0.14098
22.4136
-0.170624
22.6508
-0.200739
22.8938
-0.231318
23.1425
-0.26235
23.3968
-0.293824
23.6566
-0.325727
23.9218
-0.358044
24.1923
-0.390762
24.468
-0.423863
24.7489
-0.457332
25.035
-0.491151
25.3262
-0.525302
25.6226
-0.559767
25.9241
-0.594526
26.2307
-0.62956
26.5425
-0.664848
26.8593
-0.700371
27.1813
-0.736107
27.5084
-0.772035
27.8407
-0.808132
28.1781
-0.844379
28.5206
-0.880751
28.8683
-0.917227
29.2212
-0.953784
29.5793
-0.990399
29.9425
-1.02705
30.311
-1.06371
30.6845
-1.10036
31.0635
-1.13697
31.4466
-1.17355
31.8383
-1.20993
32.2246
-1.24658
32.6485
-1.2819
-1.32087
32.9784
40.6238
1.90661
-41.4241
39.8143
1.84024
38.9949
1.77339
38.1644
1.70611
37.3213
1.63845
36.4638
1.57043
35.59
1.50212
34.6979
1.43354
33.785
1.36475
32.8487
1.29579
31.8865
1.22673
30.8959
1.15765
29.8751
1.08865
28.8241
1.0199
27.7467
0.951694
26.6527
0.884476
25.5606
0.818913
24.4972
0.755865
23.4948
0.696264
22.5843
0.640911
21.7894
0.590271
21.1216
0.544388
20.5812
0.502922
20.1591
0.465277
19.8415
0.430749
19.6129
0.398644
19.4584
0.368338
19.3648
0.33931
19.3211
0.311137
19.3181
0.283488
19.3487
0.256103
19.4072
0.228784
19.4891
0.201378
19.5906
0.173767
19.709
0.14586
19.8421
0.117589
19.9878
0.0889017
20.1449
0.0597591
20.3121
0.0301321
20.4885
0
20.6731
-0.0306512
20.8655
-0.0618301
21.0651
-0.0935407
21.2715
-0.125784
21.4842
-0.158556
21.7031
-0.191852
21.9278
-0.225664
22.1581
-0.259983
22.394
-0.294797
22.6352
-0.330092
22.8817
-0.365856
23.1334
-0.402072
23.3902
-0.438723
23.652
-0.475792
23.9189
-0.513261
24.1907
-0.55111
24.4676
-0.589319
24.7493
-0.627868
25.036
-0.666736
25.3277
-0.7059
25.6243
-0.745339
25.9258
-0.785029
26.2322
-0.824948
26.5436
-0.865071
26.8599
-0.905375
27.1812
-0.945835
27.5075
-0.986426
27.8387
-1.02712
28.1748
-1.0679
28.516
-1.10874
28.8621
-1.14961
29.2132
-1.19048
29.5692
-1.23133
29.9304
-1.27212
30.2956
-1.31288
30.6689
-1.3534
31.0373
-1.39422
31.4412
-1.43357
-1.47688
31.7567
38.8456
2.08395
-39.6208
38.061
2.01086
37.2666
1.93725
36.461
1.86316
35.6427
1.78864
34.81
1.71373
33.9611
1.63848
33.0937
1.56295
32.2058
1.48717
31.2949
1.41122
30.3587
1.33517
29.3952
1.25913
28.4039
1.18325
27.3865
1.10778
26.3494
1.03312
25.3057
0.959877
24.2765
0.888876
23.2893
0.821097
22.3739
0.757493
21.5559
0.698765
20.852
0.645206
20.2679
0.596669
19.7998
0.552658
19.4371
0.512477
19.1663
0.47537
18.9731
0.440625
18.8446
0.407616
18.7692
0.375827
18.7376
0.344843
18.7419
0.314335
18.7761
0.28405
18.8351
0.25379
18.9151
0.223402
19.013
0.192768
19.1263
0.161799
19.253
0.130425
19.3915
0.0985923
19.5405
0.0662621
19.6989
0.033405
19.8659
0
20.0407
-0.033967
20.2229
-0.0685042
20.4119
-0.103616
20.6073
-0.139301
20.8088
-0.175557
21.0161
-0.212377
21.2291
-0.249753
21.4475
-0.287674
21.6712
-0.326127
21.9
-0.365098
22.134
-0.404571
22.3729
-0.444529
22.6167
-0.484954
22.8654
-0.525827
23.119
-0.567127
23.3774
-0.608834
23.6405
-0.650925
23.9085
-0.693379
24.1811
-0.736172
24.4586
-0.779279
24.7408
-0.822678
25.0277
-0.866342
25.3194
-0.910246
25.6159
-0.954366
25.9171
-0.998673
26.2231
-1.04314
26.5338
-1.08775
26.8494
-1.13246
27.1697
-1.17725
27.4947
-1.22209
27.8245
-1.26696
28.1592
-1.31182
28.4985
-1.35665
28.8428
-1.40141
29.191
-1.44612
29.5469
-1.49057
29.8982
-1.53532
30.283
-1.57849
-1.62589
30.5848
37.1373
2.24936
-37.8884
36.3769
2.16986
35.6065
2.08979
34.8249
2.0092
34.0305
1.92813
33.2217
1.84663
32.3966
1.76476
31.5533
1.68257
30.6896
1.60013
29.8034
1.51752
28.8929
1.43482
27.9568
1.35219
26.9959
1.26985
26.014
1.18814
25.0204
1.10761
24.0308
1.02903
23.0681
0.95337
22.1591
0.881675
21.3297
0.814841
20.5997
0.753413
19.9798
0.697481
19.4709
0.646712
19.0665
0.600475
18.7554
0.558002
18.5249
0.518508
18.3621
0.481278
18.2557
0.445698
18.1957
0.411262
18.1742
0.377568
18.1844
0.344297
18.2212
0.311199
18.2803
0.278083
18.3583
0.244797
18.4525
0.211225
18.5608
0.177278
18.6814
0.142886
18.8129
0.107998
18.9542
0.0725715
19.1043
0.0365793
19.2625
0
19.4281
-0.0371802
19.6006
-0.0749695
19.7795
-0.113371
19.9646
-0.152384
20.1555
-0.192005
20.352
-0.232225
20.5539
-0.273037
20.761
-0.314428
20.9732
-0.356383
21.1903
-0.398888
21.4124
-0.441926
21.6392
-0.485478
21.8708
-0.529524
22.1071
-0.574044
22.348
-0.619015
22.5936
-0.664416
22.8438
-0.710222
23.0986
-0.756409
23.358
-0.802952
23.622
-0.849826
23.8906
-0.897003
24.1637
-0.944457
24.4414
-0.992161
24.7237
-1.04009
25.0106
-1.08821
25.302
-1.13649
25.598
-1.18491
25.8986
-1.23343
26.2038
-1.28203
26.5136
-1.33068
26.828
-1.37934
27.147
-1.42799
27.4704
-1.47659
27.7987
-1.52511
28.1307
-1.57356
28.47
-1.62173
28.8051
-1.6702
29.1717
-1.71698
-1.76823
29.4605
35.4964
2.40327
-36.2242
34.7592
2.31766
34.0119
2.23142
33.2534
2.14462
32.482
2.05729
31.6962
1.9695
30.8943
1.88131
30.0742
1.79277
29.2342
1.70398
28.3723
1.61501
27.4873
1.52602
26.5792
1.43719
25.6501
1.34883
24.7063
1.26143
23.7595
1.17567
22.8278
1.0925
21.9345
1.01299
21.1041
0.938175
20.358
0.868824
19.7106
0.805285
19.1672
0.747435
18.7252
0.694773
18.3767
0.646565
18.1103
0.601994
17.9144
0.560269
17.7775
0.520685
17.6898
0.482645
17.6429
0.445663
17.6297
0.409352
17.6448
0.373403
17.6835
0.337577
17.7422
0.301685
17.818
0.265582
17.9085
0.229153
18.012
0.19231
18.1268
0.154985
18.2517
0.117126
18.3856
0.0786931
18.5279
0.0396579
18.6777
0
18.8345
-0.0402941
18.9979
-0.0812323
19.1674
-0.122817
19.3427
-0.165047
19.5236
-0.207917
19.7099
-0.25142
19.9013
-0.295545
20.0977
-0.340278
20.299
-0.385606
20.5051
-0.431511
20.7159
-0.477975
20.9313
-0.524979
21.1513
-0.5725
21.3758
-0.620517
21.6048
-0.669007
21.8383
-0.717945
22.0762
-0.767306
22.3186
-0.817064
22.5654
-0.867191
22.8166
-0.917661
23.0722
-0.968446
23.3322
-1.01952
23.5966
-1.07084
23.8655
-1.12239
24.1387
-1.17414
24.4164
-1.22605
24.6984
-1.2781
24.9849
-1.33025
25.2757
-1.38247
25.571
-1.43473
25.8707
-1.48699
26.1747
-1.53923
26.4831
-1.59141
26.7962
-1.64349
27.1127
-1.69549
27.4362
-1.74717
27.756
-1.79915
28.1053
-1.84935
-1.90423
28.3816
33.9202
2.54612
-34.6255
33.2053
2.45466
32.4803
2.36254
31.744
2.2698
30.9948
2.1765
30.2313
2.0827
29.4517
1.98847
28.6543
1.89388
27.8374
1.79904
26.9996
1.70406
26.1406
1.60913
25.2614
1.51451
24.366
1.42064
23.4631
1.32814
22.5667
1.23788
21.6961
1.1509
20.8738
1.06834
20.121
0.991149
19.4545
0.919913
18.8833
0.854756
18.4088
0.795355
18.0261
0.741067
17.7262
0.691086
17.4984
0.644573
17.3321
0.600743
17.2174
0.558913
17.1456
0.518511
17.1096
0.479073
17.1034
0.440228
17.1222
0.401683
17.1622
0.363207
17.2202
0.324618
17.2936
0.285775
17.3806
0.246567
17.4793
0.206908
17.5885
0.166731
17.7071
0.125985
17.8342
0.0846324
17.969
0.0426439
18.1109
0
18.2594
-0.0433122
18.4142
-0.0872997
18.5747
-0.131964
18.7409
-0.177305
18.9123
-0.223314
19.0889
-0.269985
19.2704
-0.317305
19.4567
-0.36526
19.6478
-0.413835
19.8434
-0.463011
20.0435
-0.512769
20.2481
-0.563088
20.4571
-0.613946
20.6705
-0.665318
20.8882
-0.717181
21.1102
-0.769507
21.3365
-0.822271
21.5671
-0.875444
21.802
-0.928998
22.041
-0.982904
22.2844
-1.03713
22.532
-1.09165
22.7838
-1.14643
23.0399
-1.20144
23.3002
-1.25664
23.5647
-1.31201
23.8335
-1.36751
24.1065
-1.4231
24.3837
-1.47876
24.6652
-1.53445
24.9509
-1.59013
25.2408
-1.64578
25.5349
-1.70135
25.8334
-1.7568
26.1353
-1.81215
26.4438
-1.86716
26.7489
-1.92247
27.0818
-1.9759
-2.03419
27.3462
32.4062
2.67829
-33.0899
31.7128
2.58126
31.0093
2.48351
30.2944
2.3851
29.5666
2.2861
28.8246
2.18656
28.0667
2.08658
27.2914
1.98624
26.4974
1.88565
25.6839
1.785
24.8514
1.68452
24.0025
1.58459
23.1433
1.48577
22.2845
1.38884
21.4418
1.29481
20.6346
1.20484
19.8836
1.12
19.2061
1.04111
18.6143
0.968526
18.1127
0.902151
17.6998
0.841484
17.3689
0.785776
17.1112
0.734174
16.9167
0.685839
16.7758
0.640007
16.6799
0.596023
16.6216
0.553344
16.5947
0.511531
16.5942
0.470231
16.616
0.429165
16.6568
0.388113
16.7138
0.346901
16.7848
0.305393
16.8682
0.263482
16.9624
0.221084
17.0663
0.178135
17.1788
0.134584
17.2993
0.0903951
17.4271
0.04554
17.5615
0
17.7023
-0.0462371
17.8488
-0.0931778
18.001
-0.140823
18.1584
-0.189171
18.321
-0.238213
18.4884
-0.287942
18.6606
-0.338344
18.8373
-0.389404
19.0186
-0.441106
19.2044
-0.49343
19.3944
-0.546356
19.5888
-0.599861
19.7874
-0.653922
19.9902
-0.708513
20.1972
-0.763609
20.4084
-0.819182
20.6237
-0.875204
20.8431
-0.931645
21.0666
-0.988475
21.2942
-1.04566
21.5259
-1.10318
21.7616
-1.16099
22.0015
-1.21907
22.2454
-1.27737
22.4934
-1.33586
22.7455
-1.39452
23.0017
-1.4533
23.2619
-1.51217
23.5262
-1.5711
23.7946
-1.63004
24.067
-1.68897
24.3435
-1.74784
24.6239
-1.80663
24.9086
-1.86527
25.1966
-1.9238
25.4908
-1.98196
25.782
-2.04041
26.0993
-2.09691
-2.1584
26.3524
30.9519
2.80017
-31.6149
30.2793
2.69781
29.5965
2.5947
28.9022
2.49088
28.1952
2.38644
27.4741
2.28144
26.7374
2.17598
25.9838
2.07017
25.2127
1.96418
24.4239
1.85822
23.619
1.75262
22.8023
1.64789
21.982
1.54473
21.1703
1.44409
20.384
1.34711
19.6416
1.25492
18.9609
1.16852
18.3553
1.08851
17.8325
1.01502
17.3937
0.947743
17.0352
0.886024
16.7497
0.829047
16.5285
0.775939
16.3625
0.725877
16.2433
0.678127
16.1634
0.632068
16.1164
0.587188
16.0973
0.543072
16.1015
0.499388
16.1255
0.455873
16.1666
0.412317
16.2224
0.368553
16.291
0.324453
16.3708
0.279912
16.4607
0.234851
16.5594
0.189206
16.6663
0.14293
16.7806
0.0959862
16.9017
0.0483491
17.0291
0
17.1624
-0.0490722
17.3013
-0.0988729
17.4455
-0.149403
17.5947
-0.200658
17.7488
-0.252632
17.9076
-0.305313
18.0709
-0.358688
18.2387
-0.412742
18.4108
-0.467456
18.5872
-0.52281
18.7677
-0.578782
18.9524
-0.635349
19.1412
-0.692487
19.334
-0.750167
19.5308
-0.808364
19.7317
-0.867048
19.9365
-0.926189
20.1453
-0.985758
20.3581
-1.04572
20.5748
-1.10605
20.7954
-1.16671
21.02
-1.22766
21.2485
-1.28887
21.4809
-1.35032
21.7173
-1.41195
21.9575
-1.47374
22.2017
-1.53564
22.4498
-1.59763
22.7018
-1.65966
22.9577
-1.7217
23.2175
-1.78371
23.4812
-1.84564
23.7487
-1.90747
24.0202
-1.96914
24.295
-2.03068
24.5757
-2.09182
24.8535
-2.15324
25.156
-2.21264
-2.27714
25.3983
29.5553
2.91212
-30.1983
28.9026
2.80469
28.2397
2.69646
27.5654
2.58748
26.8785
2.47785
26.1777
2.36765
25.4618
2.257
24.7299
2.14604
23.9818
2.03497
23.2184
1.9241
22.4427
1.81387
21.6606
1.70492
20.8819
1.59812
20.1203
1.49454
19.3923
1.39538
18.7148
1.30173
18.1021
1.21441
17.5639
1.13377
17.1042
1.05971
16.7216
0.991757
16.4109
0.929141
16.1648
0.871003
15.9751
0.816475
15.8335
0.764759
15.7328
0.715161
15.6665
0.667094
15.6292
0.62008
15.6164
0.573729
15.6244
0.527729
15.6501
0.481832
15.6912
0.435839
15.7456
0.389594
15.8117
0.342971
15.8881
0.295872
15.9737
0.24822
16.0676
0.199954
16.1691
0.15103
16.2774
0.101411
16.3922
0.0510736
16.513
0
16.6393
-0.05182
16.7709
-0.104391
16.9076
-0.157712
17.0491
-0.21178
17.1952
-0.266586
17.3458
-0.322118
17.5008
-0.378362
17.6601
-0.435302
17.8235
-0.492918
17.991
-0.551189
18.1625
-0.610092
18.338
-0.669603
18.5175
-0.729695
18.7008
-0.790341
18.8881
-0.851512
19.0792
-0.913178
19.2741
-0.975309
19.4728
-1.03787
19.6754
-1.10083
19.8818
-1.16416
20.0919
-1.22782
20.3058
-1.29177
20.5236
-1.35598
20.7451
-1.42042
20.9703
-1.48504
21.1994
-1.54981
21.4322
-1.61469
21.6687
-1.67964
21.909
-1.74462
22.1531
-1.8096
22.4009
-1.87453
22.6524
-1.93937
22.9076
-2.00409
23.1667
-2.06863
23.4288
-2.13301
23.6966
-2.19698
23.9618
-2.2612
24.2502
-2.32335
-2.39067
24.4822
28.2139
3.01451
-28.8376
27.5805
2.90224
26.9369
2.78912
26.282
2.67523
25.6146
2.56067
24.9337
2.44554
24.2384
2.32998
23.5282
2.21418
22.8037
2.09842
22.0669
1.98309
21.3222
1.86877
20.5771
1.75625
19.8429
1.64654
19.1336
1.54082
18.465
1.44026
17.8512
1.34582
17.3033
1.25809
16.8275
1.17721
16.4247
1.10285
16.0918
1.03438
15.823
0.97097
15.611
0.911745
15.4482
0.855858
15.3276
0.802547
15.2427
0.751158
15.1879
0.701143
15.1587
0.652055
15.1512
0.603531
15.1623
0.555279
15.1893
0.507064
15.2301
0.458701
15.283
0.41004
15.3465
0.360962
15.4195
0.311374
15.5011
0.261202
15.5904
0.210389
15.6867
0.158891
15.7894
0.106675
15.8982
0.0537163
16.0127
-1.08678e-07
16.1324
-0.0544833
16.2572
-0.109738
16.3868
-0.165761
16.5209
-0.222549
16.6595
-0.280092
16.8024
-0.338377
16.9495
-0.39739
17.1007
-0.457113
17.2559
-0.517525
17.415
-0.578605
17.578
-0.640328
17.7449
-0.702669
17.9155
-0.7656
18.0899
-0.829093
18.268
-0.893118
18.4498
-0.957644
18.6354
-1.02264
18.8246
-1.08807
19.0175
-1.1539
19.214
-1.22009
19.4142
-1.28661
19.6181
-1.35343
19.8256
-1.42051
20.0367
-1.4878
20.2514
-1.55527
20.4698
-1.62287
20.6918
-1.69058
20.9174
-1.75835
21.1466
-1.82614
21.3794
-1.89391
21.6158
-1.96162
21.8557
-2.02922
22.0992
-2.09668
22.3464
-2.16393
22.5965
-2.23101
22.8521
-2.29765
23.1053
-2.36452
23.3802
-2.42927
-2.49925
23.6024
26.9258
3.10768
-27.5309
26.311
2.99079
25.686
2.87302
25.0499
2.75446
24.4017
2.63522
23.7404
2.51543
23.0657
2.39527
22.3776
2.27499
21.6776
2.15495
20.9689
2.03567
20.2573
1.91787
19.5519
1.80248
18.8645
1.69064
18.2092
1.58356
17.5996
1.4823
17.0474
1.38766
16.5603
1.29997
16.1413
1.21913
15.7894
1.14464
15.5003
1.07575
15.2679
1.01162
15.0853
0.951357
14.9458
0.894154
14.8431
0.839293
14.7716
0.786162
14.7266
0.734252
14.7042
0.683146
14.7011
0.632507
14.7146
0.582062
14.7423
0.531592
14.7826
0.480921
14.8339
0.429908
14.895
0.378441
14.9647
0.326432
15.0424
0.27381
15.1272
0.22052
15.2186
0.166521
15.3161
0.111782
15.4193
0.0562795
15.5277
0
15.6413
-0.0570652
15.7595
-0.114918
15.8824
-0.173558
16.0096
-0.232976
16.1411
-0.293165
16.2768
-0.35411
16.4164
-0.415795
16.56
-0.478202
16.7074
-0.541309
16.8586
-0.605094
17.0135
-0.669531
17.1721
-0.734593
17.3344
-0.800253
17.5003
-0.86648
17.6698
-0.933244
17.8428
-1.00051
18.0195
-1.06825
18.1996
-1.13642
18.3833
-1.205
18.5706
-1.27393
18.7613
-1.3432
18.9556
-1.41275
19.1534
-1.48256
19.3546
-1.55257
19.5594
-1.62275
19.7676
-1.69307
19.9793
-1.76347
20.1945
-1.83392
20.4132
-1.90438
20.6352
-1.9748
20.8608
-2.04514
21.0898
-2.11536
21.3221
-2.18541
21.558
-2.25524
21.7968
-2.32488
22.0406
-2.39404
22.2824
-2.46343
22.5446
-2.53064
-2.60312
22.7574
25.689
3.19195
-26.2761
25.0922
3.07066
24.4853
2.94847
23.8676
2.82548
23.2381
2.70182
22.5964
2.57767
21.9425
2.45324
21.2772
2.32887
20.6029
2.20503
19.9242
2.08237
19.2481
1.96176
18.5847
1.84426
17.946
1.73108
17.345
1.62337
16.7933
1.52206
16.2996
1.42768
15.8686
1.34036
15.501
1.25975
15.1942
1.18524
14.9434
1.116
14.7425
1.05118
14.5853
0.989905
14.4657
0.931418
14.3783
0.875043
14.3182
0.820212
14.2816
0.766454
14.2649
0.713382
14.2653
0.660683
14.2806
0.608102
14.3089
0.555435
14.3485
0.502516
14.3981
0.449214
14.4566
0.395423
14.5233
0.341058
14.5972
0.286052
14.6778
0.230355
14.7645
0.173926
14.857
0.116737
14.9548
0.0587658
15.0577
0
15.1653
-0.0595676
15.2774
-0.119939
15.394
-0.18111
15.5147
-0.243074
15.6394
-0.30582
15.7682
-0.369334
15.9008
-0.433599
16.0371
-0.498595
16.1771
-0.5643
16.3208
-0.63069
16.4681
-0.697739
16.619
-0.76542
16.7733
-0.833702
16.9312
-0.902555
17.0925
-0.971947
17.2572
-1.04184
17.4254
-1.11221
17.597
-1.18302
17.772
-1.25422
17.9504
-1.32578
18.1322
-1.39766
18.3174
-1.46983
18.5059
-1.54224
18.6978
-1.61485
18.8931
-1.68763
19.0917
-1.76052
19.2936
-1.83349
19.4989
-1.90649
19.7075
-1.97948
19.9194
-2.05242
20.1347
-2.12526
20.3532
-2.19797
20.5749
-2.27049
20.8001
-2.34276
21.028
-2.41481
21.2608
-2.48636
21.4917
-2.55812
21.7418
-2.62766
-2.70249
21.9456
24.5015
3.26765
-25.0713
23.9221
3.14219
23.333
3.01581
22.7333
2.88864
22.1225
2.76084
21.5005
2.63262
20.8678
2.5043
20.2263
2.37629
19.5792
2.24918
18.9325
2.12378
18.2942
2.00108
17.6748
1.88226
17.086
1.76849
16.5389
1.66082
16.0429
1.55997
15.6038
1.46624
15.2239
1.3795
14.9023
1.29926
14.6352
1.22478
14.4177
1.15522
14.2441
1.08971
14.1087
1.02745
14.0061
0.967696
13.9318
0.909836
13.8815
0.853343
13.8518
0.79778
13.8399
0.74279
13.8433
0.688082
13.86
0.63342
13.8884
0.578613
13.9271
0.523506
13.975
0.467975
14.0311
0.411921
14.0947
0.355264
14.1651
0.297941
14.2416
0.239903
14.324
0.181113
14.4117
0.121545
14.5044
0.0611774
14.602
0
14.704
-0.0619935
14.8104
-0.124804
14.9209
-0.188426
15.0354
-0.252852
15.1539
-0.318071
15.2761
-0.384067
15.402
-0.450822
15.5315
-0.518316
15.6646
-0.586526
15.8012
-0.655426
15.9412
-0.72499
16.0847
-0.795189
16.2316
-0.865993
16.3818
-0.937369
16.5353
-1.00928
16.6922
-1.08171
16.8524
-1.1546
17.0159
-1.22792
17.1826
-1.30163
17.3526
-1.37571
17.5259
-1.4501
17.7025
-1.52476
17.8822
-1.59966
18.0652
-1.67475
18.2515
-1.74999
18.4409
-1.82534
18.6336
-1.90075
18.8295
-1.97618
19.0285
-2.05159
19.2308
-2.12692
19.4362
-2.20214
19.6448
-2.2772
19.8565
-2.35206
20.0714
-2.42664
20.289
-2.50099
20.5112
-2.57481
20.7317
-2.6488
20.9703
-2.72055
-2.79758
21.1656
23.3616
3.3351
-23.9145
22.7993
3.20568
22.2274
3.07535
21.6456
2.94426
21.0535
2.81262
20.4515
2.6807
19.8409
2.54889
19.2244
2.41774
18.6064
2.28797
17.9938
2.16053
17.3953
2.03652
16.8214
1.91713
16.2825
1.80348
15.788
1.69642
15.3446
1.59646
14.9559
1.50363
14.6222
1.41762
14.3412
1.3378
14.1089
1.26336
13.9203
1.19347
13.7702
1.12728
13.6535
1.06403
13.5656
1.00303
13.5024
0.943709
13.4603
0.885586
13.4366
0.828258
13.4286
0.771395
13.4344
0.714728
13.4521
0.658037
13.4805
0.601145
13.5182
0.543907
13.5644
0.486206
13.6181
0.42795
13.6787
0.369062
13.7456
0.309485
13.8184
0.249172
13.8965
0.188089
13.9797
0.126209
14.0677
0.0635166
14.1602
0
14.257
-0.0643451
14.3579
-0.129518
14.4627
-0.195514
14.5715
-0.262323
14.6839
-0.329932
14.7999
-0.398326
14.9195
-0.467486
15.0426
-0.53739
15.1691
-0.608015
15.299
-0.679334
15.4322
-0.751319
15.5687
-0.823942
15.7084
-0.89717
15.8514
-0.970971
15.9976
-1.04531
16.147
-1.12015
16.2996
-1.19546
16.4554
-1.2712
16.6143
-1.34732
16.7763
-1.4238
16.9415
-1.50058
17.1099
-1.57763
17.2813
-1.65491
17.4559
-1.73237
17.6335
-1.80996
17.8143
-1.88765
17.9982
-1.96539
18.1851
-2.04314
18.3751
-2.12084
18.5681
-2.19845
18.7642
-2.27593
18.9634
-2.35322
19.1655
-2.43029
19.3707
-2.50707
19.5785
-2.58358
19.7907
-2.65955
20.0013
-2.73566
20.2289
-2.8095
-2.88859
20.4161
22.2676
3.39461
-22.8041
21.7219
3.26146
21.1672
3.12743
20.6032
2.99271
20.03
2.85755
19.4487
2.72232
18.8613
2.58751
18.2713
2.45379
17.6843
2.32203
17.1078
2.19329
16.5507
2.06873
16.0228
1.9495
15.5332
1.83658
15.0889
1.7306
14.6946
1.63182
14.3517
1.54007
14.0592
1.45486
13.8141
1.37546
13.6121
1.30106
13.4486
1.23082
13.3187
1.16393
13.2181
1.09968
13.1426
1.03745
13.0889
0.976691
13.0539
0.916969
13.0352
0.857914
13.0305
0.799221
13.0381
0.740642
13.0566
0.681973
13.0847
0.623049
13.1214
0.563734
13.1657
0.503921
13.2171
0.443521
13.2749
0.382464
13.3386
0.320695
13.4076
0.258171
13.4818
0.194859
13.5608
0.130736
13.6442
0.0657858
13.7319
-1.08575e-07
13.8237
-0.0666248
13.9195
-0.134087
14.019
-0.20238
14.1222
-0.271495
14.2289
-0.341416
14.3392
-0.412127
14.4528
-0.483609
14.5698
-0.55584
14.69
-0.628793
14.8135
-0.702443
14.9402
-0.776761
15.0701
-0.851716
15.2031
-0.927276
15.3393
-1.00341
15.4785
-1.08007
15.6208
-1.15724
15.7662
-1.23487
15.9146
-1.31292
16.0661
-1.39135
16.2206
-1.47013
16.3782
-1.54921
16.5387
-1.62854
16.7022
-1.70809
16.8688
-1.7878
17.0383
-1.86764
17.2108
-1.94757
17.3863
-2.02752
17.5647
-2.10747
17.7461
-2.18735
17.9304
-2.26713
18.1176
-2.34675
18.3078
-2.42617
18.5008
-2.50534
18.6968
-2.5842
18.8952
-2.66277
19.0978
-2.74076
19.2991
-2.81887
19.5163
-2.89469
-2.97572
19.6957
21.218
3.44651
-21.7384
20.6888
3.30987
20.1511
3.1724
19.605
3.03436
19.0513
2.89606
18.4915
2.75796
17.9285
2.62069
17.3669
2.48505
16.8127
2.35202
16.2739
2.22274
15.7592
2.09837
15.2772
1.97995
14.8352
1.86827
14.4383
1.76372
14.089
1.66633
13.7874
1.57574
13.5315
1.49133
13.3177
1.41234
13.1421
1.33794
13.0001
1.26731
12.8876
1.1997
12.8008
1.13445
12.736
1.07099
12.6904
1.00881
12.6614
0.947519
12.6468
0.886772
12.6449
0.826291
12.654
0.765845
12.6729
0.705247
12.7006
0.644342
12.7361
0.583005
12.7788
0.521135
12.8279
0.458649
12.8829
0.395481
12.9434
0.33158
13.0091
0.266906
13.0795
0.201429
13.1544
0.135127
13.2335
0.0679867
13.3167
0
13.4038
-0.0688349
13.4947
-0.138515
13.5892
-0.209033
13.6871
-0.280378
13.7885
-0.352535
13.8932
-0.425486
14.0012
-0.499211