/*--------------------------------*- C++ -*----------------------------------*\
| =========                 |                                                 |
| \\      /  F ield         | OpenFOAM: The Open Source CFD Toolbox           |
|  \\    /   O peration     | Version:  2312                                  |
|   \\  /    A nd           | Website:  www.openfoam.com                      |
|    \\/     M anipulation  |                                                 |
\*---------------------------------------------------------------------------*/
FoamFile
{
    version     2.0;
    format      ascii;
    arch        "LSB;label=32;scalar=64";
    class       volVectorField;
    location    "0.982";
    object      U;
}
// * * * * * * * * * * * * * * * * * * * * * * * * * * * * * * * * * * * * * //

dimensions      [0 1 -1 0 0 0 0];

internalField   nonuniform List<vector> 
31205
(
(299.734 0 0)
(299.845 0 0)
(299.918 0 0)
(299.953 0 0)
(299.952 0 0)
(299.913 0 0)
(299.836 0 0)
(299.722 0 0)
(299.57 0 0)
(299.379 0 0)
(299.15 0 0)
(298.883 0 0)
(298.576 0 0)
(298.229 0 0)
(297.842 0 0)
(297.414 0 0)
(296.945 0 0)
(296.434 0 0)
(295.88 0 0)
(295.282 0 0)
(294.639 0 0)
(293.95 0 0)
(293.215 0 0)
(292.432 0 0)
(291.599 0 0)
(290.715 0 0)
(289.778 0 0)
(288.788 0 0)
(287.741 0 0)
(286.635 0 0)
(285.469 0 0)
(284.239 0 0)
(282.943 0 0)
(281.577 0 0)
(280.138 0 0)
(278.621 0 0)
(277.023 0 0)
(275.337 0 0)
(273.558 0 0)
(271.679 0 0)
(269.691 0 0)
(267.587 0 0)
(265.354 0 0)
(262.98 0 0)
(260.447 0 0)
(257.737 0 0)
(254.83 0 0)
(251.698 0 0)
(248.265 0 0)
(244.42 0 0)
(240.25 0 0)
(236.21 0 0)
(231.84 0 0)
(222.487 0 0)
(200.374 0 0)
(166.873 0 0)
(136.365 0 0)
(118.162 0 0)
(109.933 0 0)
(106.779 0 0)
(105.797 0 0)
(105.727 0 0)
(106.063 0 0)
(106.603 0 0)
(107.258 0 0)
(107.986 0 0)
(108.763 0 0)
(109.579 0 0)
(110.423 0 0)
(111.29 0 0)
(112.175 0 0)
(113.076 0 0)
(113.99 0 0)
(114.914 0 0)
(115.851 0 0)
(116.781 0 0)
(117.764 0 0)
(118.611 0 0)
(119.898 0 0)
(299.849 0 0)
(299.919 0 0)
(299.953 0 0)
(299.952 0 0)
(299.916 0 0)
(299.845 0 0)
(299.738 0 0)
(299.596 0 0)
(299.417 0 0)
(299.203 0 0)
(298.952 0 0)
(298.664 0 0)
(298.339 0 0)
(297.976 0 0)
(297.576 0 0)
(297.136 0 0)
(296.657 0 0)
(296.137 0 0)
(295.577 0 0)
(294.975 0 0)
(294.331 0 0)
(293.643 0 0)
(292.91 0 0)
(292.132 0 0)
(291.307 0 0)
(290.433 0 0)
(289.509 0 0)
(288.533 0 0)
(287.504 0 0)
(286.42 0 0)
(285.277 0 0)
(284.075 0 0)
(282.81 0 0)
(281.478 0 0)
(280.078 0 0)
(278.604 0 0)
(277.053 0 0)
(275.42 0 0)
(273.7 0 0)
(271.886 0 0)
(269.971 0 0)
(267.946 0 0)
(265.803 0 0)
(263.53 0 0)
(261.112 0 0)
(258.532 0 0)
(255.77 0 0)
(252.807 0 0)
(249.6 0 0)
(246.049 0 0)
(242.086 0 0)
(237.983 0 0)
(234.119 0 0)
(228.664 0 0)
(214.841 0 0)
(186.868 0 0)
(152.725 0 0)
(127.081 0 0)
(113.708 0 0)
(108.106 0 0)
(106.086 0 0)
(105.562 0 0)
(105.677 0 0)
(106.088 0 0)
(106.655 0 0)
(107.314 0 0)
(108.034 0 0)
(108.798 0 0)
(109.594 0 0)
(110.416 0 0)
(111.26 0 0)
(112.12 0 0)
(112.994 0 0)
(113.88 0 0)
(114.78 0 0)
(115.674 0 0)
(116.619 0 0)
(117.436 0 0)
(118.674 0 0)
(299.921 0 0)
(299.952 0 0)
(299.949 0 0)
(299.913 0 0)
(299.844 0 0)
(299.741 0 0)
(299.605 0 0)
(299.436 0 0)
(299.232 0 0)
(298.994 0 0)
(298.722 0 0)
(298.415 0 0)
(298.072 0 0)
(297.693 0 0)
(297.278 0 0)
(296.826 0 0)
(296.337 0 0)
(295.809 0 0)
(295.243 0 0)
(294.637 0 0)
(293.99 0 0)
(293.302 0 0)
(292.571 0 0)
(291.797 0 0)
(290.977 0 0)
(290.112 0 0)
(289.199 0 0)
(288.237 0 0)
(287.224 0 0)
(286.158 0 0)
(285.037 0 0)
(283.86 0 0)
(282.622 0 0)
(281.322 0 0)
(279.956 0 0)
(278.522 0 0)
(277.014 0 0)
(275.429 0 0)
(273.762 0 0)
(272.007 0 0)
(270.157 0 0)
(268.206 0 0)
(266.144 0 0)
(263.961 0 0)
(261.645 0 0)
(259.18 0 0)
(256.549 0 0)
(253.733 0 0)
(250.707 0 0)
(247.405 0 0)
(243.718 0 0)
(239.693 0 0)
(235.771 0 0)
(231.805 0 0)
(223.89 0 0)
(204.111 0 0)
(171.647 0 0)
(139.862 0 0)
(119.858 0 0)
(110.52 0 0)
(106.848 0 0)
(105.625 0 0)
(105.422 0 0)
(105.667 0 0)
(106.13 0 0)
(106.713 0 0)
(107.372 0 0)
(108.082 0 0)
(108.83 0 0)
(109.607 0 0)
(110.408 0 0)
(111.227 0 0)
(112.062 0 0)
(112.91 0 0)
(113.772 0 0)
(114.631 0 0)
(115.539 0 0)
(116.326 0 0)
(117.514 0 0)
(299.95 0 0)
(299.944 0 0)
(299.907 0 0)
(299.838 0 0)
(299.738 0 0)
(299.607 0 0)
(299.444 0 0)
(299.249 0 0)
(299.021 0 0)
(298.762 0 0)
(298.469 0 0)
(298.143 0 0)
(297.784 0 0)
(297.39 0 0)
(296.962 0 0)
(296.499 0 0)
(296 0 0)
(295.465 0 0)
(294.893 0 0)
(294.282 0 0)
(293.634 0 0)
(292.945 0 0)
(292.216 0 0)
(291.446 0 0)
(290.633 0 0)
(289.775 0 0)
(288.873 0 0)
(287.923 0 0)
(286.926 0 0)
(285.877 0 0)
(284.777 0 0)
(283.623 0 0)
(282.411 0 0)
(281.141 0 0)
(279.808 0 0)
(278.41 0 0)
(276.943 0 0)
(275.403 0 0)
(273.786 0 0)
(272.085 0 0)
(270.297 0 0)
(268.413 0 0)
(266.426 0 0)
(264.326 0 0)
(262.104 0 0)
(259.745 0 0)
(257.233 0 0)
(254.551 0 0)
(251.679 0 0)
(248.581 0 0)
(245.165 0 0)
(241.352 0 0)
(237.37 0 0)
(233.668 0 0)
(228.885 0 0)
(216.788 0 0)
(190.654 0 0)
(156.499 0 0)
(129.355 0 0)
(114.656 0 0)
(108.357 0 0)
(106.018 0 0)
(105.335 0 0)
(105.35 0 0)
(105.684 0 0)
(106.18 0 0)
(106.772 0 0)
(107.426 0 0)
(108.124 0 0)
(108.856 0 0)
(109.613 0 0)
(110.392 0 0)
(111.188 0 0)
(111.997 0 0)
(112.823 0 0)
(113.647 0 0)
(114.519 0 0)
(115.276 0 0)
(116.416 0 0)
(299.938 0 0)
(299.898 0 0)
(299.829 0 0)
(299.731 0 0)
(299.602 0 0)
(299.444 0 0)
(299.256 0 0)
(299.038 0 0)
(298.789 0 0)
(298.509 0 0)
(298.198 0 0)
(297.856 0 0)
(297.481 0 0)
(297.075 0 0)
(296.635 0 0)
(296.161 0 0)
(295.654 0 0)
(295.112 0 0)
(294.535 0 0)
(293.922 0 0)
(293.272 0 0)
(292.584 0 0)
(291.857 0 0)
(291.091 0 0)
(290.284 0 0)
(289.435 0 0)
(288.543 0 0)
(287.607 0 0)
(286.624 0 0)
(285.593 0 0)
(284.513 0 0)
(283.381 0 0)
(282.195 0 0)
(280.953 0 0)
(279.652 0 0)
(278.29 0 0)
(276.862 0 0)
(275.365 0 0)
(273.795 0 0)
(272.147 0 0)
(270.416 0 0)
(268.596 0 0)
(266.68 0 0)
(264.659 0 0)
(262.524 0 0)
(260.264 0 0)
(257.864 0 0)
(255.307 0 0)
(252.575 0 0)
(249.648 0 0)
(246.467 0 0)
(242.926 0 0)
(239.04 0 0)
(235.228 0 0)
(231.56 0 0)
(224.776 0 0)
(207.066 0 0)
(175.828 0 0)
(143.147 0 0)
(121.527 0 0)
(111.124 0 0)
(106.945 0 0)
(105.489 0 0)
(105.161 0 0)
(105.319 0 0)
(105.71 0 0)
(106.227 0 0)
(106.821 0 0)
(107.467 0 0)
(108.151 0 0)
(108.865 0 0)
(109.602 0 0)
(110.359 0 0)
(111.131 0 0)
(111.92 0 0)
(112.708 0 0)
(113.544 0 0)
(114.272 0 0)
(115.366 0 0)
(299.888 0 0)
(299.818 0 0)
(299.719 0 0)
(299.593 0 0)
(299.439 0 0)
(299.257 0 0)
(299.046 0 0)
(298.807 0 0)
(298.538 0 0)
(298.24 0 0)
(297.913 0 0)
(297.555 0 0)
(297.168 0 0)
(296.749 0 0)
(296.299 0 0)
(295.817 0 0)
(295.303 0 0)
(294.755 0 0)
(294.174 0 0)
(293.559 0 0)
(292.908 0 0)
(292.222 0 0)
(291.498 0 0)
(290.737 0 0)
(289.937 0 0)
(289.097 0 0)
(288.216 0 0)
(287.292 0 0)
(286.324 0 0)
(285.311 0 0)
(284.251 0 0)
(283.141 0 0)
(281.981 0 0)
(280.767 0 0)
(279.497 0 0)
(278.169 0 0)
(276.778 0 0)
(275.323 0 0)
(273.799 0 0)
(272.202 0 0)
(270.527 0 0)
(268.768 0 0)
(266.92 0 0)
(264.974 0 0)
(262.922 0 0)
(260.755 0 0)
(258.459 0 0)
(256.02 0 0)
(253.42 0 0)
(250.643 0 0)
(247.658 0 0)
(244.382 0 0)
(240.725 0 0)
(236.863 0 0)
(233.288 0 0)
(229.135 0 0)
(218.91 0 0)
(195.095 0 0)
(161.261 0 0)
(132.405 0 0)
(116.009 0 0)
(108.786 0 0)
(106.032 0 0)
(105.154 0 0)
(105.057 0 0)
(105.309 0 0)
(105.736 0 0)
(106.263 0 0)
(106.854 0 0)
(107.489 0 0)
(108.158 0 0)
(108.854 0 0)
(109.571 0 0)
(110.305 0 0)
(111.058 0 0)
(111.811 0 0)
(112.611 0 0)
(113.308 0 0)
(114.358 0 0)
(299.803 0 0)
(299.705 0 0)
(299.58 0 0)
(299.429 0 0)
(299.251 0 0)
(299.047 0 0)
(298.816 0 0)
(298.557 0 0)
(298.271 0 0)
(297.957 0 0)
(297.615 0 0)
(297.244 0 0)
(296.844 0 0)
(296.415 0 0)
(295.956 0 0)
(295.467 0 0)
(294.947 0 0)
(294.395 0 0)
(293.812 0 0)
(293.195 0 0)
(292.545 0 0)
(291.861 0 0)
(291.141 0 0)
(290.386 0 0)
(289.593 0 0)
(288.762 0 0)
(287.892 0 0)
(286.982 0 0)
(286.03 0 0)
(285.034 0 0)
(283.993 0 0)
(282.906 0 0)
(281.77 0 0)
(280.584 0 0)
(279.345 0 0)
(278.05 0 0)
(276.697 0 0)
(275.282 0 0)
(273.803 0 0)
(272.254 0 0)
(270.633 0 0)
(268.933 0 0)
(267.149 0 0)
(265.275 0 0)
(263.303 0 0)
(261.223 0 0)
(259.025 0 0)
(256.697 0 0)
(254.222 0 0)
(251.584 0 0)
(248.764 0 0)
(245.715 0 0)
(242.335 0 0)
(238.603 0 0)
(234.878 0 0)
(231.461 0 0)
(225.953 0 0)
(210.995 0 0)
(181.83 0 0)
(148.24 0 0)
(124.294 0 0)
(112.228 0 0)
(107.247 0 0)
(105.439 0 0)
(104.939 0 0)
(104.995 0 0)
(105.308 0 0)
(105.757 0 0)
(106.286 0 0)
(106.87 0 0)
(107.493 0 0)
(108.146 0 0)
(108.823 0 0)
(109.518 0 0)
(110.234 0 0)
(110.952 0 0)
(111.716 0 0)
(112.384 0 0)
(113.39 0 0)
(299.686 0 0)
(299.562 0 0)
(299.414 0 0)
(299.24 0 0)
(299.041 0 0)
(298.816 0 0)
(298.567 0 0)
(298.291 0 0)
(297.989 0 0)
(297.66 0 0)
(297.305 0 0)
(296.923 0 0)
(296.513 0 0)
(296.075 0 0)
(295.609 0 0)
(295.113 0 0)
(294.588 0 0)
(294.034 0 0)
(293.448 0 0)
(292.831 0 0)
(292.183 0 0)
(291.501 0 0)
(290.786 0 0)
(290.037 0 0)
(289.253 0 0)
(288.432 0 0)
(287.573 0 0)
(286.676 0 0)
(285.74 0 0)
(284.762 0 0)
(283.741 0 0)
(282.676 0 0)
(281.565 0 0)
(280.405 0 0)
(279.196 0 0)
(277.934 0 0)
(276.617 0 0)
(275.242 0 0)
(273.806 0 0)
(272.305 0 0)
(270.735 0 0)
(269.092 0 0)
(267.371 0 0)
(265.565 0 0)
(263.667 0 0)
(261.671 0 0)
(259.566 0 0)
(257.342 0 0)
(254.984 0 0)
(252.476 0 0)
(249.804 0 0)
(246.942 0 0)
(243.821 0 0)
(240.342 0 0)
(236.606 0 0)
(233.105 0 0)
(229.544 0 0)
(221.58 0 0)
(201.18 0 0)
(168.467 0 0)
(137.432 0 0)
(118.41 0 0)
(109.664 0 0)
(106.227 0 0)
(105.048 0 0)
(104.8 0 0)
(104.956 0 0)
(105.308 0 0)
(105.768 0 0)
(106.295 0 0)
(106.869 0 0)
(107.477 0 0)
(108.113 0 0)
(108.77 0 0)
(109.448 0 0)
(110.131 0 0)
(110.86 0 0)
(111.497 0 0)
(112.46 0 0)
(299.54 0 0)
(299.393 0 0)
(299.222 0 0)
(299.028 0 0)
(298.81 0 0)
(298.568 0 0)
(298.301 0 0)
(298.01 0 0)
(297.694 0 0)
(297.353 0 0)
(296.986 0 0)
(296.593 0 0)
(296.174 0 0)
(295.729 0 0)
(295.256 0 0)
(294.756 0 0)
(294.228 0 0)
(293.671 0 0)
(293.084 0 0)
(292.468 0 0)
(291.822 0 0)
(291.144 0 0)
(290.435 0 0)
(289.692 0 0)
(288.916 0 0)
(288.105 0 0)
(287.259 0 0)
(286.376 0 0)
(285.455 0 0)
(284.494 0 0)
(283.493 0 0)
(282.45 0 0)
(281.363 0 0)
(280.231 0 0)
(279.051 0 0)
(277.821 0 0)
(276.54 0 0)
(275.203 0 0)
(273.809 0 0)
(272.354 0 0)
(270.834 0 0)
(269.245 0 0)
(267.584 0 0)
(265.843 0 0)
(264.018 0 0)
(262.101 0 0)
(260.084 0 0)
(257.957 0 0)
(255.709 0 0)
(253.324 0 0)
(250.788 0 0)
(248.085 0 0)
(245.179 0 0)
(241.98 0 0)
(238.426 0 0)
(234.775 0 0)
(231.505 0 0)
(227.259 0 0)
(215.739 0 0)
(190.043 0 0)
(156.057 0 0)
(128.936 0 0)
(114.238 0 0)
(107.925 0 0)
(105.542 0 0)
(104.786 0 0)
(104.706 0 0)
(104.928 0 0)
(105.303 0 0)
(105.767 0 0)
(106.288 0 0)
(106.85 0 0)
(107.444 0 0)
(108.061 0 0)
(108.702 0 0)
(109.349 0 0)
(110.042 0 0)
(110.649 0 0)
(111.568 0 0)
(299.368 0 0)
(299.199 0 0)
(299.009 0 0)
(298.796 0 0)
(298.56 0 0)
(298.302 0 0)
(298.02 0 0)
(297.716 0 0)
(297.387 0 0)
(297.034 0 0)
(296.658 0 0)
(296.256 0 0)
(295.83 0 0)
(295.378 0 0)
(294.9 0 0)
(294.396 0 0)
(293.865 0 0)
(293.307 0 0)
(292.721 0 0)
(292.106 0 0)
(291.463 0 0)
(290.789 0 0)
(290.086 0 0)
(289.35 0 0)
(288.583 0 0)
(287.783 0 0)
(286.949 0 0)
(286.08 0 0)
(285.175 0 0)
(284.232 0 0)
(283.251 0 0)
(282.23 0 0)
(281.167 0 0)
(280.061 0 0)
(278.91 0 0)
(277.711 0 0)
(276.464 0 0)
(275.165 0 0)
(273.811 0 0)
(272.401 0 0)
(270.929 0 0)
(269.393 0 0)
(267.789 0 0)
(266.111 0 0)
(264.354 0 0)
(262.512 0 0)
(260.578 0 0)
(258.544 0 0)
(256.398 0 0)
(254.129 0 0)
(251.722 0 0)
(249.162 0 0)
(246.431 0 0)
(243.477 0 0)
(240.2 0 0)
(236.614 0 0)
(233.136 0 0)
(229.98 0 0)
(224.314 0 0)
(208.419 0 0)
(178.407 0 0)
(145.273 0 0)
(122.505 0 0)
(111.307 0 0)
(106.735 0 0)
(105.074 0 0)
(104.604 0 0)
(104.637 0 0)
(104.903 0 0)
(105.291 0 0)
(105.754 0 0)
(106.267 0 0)
(106.816 0 0)
(107.392 0 0)
(107.994 0 0)
(108.606 0 0)
(109.262 0 0)
(109.84 0 0)
(110.715 0 0)
(299.171 0 0)
(298.984 0 0)
(298.775 0 0)
(298.546 0 0)
(298.294 0 0)
(298.021 0 0)
(297.727 0 0)
(297.409 0 0)
(297.07 0 0)
(296.707 0 0)
(296.322 0 0)
(295.913 0 0)
(295.48 0 0)
(295.023 0 0)
(294.541 0 0)
(294.034 0 0)
(293.501 0 0)
(292.943 0 0)
(292.358 0 0)
(291.746 0 0)
(291.106 0 0)
(290.437 0 0)
(289.74 0 0)
(289.013 0 0)
(288.255 0 0)
(287.465 0 0)
(286.644 0 0)
(285.789 0 0)
(284.899 0 0)
(283.975 0 0)
(283.013 0 0)
(282.013 0 0)
(280.974 0 0)
(279.894 0 0)
(278.772 0 0)
(277.604 0 0)
(276.39 0 0)
(275.128 0 0)
(273.814 0 0)
(272.446 0 0)
(271.021 0 0)
(269.536 0 0)
(267.986 0 0)
(266.368 0 0)
(264.677 0 0)
(262.907 0 0)
(261.052 0 0)
(259.104 0 0)
(257.055 0 0)
(254.893 0 0)
(252.607 0 0)
(250.181 0 0)
(247.601 0 0)
(244.844 0 0)
(241.838 0 0)
(238.493 0 0)
(234.935 0 0)
(231.685 0 0)
(228.384 0 0)
(220.493 0 0)
(199.899 0 0)
(167.102 0 0)
(136.37 0 0)
(117.749 0 0)
(109.249 0 0)
(105.91 0 0)
(104.747 0 0)
(104.473 0 0)
(104.582 0 0)
(104.876 0 0)
(105.27 0 0)
(105.728 0 0)
(106.23 0 0)
(106.764 0 0)
(107.327 0 0)
(107.901 0 0)
(108.521 0 0)
(109.068 0 0)
(109.9 0 0)
(298.952 0 0)
(298.748 0 0)
(298.523 0 0)
(298.278 0 0)
(298.013 0 0)
(297.727 0 0)
(297.421 0 0)
(297.093 0 0)
(296.744 0 0)
(296.372 0 0)
(295.979 0 0)
(295.564 0 0)
(295.126 0 0)
(294.664 0 0)
(294.179 0 0)
(293.671 0 0)
(293.137 0 0)
(292.579 0 0)
(291.996 0 0)
(291.387 0 0)
(290.751 0 0)
(290.088 0 0)
(289.398 0 0)
(288.679 0 0)
(287.931 0 0)
(287.152 0 0)
(286.343 0 0)
(285.503 0 0)
(284.629 0 0)
(283.722 0 0)
(282.78 0 0)
(281.802 0 0)
(280.786 0 0)
(279.732 0 0)
(278.637 0 0)
(277.5 0 0)
(276.318 0 0)
(275.091 0 0)
(273.816 0 0)
(272.489 0 0)
(271.109 0 0)
(269.673 0 0)
(268.176 0 0)
(266.616 0 0)
(264.987 0 0)
(263.286 0 0)
(261.505 0 0)
(259.639 0 0)
(257.68 0 0)
(255.619 0 0)
(253.445 0 0)
(251.145 0 0)
(248.704 0 0)
(246.109 0 0)
(243.326 0 0)
(240.267 0 0)
(236.875 0 0)
(233.414 0 0)
(230.391 0 0)
(226.556 0 0)
(215.715 0 0)
(190.67 0 0)
(156.769 0 0)
(129.293 0 0)
(114.274 0 0)
(107.796 0 0)
(105.328 0 0)
(104.511 0 0)
(104.373 0 0)
(104.534 0 0)
(104.844 0 0)
(105.239 0 0)
(105.689 0 0)
(106.178 0 0)
(106.7 0 0)
(107.237 0 0)
(107.82 0 0)
(108.336 0 0)
(109.124 0 0)
(298.714 0 0)
(298.494 0 0)
(298.255 0 0)
(297.996 0 0)
(297.719 0 0)
(297.422 0 0)
(297.104 0 0)
(296.767 0 0)
(296.409 0 0)
(296.031 0 0)
(295.631 0 0)
(295.21 0 0)
(294.768 0 0)
(294.303 0 0)
(293.816 0 0)
(293.307 0 0)
(292.774 0 0)
(292.217 0 0)
(291.636 0 0)
(291.03 0 0)
(290.399 0 0)
(289.742 0 0)
(289.059 0 0)
(288.349 0 0)
(287.611 0 0)
(286.844 0 0)
(286.048 0 0)
(285.222 0 0)
(284.364 0 0)
(283.475 0 0)
(282.552 0 0)
(281.595 0 0)
(280.602 0 0)
(279.573 0 0)
(278.505 0 0)
(277.398 0 0)
(276.248 0 0)
(275.056 0 0)
(273.817 0 0)
(272.531 0 0)
(271.195 0 0)
(269.805 0 0)
(268.359 0 0)
(266.854 0 0)
(265.285 0 0)
(263.649 0 0)
(261.939 0 0)
(260.151 0 0)
(258.277 0 0)
(256.31 0 0)
(254.241 0 0)
(252.058 0 0)
(249.747 0 0)
(247.296 0 0)
(244.69 0 0)
(241.88 0 0)
(238.771 0 0)
(235.365 0 0)
(232.061 0 0)
(229.194 0 0)
(224.362 0 0)
(210.074 0 0)
(181.303 0 0)
(147.778 0 0)
(123.809 0 0)
(111.745 0 0)
(106.758 0 0)
(104.909 0 0)
(104.335 0 0)
(104.291 0 0)
(104.486 0 0)
(104.805 0 0)
(105.197 0 0)
(105.637 0 0)
(106.115 0 0)
(106.613 0 0)
(107.158 0 0)
(107.642 0 0)
(108.386 0 0)
(298.457 0 0)
(298.223 0 0)
(297.971 0 0)
(297.701 0 0)
(297.412 0 0)
(297.105 0 0)
(296.779 0 0)
(296.433 0 0)
(296.068 0 0)
(295.683 0 0)
(295.279 0 0)
(294.853 0 0)
(294.408 0 0)
(293.941 0 0)
(293.453 0 0)
(292.943 0 0)
(292.41 0 0)
(291.855 0 0)
(291.278 0 0)
(290.676 0 0)
(290.05 0 0)
(289.4 0 0)
(288.725 0 0)
(288.023 0 0)
(287.295 0 0)
(286.54 0 0)
(285.757 0 0)
(284.946 0 0)
(284.104 0 0)
(283.232 0 0)
(282.329 0 0)
(281.393 0 0)
(280.423 0 0)
(279.418 0 0)
(278.377 0 0)
(277.298 0 0)
(276.18 0 0)
(275.021 0 0)
(273.818 0 0)
(272.571 0 0)
(271.277 0 0)
(269.933 0 0)
(268.536 0 0)
(267.083 0 0)
(265.572 0 0)
(263.997 0 0)
(262.355 0 0)
(260.64 0 0)
(258.847 0 0)
(256.968 0 0)
(254.996 0 0)
(252.922 0 0)
(250.733 0 0)
(248.417 0 0)
(245.96 0 0)
(243.345 0 0)
(240.509 0 0)
(237.359 0 0)
(233.979 0 0)
(230.874 0 0)
(228.026 0 0)
(221.733 0 0)
(203.81 0 0)
(172.324 0 0)
(140.251 0 0)
(119.628 0 0)
(109.901 0 0)
(106.007 0 0)
(104.6 0 0)
(104.198 0 0)
(104.219 0 0)
(104.436 0 0)
(104.758 0 0)
(105.143 0 0)
(105.575 0 0)
(106.031 0 0)
(106.537 0 0)
(106.988 0 0)
(107.688 0 0)
(298.185 0 0)
(297.938 0 0)
(297.675 0 0)
(297.394 0 0)
(297.095 0 0)
(296.779 0 0)
(296.445 0 0)
(296.092 0 0)
(295.721 0 0)
(295.331 0 0)
(294.922 0 0)
(294.494 0 0)
(294.045 0 0)
(293.577 0 0)
(293.088 0 0)
(292.579 0 0)
(292.048 0 0)
(291.496 0 0)
(290.921 0 0)
(290.325 0 0)
(289.705 0 0)
(289.062 0 0)
(288.394 0 0)
(287.702 0 0)
(286.985 0 0)
(286.242 0 0)
(285.472 0 0)
(284.674 0 0)
(283.849 0 0)
(282.995 0 0)
(282.11 0 0)
(281.195 0 0)
(280.247 0 0)
(279.267 0 0)
(278.252 0 0)
(277.201 0 0)
(276.113 0 0)
(274.987 0 0)
(273.819 0 0)
(272.61 0 0)
(271.356 0 0)
(270.056 0 0)
(268.706 0 0)
(267.304 0 0)
(265.847 0 0)
(264.331 0 0)
(262.753 0 0)
(261.108 0 0)
(259.391 0 0)
(257.595 0 0)
(255.715 0 0)
(253.742 0 0)
(251.666 0 0)
(249.475 0 0)
(247.156 0 0)
(244.699 0 0)
(242.077 0 0)
(239.217 0 0)
(236.039 0 0)
(232.727 0 0)
(229.835 0 0)
(226.825 0 0)
(218.684 0 0)
(197.255 0 0)
(164.122 0 0)
(134.131 0 0)
(116.469 0 0)
(108.548 0 0)
(105.455 0 0)
(104.366 0 0)
(104.086 0 0)
(104.151 0 0)
(104.382 0 0)
(104.702 0 0)
(105.081 0 0)
(105.493 0 0)
(105.957 0 0)
(106.375 0 0)
(107.029 0 0)
(297.898 0 0)
(297.64 0 0)
(297.366 0 0)
(297.076 0 0)
(296.769 0 0)
(296.445 0 0)
(296.104 0 0)
(295.746 0 0)
(295.369 0 0)
(294.975 0 0)
(294.562 0 0)
(294.131 0 0)
(293.682 0 0)
(293.213 0 0)
(292.724 0 0)
(292.216 0 0)
(291.687 0 0)
(291.138 0 0)
(290.568 0 0)
(289.976 0 0)
(289.363 0 0)
(288.727 0 0)
(288.068 0 0)
(287.385 0 0)
(286.679 0 0)
(285.948 0 0)
(285.191 0 0)
(284.408 0 0)
(283.599 0 0)
(282.762 0 0)
(281.896 0 0)
(281.001 0 0)
(280.076 0 0)
(279.119 0 0)
(278.13 0 0)
(277.106 0 0)
(276.048 0 0)
(274.953 0 0)
(273.82 0 0)
(272.647 0 0)
(271.433 0 0)
(270.174 0 0)
(268.869 0 0)
(267.516 0 0)
(266.112 0 0)
(264.653 0 0)
(263.135 0 0)
(261.556 0 0)
(259.911 0 0)
(258.193 0 0)
(256.399 0 0)
(254.519 0 0)
(252.548 0 0)
(250.473 0 0)
(248.284 0 0)
(245.968 0 0)
(243.514 0 0)
(240.889 0 0)
(238.008 0 0)
(234.822 0 0)
(231.613 0 0)
(228.921 0 0)
(225.553 0 0)
(215.318 0 0)
(190.765 0 0)
(156.933 0 0)
(129.263 0 0)
(114.094 0 0)
(107.549 0 0)
(105.043 0 0)
(104.183 0 0)
(103.989 0 0)
(104.085 0 0)
(104.322 0 0)
(104.64 0 0)
(105.002 0 0)
(105.422 0 0)
(105.804 0 0)
(106.411 0 0)
(297.598 0 0)
(297.33 0 0)
(297.048 0 0)
(296.749 0 0)
(296.435 0 0)
(296.104 0 0)
(295.757 0 0)
(295.394 0 0)
(295.013 0 0)
(294.616 0 0)
(294.201 0 0)
(293.768 0 0)
(293.317 0 0)
(292.848 0 0)
(292.361 0 0)
(291.854 0 0)
(291.329 0 0)
(290.783 0 0)
(290.218 0 0)
(289.632 0 0)
(289.025 0 0)
(288.396 0 0)
(287.746 0 0)
(287.073 0 0)
(286.378 0 0)
(285.659 0 0)
(284.915 0 0)
(284.147 0 0)
(283.354 0 0)
(282.534 0 0)
(281.687 0 0)
(280.812 0 0)
(279.908 0 0)
(278.975 0 0)
(278.01 0 0)
(277.014 0 0)
(275.985 0 0)
(274.921 0 0)
(273.821 0 0)
(272.683 0 0)
(271.506 0 0)
(270.288 0 0)
(269.027 0 0)
(267.721 0 0)
(266.366 0 0)
(264.961 0 0)
(263.502 0 0)
(261.986 0 0)
(260.408 0 0)
(258.765 0 0)
(257.05 0 0)
(255.259 0 0)
(253.384 0 0)
(251.417 0 0)
(249.348 0 0)
(247.164 0 0)
(244.855 0 0)
(242.409 0 0)
(239.783 0 0)
(236.888 0 0)
(233.713 0 0)
(230.636 0 0)
(228.109 0 0)
(224.21 0 0)
(211.803 0 0)
(184.663 0 0)
(150.852 0 0)
(125.46 0 0)
(112.313 0 0)
(106.805 0 0)
(104.729 0 0)
(104.035 0 0)
(103.903 0 0)
(104.017 0 0)
(104.257 0 0)
(104.562 0 0)
(104.933 0 0)
(105.277 0 0)
(105.835 0 0)
(297.286 0 0)
(297.01 0 0)
(296.72 0 0)
(296.414 0 0)
(296.093 0 0)
(295.757 0 0)
(295.405 0 0)
(295.038 0 0)
(294.654 0 0)
(294.254 0 0)
(293.837 0 0)
(293.404 0 0)
(292.953 0 0)
(292.485 0 0)
(291.999 0 0)
(291.494 0 0)
(290.972 0 0)
(290.431 0 0)
(289.87 0 0)
(289.29 0 0)
(288.69 0 0)
(288.07 0 0)
(287.429 0 0)
(286.766 0 0)
(286.081 0 0)
(285.375 0 0)
(284.645 0 0)
(283.891 0 0)
(283.113 0 0)
(282.31 0 0)
(281.482 0 0)
(280.627 0 0)
(279.745 0 0)
(278.834 0 0)
(277.894 0 0)
(276.924 0 0)
(275.923 0 0)
(274.889 0 0)
(273.821 0 0)
(272.718 0 0)
(271.577 0 0)
(270.399 0 0)
(269.179 0 0)
(267.918 0 0)
(266.611 0 0)
(265.258 0 0)
(263.854 0 0)
(262.397 0 0)
(260.884 0 0)
(259.31 0 0)
(257.672 0 0)
(255.963 0 0)
(254.178 0 0)
(252.31 0 0)
(250.351 0 0)
(248.29 0 0)
(246.116 0 0)
(243.819 0 0)
(241.384 0 0)
(238.763 0 0)
(235.862 0 0)
(232.717 0 0)
(229.786 0 0)
(227.379 0 0)
(222.835 0 0)
(208.346 0 0)
(179.206 0 0)
(145.878 0 0)
(122.539 0 0)
(110.983 0 0)
(106.249 0 0)
(104.486 0 0)
(103.911 0 0)
(103.821 0 0)
(103.949 0 0)
(104.181 0 0)
(104.495 0 0)
(104.796 0 0)
(105.303 0 0)
(296.964 0 0)
(296.681 0 0)
(296.384 0 0)
(296.072 0 0)
(295.746 0 0)
(295.405 0 0)
(295.049 0 0)
(294.679 0 0)
(294.292 0 0)
(293.89 0 0)
(293.473 0 0)
(293.039 0 0)
(292.589 0 0)
(292.122 0 0)
(291.638 0 0)
(291.137 0 0)
(290.618 0 0)
(290.081 0 0)
(289.526 0 0)
(288.953 0 0)
(288.36 0 0)
(287.748 0 0)
(287.116 0 0)
(286.463 0 0)
(285.79 0 0)
(285.096 0 0)
(284.379 0 0)
(283.64 0 0)
(282.878 0 0)
(282.092 0 0)
(281.282 0 0)
(280.446 0 0)
(279.585 0 0)
(278.697 0 0)
(277.781 0 0)
(276.837 0 0)
(275.863 0 0)
(274.858 0 0)
(273.821 0 0)
(272.751 0 0)
(271.646 0 0)
(270.505 0 0)
(269.326 0 0)
(268.107 0 0)
(266.847 0 0)
(265.543 0 0)
(264.192 0 0)
(262.792 0 0)
(261.34 0 0)
(259.832 0 0)
(258.264 0 0)
(256.633 0 0)
(254.932 0 0)
(253.156 0 0)
(251.298 0 0)
(249.351 0 0)
(247.302 0 0)
(245.142 0 0)
(242.861 0 0)
(240.442 0 0)
(237.83 0 0)
(234.933 0 0)
(231.836 0 0)
(229.054 0 0)
(226.723 0 0)
(221.498 0 0)
(205.16 0 0)
(174.573 0 0)
(141.954 0 0)
(120.341 0 0)
(109.999 0 0)
(105.832 0 0)
(104.296 0 0)
(103.805 0 0)
(103.744 0 0)
(103.872 0 0)
(104.116 0 0)
(104.366 0 0)
(104.817 0 0)
(296.634 0 0)
(296.344 0 0)
(296.041 0 0)
(295.724 0 0)
(295.394 0 0)
(295.049 0 0)
(294.69 0 0)
(294.317 0 0)
(293.929 0 0)
(293.526 0 0)
(293.108 0 0)
(292.674 0 0)
(292.225 0 0)
(291.76 0 0)
(291.279 0 0)
(290.781 0 0)
(290.267 0 0)
(289.735 0 0)
(289.186 0 0)
(288.619 0 0)
(288.034 0 0)
(287.43 0 0)
(286.808 0 0)
(286.166 0 0)
(285.504 0 0)
(284.821 0 0)
(284.118 0 0)
(283.394 0 0)
(282.647 0 0)
(281.878 0 0)
(281.086 0 0)
(280.27 0 0)
(279.429 0 0)
(278.563 0 0)
(277.671 0 0)
(276.751 0 0)
(275.804 0 0)
(274.827 0 0)
(273.821 0 0)
(272.783 0 0)
(271.712 0 0)
(270.608 0 0)
(269.468 0 0)
(268.29 0 0)
(267.074 0 0)
(265.817 0 0)
(264.517 0 0)
(263.171 0 0)
(261.776 0 0)
(260.331 0 0)
(258.83 0 0)
(257.271 0 0)
(255.65 0 0)
(253.96 0 0)
(252.196 0 0)
(250.351 0 0)
(248.418 0 0)
(246.385 0 0)
(244.243 0 0)
(241.982 0 0)
(239.584 0 0)
(236.986 0 0)
(234.105 0 0)
(231.066 0 0)
(228.428 0 0)
(226.144 0 0)
(220.289 0 0)
(202.444 0 0)
(170.884 0 0)
(139 0 0)
(118.741 0 0)
(109.287 0 0)
(105.523 0 0)
(104.144 0 0)
(103.712 0 0)
(103.664 0 0)
(103.807 0 0)
(103.995 0 0)
(104.382 0 0)
(296.296 0 0)
(296 0 0)
(295.692 0 0)
(295.371 0 0)
(295.037 0 0)
(294.689 0 0)
(294.328 0 0)
(293.953 0 0)
(293.564 0 0)
(293.161 0 0)
(292.743 0 0)
(292.311 0 0)
(291.863 0 0)
(291.401 0 0)
(290.923 0 0)
(290.429 0 0)
(289.919 0 0)
(289.393 0 0)
(288.85 0 0)
(288.29 0 0)
(287.713 0 0)
(287.118 0 0)
(286.505 0 0)
(285.873 0 0)
(285.222 0 0)
(284.553 0 0)
(283.863 0 0)
(283.153 0 0)
(282.422 0 0)
(281.669 0 0)
(280.895 0 0)
(280.097 0 0)
(279.277 0 0)
(278.432 0 0)
(277.563 0 0)
(276.668 0 0)
(275.747 0 0)
(274.798 0 0)
(273.82 0 0)
(272.814 0 0)
(271.776 0 0)
(270.707 0 0)
(269.604 0 0)
(268.467 0 0)
(267.293 0 0)
(266.081 0 0)
(264.828 0 0)
(263.534 0 0)
(262.195 0 0)
(260.808 0 0)
(259.371 0 0)
(257.881 0 0)
(256.333 0 0)
(254.723 0 0)
(253.046 0 0)
(251.297 0 0)
(249.469 0 0)
(247.553 0 0)
(245.54 0 0)
(243.42 0 0)
(241.183 0 0)
(238.81 0 0)
(236.235 0 0)
(233.379 0 0)
(230.404 0 0)
(227.897 0 0)
(225.651 0 0)
(219.304 0 0)
(200.365 0 0)
(168.209 0 0)
(136.945 0 0)
(117.648 0 0)
(108.797 0 0)
(105.3 0 0)
(104.026 0 0)
(103.625 0 0)
(103.599 0 0)
(103.694 0 0)
(104.004 0 0)
(295.951 0 0)
(295.651 0 0)
(295.339 0 0)
(295.014 0 0)
(294.677 0 0)
(294.327 0 0)
(293.964 0 0)
(293.588 0 0)
(293.199 0 0)
(292.796 0 0)
(292.379 0 0)
(291.948 0 0)
(291.503 0 0)
(291.043 0 0)
(290.569 0 0)
(290.079 0 0)
(289.574 0 0)
(289.054 0 0)
(288.517 0 0)
(287.965 0 0)
(287.396 0 0)
(286.81 0 0)
(286.206 0 0)
(285.585 0 0)
(284.946 0 0)
(284.289 0 0)
(283.612 0 0)
(282.916 0 0)
(282.201 0 0)
(281.465 0 0)
(280.708 0 0)
(279.929 0 0)
(279.128 0 0)
(278.305 0 0)
(277.458 0 0)
(276.587 0 0)
(275.691 0 0)
(274.769 0 0)
(273.82 0 0)
(272.843 0 0)
(271.838 0 0)
(270.802 0 0)
(269.736 0 0)
(268.636 0 0)
(267.503 0 0)
(266.334 0 0)
(265.128 0 0)
(263.883 0 0)
(262.596 0 0)
(261.265 0 0)
(259.889 0 0)
(258.462 0 0)
(256.984 0 0)
(255.449 0 0)
(253.853 0 0)
(252.193 0 0)
(250.461 0 0)
(248.652 0 0)
(246.757 0 0)
(244.767 0 0)
(242.672 0 0)
(240.465 0 0)
(238.122 0 0)
(235.577 0 0)
(232.755 0 0)
(229.846 0 0)
(227.451 0 0)
(225.257 0 0)
(218.627 0 0)
(199.053 0 0)
(166.596 0 0)
(135.735 0 0)
(117.004 0 0)
(108.496 0 0)
(105.151 0 0)
(103.93 0 0)
(103.559 0 0)
(103.494 0 0)
(103.697 0 0)
(295.6 0 0)
(295.296 0 0)
(294.981 0 0)
(294.654 0 0)
(294.315 0 0)
(293.963 0 0)
(293.599 0 0)
(293.223 0 0)
(292.834 0 0)
(292.431 0 0)
(292.016 0 0)
(291.587 0 0)
(291.145 0 0)
(290.688 0 0)
(290.218 0 0)
(289.733 0 0)
(289.233 0 0)
(288.719 0 0)
(288.189 0 0)
(287.644 0 0)
(287.083 0 0)
(286.506 0 0)
(285.913 0 0)
(285.302 0 0)
(284.675 0 0)
(284.03 0 0)
(283.367 0 0)
(282.685 0 0)
(281.984 0 0)
(281.265 0 0)
(280.525 0 0)
(279.765 0 0)
(278.984 0 0)
(278.181 0 0)
(277.356 0 0)
(276.508 0 0)
(275.636 0 0)
(274.74 0 0)
(273.819 0 0)
(272.872 0 0)
(271.897 0 0)
(270.894 0 0)
(269.862 0 0)
(268.8 0 0)
(267.706 0 0)
(266.578 0 0)
(265.416 0 0)
(264.218 0 0)
(262.981 0 0)
(261.703 0 0)
(260.383 0 0)
(259.018 0 0)
(257.605 0 0)
(256.14 0 0)
(254.62 0 0)
(253.042 0 0)
(251.4 0 0)
(249.688 0 0)
(247.901 0 0)
(246.031 0 0)
(244.067 0 0)
(242.001 0 0)
(239.826 0 0)
(237.52 0 0)
(235.012 0 0)
(232.234 0 0)
(229.387 0 0)
(227.083 0 0)
(224.971 0 0)
(218.317 0 0)
(198.602 0 0)
(166.086 0 0)
(135.352 0 0)
(116.782 0 0)
(108.373 0 0)
(105.066 0 0)
(103.871 0 0)
(103.466 0 0)
(103.489 0 0)
(295.244 0 0)
(294.938 0 0)
(294.62 0 0)
(294.291 0 0)
(293.95 0 0)
(293.598 0 0)
(293.234 0 0)
(292.857 0 0)
(292.469 0 0)
(292.068 0 0)
(291.655 0 0)
(291.228 0 0)
(290.789 0 0)
(290.336 0 0)
(289.87 0 0)
(289.39 0 0)
(288.896 0 0)
(288.388 0 0)
(287.866 0 0)
(287.328 0 0)
(286.776 0 0)
(286.208 0 0)
(285.624 0 0)
(285.025 0 0)
(284.409 0 0)
(283.776 0 0)
(283.126 0 0)
(282.458 0 0)
(281.773 0 0)
(281.069 0 0)
(280.346 0 0)
(279.604 0 0)
(278.842 0 0)
(278.06 0 0)
(277.256 0 0)
(276.431 0 0)
(275.583 0 0)
(274.713 0 0)
(273.818 0 0)
(272.899 0 0)
(271.955 0 0)
(270.983 0 0)
(269.985 0 0)
(268.958 0 0)
(267.901 0 0)
(266.813 0 0)
(265.693 0 0)
(264.539 0 0)
(263.35 0 0)
(262.123 0 0)
(260.857 0 0)
(259.549 0 0)
(258.197 0 0)
(256.799 0 0)
(255.35 0 0)
(253.848 0 0)
(252.288 0 0)
(250.667 0 0)
(248.978 0 0)
(247.216 0 0)
(245.373 0 0)
(243.439 0 0)
(241.406 0 0)
(239.268 0 0)
(237.003 0 0)
(234.541 0 0)
(231.813 0 0)
(229.022 0 0)
(226.785 0 0)
(224.792 0 0)
(218.4 0 0)
(199.061 0 0)
(166.723 0 0)
(135.816 0 0)
(116.991 0 0)
(108.424 0 0)
(105.06 0 0)
(103.808 0 0)
(103.454 0 0)
(294.885 0 0)
(294.576 0 0)
(294.256 0 0)
(293.926 0 0)
(293.585 0 0)
(293.232 0 0)
(292.868 0 0)
(292.492 0 0)
(292.105 0 0)
(291.706 0 0)
(291.295 0 0)
(290.872 0 0)
(290.436 0 0)
(289.987 0 0)
(289.526 0 0)
(289.051 0 0)
(288.563 0 0)
(288.062 0 0)
(287.546 0 0)
(287.017 0 0)
(286.473 0 0)
(285.914 0 0)
(285.341 0 0)
(284.752 0 0)
(284.147 0 0)
(283.527 0 0)
(282.89 0 0)
(282.237 0 0)
(281.566 0 0)
(280.878 0 0)
(280.172 0 0)
(279.448 0 0)
(278.704 0 0)
(277.942 0 0)
(277.159 0 0)
(276.356 0 0)
(275.532 0 0)
(274.686 0 0)
(273.817 0 0)
(272.926 0 0)
(272.01 0 0)
(271.069 0 0)
(270.103 0 0)
(269.11 0 0)
(268.089 0 0)
(267.04 0 0)
(265.96 0 0)
(264.849 0 0)
(263.704 0 0)
(262.526 0 0)
(261.31 0 0)
(260.057 0 0)
(258.763 0 0)
(257.427 0 0)
(256.044 0 0)
(254.614 0 0)
(253.131 0 0)
(251.593 0 0)
(249.995 0 0)
(248.331 0 0)
(246.596 0 0)
(244.783 0 0)
(242.883 0 0)
(240.887 0 0)
(238.789 0 0)
(236.569 0 0)
(234.161 0 0)
(231.493 0 0)
(228.751 0 0)
(226.552 0 0)
(224.707 0 0)
(218.855 0 0)
(200.435 0 0)
(168.56 0 0)
(137.197 0 0)
(117.671 0 0)
(108.682 0 0)
(105.11 0 0)
(103.801 0 0)
(294.523 0 0)
(294.212 0 0)
(293.891 0 0)
(293.56 0 0)
(293.218 0 0)
(292.866 0 0)
(292.503 0 0)
(292.128 0 0)
(291.743 0 0)
(291.346 0 0)
(290.938 0 0)
(290.518 0 0)
(290.086 0 0)
(289.642 0 0)
(289.185 0 0)
(288.716 0 0)
(288.235 0 0)
(287.74 0 0)
(287.232 0 0)
(286.71 0 0)
(286.175 0 0)
(285.626 0 0)
(285.062 0 0)
(284.484 0 0)
(283.891 0 0)
(283.283 0 0)
(282.659 0 0)
(282.02 0 0)
(281.364 0 0)
(280.691 0 0)
(280.002 0 0)
(279.295 0 0)
(278.57 0 0)
(277.827 0 0)
(277.065 0 0)
(276.283 0 0)
(275.481 0 0)
(274.659 0 0)
(273.816 0 0)
(272.951 0 0)
(272.063 0 0)
(271.152 0 0)
(270.217 0 0)
(269.257 0 0)
(268.271 0 0)
(267.258 0 0)
(266.217 0 0)
(265.146 0 0)
(264.045 0 0)
(262.912 0 0)
(261.745 0 0)
(260.543 0 0)
(259.304 0 0)
(258.026 0 0)
(256.706 0 0)
(255.342 0 0)
(253.931 0 0)
(252.47 0 0)
(250.956 0 0)
(249.383 0 0)
(247.747 0 0)
(246.042 0 0)
(244.262 0 0)
(242.398 0 0)
(240.441 0 0)
(238.387 0 0)
(236.218 0 0)
(233.871 0 0)
(231.27 0 0)
(228.573 0 0)
(226.383 0 0)
(224.692 0 0)
(219.619 0 0)
(202.669 0 0)
(171.65 0 0)
(139.611 0 0)
(118.92 0 0)
(109.176 0 0)
(105.182 0 0)
(294.158 0 0)
(293.846 0 0)
(293.525 0 0)
(293.193 0 0)
(292.852 0 0)
(292.5 0 0)
(292.138 0 0)
(291.766 0 0)
(291.383 0 0)
(290.988 0 0)
(290.583 0 0)
(290.167 0 0)
(289.739 0 0)
(289.3 0 0)
(288.849 0 0)
(288.386 0 0)
(287.91 0 0)
(287.422 0 0)
(286.922 0 0)
(286.409 0 0)
(285.882 0 0)
(285.343 0 0)
(284.789 0 0)
(284.222 0 0)
(283.64 0 0)
(283.044 0 0)
(282.433 0 0)
(281.808 0 0)
(281.166 0 0)
(280.509 0 0)
(279.836 0 0)
(279.146 0 0)
(278.439 0 0)
(277.715 0 0)
(276.972 0 0)
(276.212 0 0)
(275.432 0 0)
(274.634 0 0)
(273.815 0 0)
(272.976 0 0)