/*--------------------------------*- C++ -*----------------------------------*\
| =========                 |                                                 |
| \\      /  F ield         | OpenFOAM: The Open Source CFD Toolbox           |
|  \\    /   O peration     | Version:  2312                                  |
|   \\  /    A nd           | Website:  www.openfoam.com                      |
|    \\/     M anipulation  |                                                 |
\*---------------------------------------------------------------------------*/
FoamFile
{
    version     2.0;
    format      ascii;
    arch        "LSB;label=32;scalar=64";
    class       surfaceScalarField;
    location    "0.508";
    object      phi;
}
// * * * * * * * * * * * * * * * * * * * * * * * * * * * * * * * * * * * * * //

dimensions      [0 3 -1 0 0 0 0];

oriented        oriented;

internalField   nonuniform List<scalar> 
62015
(
26.0113
0.136783
-26.0699
26.035
0.134767
26.1325
0.133028
26.2943
0.131501
26.5106
0.130121
26.7719
0.128828
27.07
0.127568
27.3975
0.126296
27.7481
0.124971
28.1166
0.123562
28.4988
0.122042
28.8913
0.12039
29.2913
0.118589
29.6966
0.116626
30.1056
0.11449
30.5169
0.112173
30.9296
0.109668
31.3428
0.106973
31.7561
0.104082
32.169
0.100996
32.5813
0.0977117
32.993
0.09423
33.4039
0.090551
33.814
0.0866755
34.2235
0.0826053
34.6324
0.0783418
35.0409
0.0738872
35.4493
0.0692441
35.8576
0.0644152
36.2662
0.0594035
36.6753
0.054212
37.085
0.0488438
37.4958
0.0433031
37.9078
0.0375928
38.3212
0.0317174
38.7365
0.0256802
39.1537
0.019486
39.5732
0.0131381
39.9953
0.00664132
40.4201
0
40.8479
-0.00678163
41.279
-0.0136984
41.7136
-0.0207466
42.1519
-0.0279206
42.5942
-0.0352162
43.0406
-0.0426281
43.4914
-0.0501519
43.9467
-0.0577817
44.4069
-0.0655136
44.872
-0.0733413
45.3422
-0.0812602
45.8177
-0.089265
46.2987
-0.0973505
46.7854
-0.105511
47.2778
-0.113742
47.7762
-0.122036
48.2806
-0.13039
48.7912
-0.138798
49.3081
-0.147253
49.8314
-0.15575
50.3612
-0.164284
50.8976
-0.17285
51.4407
-0.18144
51.9906
-0.190051
52.5473
-0.198676
53.1109
-0.207309
53.6815
-0.215945
54.2591
-0.224578
54.8436
-0.233203
55.4353
-0.241813
56.034
-0.250404
56.6398
-0.258968
57.2526
-0.267502
57.873
-0.275997
58.4987
-0.284457
59.1369
-0.292843
59.7655
-0.301255
60.4522
-0.30936
-0.318175
60.9892
25.3619
0.270907
-25.3523
25.441
0.267514
25.5808
0.264532
25.7725
0.261842
26.0074
0.259332
26.2779
0.2569
26.5771
0.254456
26.899
0.251926
27.2387
0.249247
27.5923
0.246366
27.9563
0.243242
28.3281
0.239838
28.7055
0.23613
29.0869
0.232094
29.471
0.227715
29.8568
0.222979
30.2434
0.217877
30.6304
0.212402
31.0173
0.206549
31.4039
0.200315
31.7899
0.1937
32.1754
0.186703
32.5603
0.179325
32.9447
0.171569
33.3287
0.163437
33.7123
0.154934
34.0958
0.146062
34.4793
0.136828
34.8631
0.127237
35.2474
0.117293
35.6324
0.107004
36.0183
0.096375
36.4053
0.0854137
36.7938
0.0741271
37.1839
0.0625223
37.576
0.0506069
37.9702
0.0383889
38.3668
0.0258761
38.766
0.0130771
39.168
0
39.5732
-0.0133464
39.9817
-0.0269532
40.3937
-0.0408118
40.8095
-0.0549129
41.2292
-0.0692465
41.6531
-0.0838044
42.0814
-0.0985762
42.5142
-0.113552
42.9517
-0.128723
43.3942
-0.144078
43.8417
-0.159608
44.2944
-0.175302
44.7526
-0.191151
45.2163
-0.207143
45.6856
-0.223268
46.1608
-0.239517
46.6418
-0.255877
47.129
-0.27234
47.6223
-0.288892
48.1218
-0.305526
48.6278
-0.322227
49.1401
-0.338988
49.659
-0.355796
50.1845
-0.37264
50.7166
-0.38951
51.2554
-0.406394
51.801
-0.423281
52.3534
-0.440161
52.9127
-0.457022
53.4788
-0.473854
54.0517
-0.490645
54.6316
-0.507383
55.2182
-0.52406
55.8123
-0.540659
56.4116
-0.557188
57.0227
-0.573574
57.6253
-0.590003
58.282
-0.605846
-0.623025
58.8011
24.7915
0.403427
-24.7258
24.9142
0.399102
25.0854
0.3952
25.2976
0.391564
25.5435
0.388051
25.817
0.384536
26.1125
0.38091
26.4254
0.377083
26.752
0.372979
27.089
0.368534
27.4339
0.3637
27.7846
0.358433
28.1396
0.352703
28.4975
0.346483
28.8573
0.339753
29.2183
0.332498
29.5799
0.324707
29.9417
0.316371
30.3034
0.307485
30.6647
0.298047
31.0257
0.288055
31.3863
0.277511
31.7464
0.266416
32.1063
0.254774
32.466
0.24259
32.8256
0.229869
33.1853
0.216616
33.5452
0.202841
33.9057
0.188549
34.2668
0.173749
34.6289
0.158451
34.9921
0.142664
35.3566
0.126396
35.7228
0.10966
36.0907
0.0924639
36.4607
0.0748206
36.833
0.0567409
37.2078
0.0382359
37.5853
0.0193185
37.9657
0
38.3493
-0.0197067
38.7363
-0.0397885
39.1268
-0.0602328
39.5212
-0.0810264
39.9195
-0.102156
40.3219
-0.123607
40.7287
-0.145366
41.14
-0.16742
41.556
-0.189753
41.9769
-0.212351
42.4027
-0.235201
42.8337
-0.258286
43.27
-0.281592
43.7118
-0.305104
44.1591
-0.328807
44.6121
-0.352686
45.071
-0.376724
45.5357
-0.400908
46.0065
-0.42522
46.4834
-0.449645
46.9665
-0.474168
47.4558
-0.498773
47.9516
-0.523444
48.4537
-0.548164
48.9623
-0.572918
49.4775
-0.59769
49.9992
-0.622464
50.5276
-0.647224
51.0626
-0.671953
51.6042
-0.696636
52.1526
-0.721256
52.7076
-0.745798
53.2692
-0.770247
53.838
-0.794578
54.412
-0.818805
54.9972
-0.842822
55.5748
-0.866893
56.203
-0.890124
-0.915248
56.7034
24.2812
0.535072
-24.1727
24.4355
0.530073
24.628
0.525416
24.8523
0.520923
25.1027
0.516437
25.3742
0.511822
25.6624
0.506963
25.964
0.501761
26.2758
0.496137
26.5955
0.490025
26.9211
0.483369
27.2511
0.476127
27.5842
0.468264
27.9195
0.459753
28.2561
0.450573
28.5935
0.440707
28.9313
0.430143
29.2692
0.418874
29.607
0.406895
29.9446
0.394202
30.282
0.380797
30.619
0.366681
30.9559
0.351856
31.2927
0.336329
31.6295
0.320105
31.9664
0.303192
32.3036
0.285597
32.6414
0.26733
32.9799
0.248402
33.3192
0.228822
33.6597
0.208603
34.0014
0.187756
34.3447
0.166294
34.6897
0.144229
35.0367
0.121577
35.3858
0.0983504
35.7374
0.0745642
36.0915
0.0502334
36.4484
0.0253735
36.8084
0
37.1715
-0.0258709
37.5381
-0.0522225
37.9083
-0.0790386
38.2823
-0.106301
38.6602
-0.133994
39.0423
-0.162099
39.4287
-0.190597
39.8196
-0.219472
40.2151
-0.248704
40.6154
-0.278276
41.0206
-0.308167
41.431
-0.338359
41.8465
-0.368832
42.2674
-0.399568
42.6937
-0.430547
43.1256
-0.461748
43.5633
-0.493153
44.0066
-0.524739
44.4559
-0.556489
44.9112
-0.588381
45.3725
-0.620395
45.8399
-0.65251
46.3135
-0.684706
46.7934
-0.716963
47.2795
-0.749259
47.7721
-0.781573
48.271
-0.813886
48.7763
-0.846176
49.2881
-0.878422
49.8064
-0.910605
50.3312
-0.942702
50.8625
-0.974692
51.4001
-1.00656
51.9447
-1.03827
52.4943
-1.06984
53.0548
-1.10113
53.6083
-1.13249
54.2095
-1.16277
-1.19545
54.6909
23.815
0.666289
-23.6757
23.9903
0.660723
24.1954
0.655355
24.425
0.650001
24.6746
0.644502
24.9402
0.638721
25.2186
0.632541
25.5071
0.625866
25.8032
0.618615
26.1053
0.610723
26.4118
0.602136
26.7215
0.59281
27.0335
0.58271
27.3471
0.57181
27.6616
0.560089
27.9767
0.54753
28.2921
0.534123
28.6075
0.51986
28.9229
0.504736
29.2381
0.48875
29.5533
0.471903
29.8683
0.454199
30.1833
0.435641
30.4984
0.416236
30.8137
0.395991
31.1294
0.374917
31.4455
0.353023
31.7624
0.33032
32.0802
0.306821
32.399
0.282538
32.7191
0.257486
33.0407
0.231679
33.364
0.205133
33.6891
0.177862
34.0163
0.149884
34.3458
0.121216
34.6777
0.0918751
35.0124
0.0618798
35.3499
0.0312483
35.6904
0
36.0343
-0.0318458
36.3815
-0.0642694
36.7324
-0.0972502
37.0871
-0.130768
37.4457
-0.164801
37.8085
-0.199328
38.1755
-0.234328
38.547
-0.269779
38.9231
-0.305658
39.3039
-0.341942
39.6895
-0.37861
40.0802
-0.415637
40.476
-0.453
40.877
-0.490677
41.2834
-0.528642
41.6952
-0.566872
42.1126
-0.605343
42.5356
-0.64403
42.9644
-0.682909
43.399
-0.721956
43.8395
-0.761145
44.2859
-0.800452
44.7384
-0.839852
45.197
-0.87932
45.6617
-0.91883
46.1326
-0.958357
46.6097
-0.997877
47.0931
-1.03736
47.5827
-1.07679
48.0786
-1.11614
48.5808
-1.15537
49.0893
-1.19447
49.604
-1.23342
50.1254
-1.27217
50.6518
-1.31075
51.1885
-1.34898
51.7189
-1.38728
52.2943
-1.42429
-1.46416
52.7571
23.3802
0.797319
-23.2206
23.568
0.791182
23.7788
0.785063
24.0084
0.778782
24.2532
0.772184
24.5102
0.765137
24.7768
0.75753
25.051
0.749271
25.331
0.740282
25.6155
0.7305
25.9032
0.719874
26.1933
0.708361
26.4851
0.69593
26.778
0.682554
27.0716
0.668212
27.3656
0.65289
27.6599
0.636579
27.9542
0.619271
28.2485
0.600962
28.5428
0.581654
28.8371
0.561347
29.1315
0.540046
29.426
0.517758
29.7208
0.494489
30.0159
0.470251
30.3117
0.445052
30.6081
0.418906
30.9054
0.391825
31.2037
0.363824
31.5033
0.334918
31.8043
0.305123
32.1069
0.274456
32.4113
0.242935
32.7177
0.210578
33.0263
0.177405
33.3372
0.143434
33.6507
0.108687
33.967
0.0731846
34.2861
0.0369482
34.6084
0
34.934
-0.0376374
35.263
-0.075941
35.5956
-0.114887
35.932
-0.154452
36.2724
-0.194611
36.6168
-0.235339
36.9655
-0.276611
37.3186
-0.318401
37.6762
-0.360684
38.0385
-0.403433
38.4055
-0.446622
38.7775
-0.490224
39.1544
-0.534211
39.5366
-0.578555
39.9239
-0.623231
40.3166
-0.668208
40.7147
-0.71346
41.1184
-0.758957
41.5276
-0.804672
41.9425
-0.850576
42.3632
-0.896639
42.7897
-0.942833
43.222
-0.989128
43.6603
-1.0355
44.1045
-1.08191
44.5547
-1.12833
45.011
-1.17474
45.4733
-1.22111
45.9417
-1.2674
46.4162
-1.31358
46.8968
-1.35964
47.3835
-1.40552
47.8763
-1.45123
48.3755
-1.49669
48.8796
-1.54195
49.3936
-1.5868
49.9016
-1.63173
50.4525
-1.67514
-1.72185
50.8971
22.9674
0.928249
-22.7957
23.1611
0.921466
23.3723
0.914503
23.5979
0.907189
23.835
0.89938
24.0814
0.890953
24.3351
0.881803
24.5944
0.871846
24.8582
0.861007
25.1252
0.849229
25.3946
0.836464
25.6659
0.822672
25.9383
0.807823
26.2117
0.791892
26.4855
0.774861
26.7597
0.756717
27.0341
0.73745
27.3086
0.717057
27.5831
0.695534
27.8578
0.672882
28.1326
0.649105
28.4076
0.624209
28.6829
0.5982
28.9587
0.57109
29.235
0.542887
29.5121
0.513605
29.79
0.483259
30.0689
0.451861
30.349
0.41943
30.6305
0.385982
30.9135
0.351535
31.1983
0.316109
31.485
0.279723
31.7738
0.242399
32.0648
0.204157
32.3583
0.165021
32.6544
0.125013
32.9533
0.0841572
33.2551
0.0424781
33.5601
0
33.8684
-0.0432512
34.1801
-0.087249
34.4955
-0.131967
34.8146
-0.177379
35.1377
-0.223456
35.4648
-0.270171
35.7961
-0.317494
36.1317
-0.365398
36.4718
-0.413852
36.8165
-0.462827
37.1658
-0.512292
37.52
-0.562218
37.8791
-0.612573
38.2433
-0.663326
38.6125
-0.714446
38.987
-0.765902
39.3668
-0.817661
39.752
-0.86969
40.1426
-0.921959
40.5388
-0.974434
40.9405
-1.02708
41.3479
-1.07987
41.761
-1.13277
42.1799
-1.18574
42.6045
-1.23875
43.035
-1.29177
43.4714
-1.34477
43.9136
-1.39771
44.3617
-1.45055
44.8158
-1.50327
45.2757
-1.55583
45.7416
-1.6082
46.2133
-1.66035
46.6913
-1.71223
47.174
-1.76385
47.6662
-1.81502
48.153
-1.86625
48.6804
-1.91578
-1.96898
49.1075
22.5696
1.05907
-22.3922
22.764
1.05152
22.9718
1.04359
23.1906
1.03511
23.4181
1.02597
23.6526
1.01604
23.8926
1.00523
24.1369
0.993463
24.3844
0.980669
24.6344
0.966796
24.8863
0.951799
25.1395
0.935643
25.3936
0.918299
25.6484
0.899746
25.9036
0.879967
26.1591
0.85895
26.4148
0.836689
26.6707
0.813178
26.9267
0.788419
27.183
0.762412
27.4395
0.735162
27.6964
0.706677
27.9538
0.676966
28.2117
0.646039
28.4704
0.613909
28.7299
0.58059
28.9905
0.546098
29.2522
0.510448
29.5152
0.47366
29.7797
0.435752
30.0459
0.396745
30.3139
0.35666
30.5839
0.315518
30.8561
0.273344
31.1306
0.23016
31.4076
0.185993
31.6873
0.140866
31.9699
0.0948071
32.2554
0.0478425
32.544
0
32.836
-0.0486921
33.1315
-0.098205
33.4305
-0.148509
33.7333
-0.199574
34.0399
-0.25137
34.3506
-0.303865
34.6654
-0.357028
34.9845
-0.410826
35.3079
-0.465227
35.6359
-0.520198
35.9685
-0.575705
36.3058
-0.631715
36.6479
-0.688194
36.995
-0.745106
37.3471
-0.802417
37.7042
-0.860093
38.0665
-0.918096
38.4341
-0.976393
38.807
-1.03495
39.1853
-1.09372
39.569
-1.15268
39.9582
-1.21178
40.353
-1.271
40.7534
-1.33029
41.1593
-1.38962
41.571
-1.44895
41.9883
-1.50824
42.4113
-1.56746
42.8401
-1.62657
43.2745
-1.68553
43.7147
-1.74431
44.1607
-1.80286
44.6123
-1.86116
45.07
-1.91915
45.5322
-1.97685
46.0036
-2.03404
46.47
-2.09127
46.9748
-2.14664
-2.20601
47.3851
22.1816
1.18969
-22.0033
22.373
1.18123
22.5747
1.17219
22.7846
1.16243
23.0012
1.15182
23.2231
1.14027
23.4491
1.12769
23.6784
1.114
23.9101
1.09915
24.1437
1.08309
24.3787
1.06578
24.6147
1.04719
24.8514
1.02728
25.0887
1.00605
25.3263
0.983473
25.5643
0.959543
25.8024
0.934254
26.0409
0.907604
26.2796
0.879594
26.5186
0.850228
26.7581
0.81951
26.998
0.78745
27.2385
0.754058
27.4798
0.719346
27.7219
0.683329
27.965
0.646022
28.2093
0.607441
28.4548
0.567606
28.7018
0.526536
28.9504
0.484252
29.2007
0.440776
29.453
0.396132
29.7073
0.350343
29.9639
0.303435
30.2228
0.255433
30.4844
0.206365
30.7486
0.156259
31.0157
0.105143
31.2858
0.0530467
31.5591
0
31.8356
-0.0539661
32.1156
-0.10882
32.3992
-0.164529
32.6865
-0.221061
32.9777
-0.278383
33.2728
-0.33646
33.5719
-0.395257
33.8753
-0.45474
34.183
-0.514873
34.4952
-0.57562
34.8118
-0.636944
35.1331
-0.698808
35.4591
-0.761176
35.7899
-0.824008
36.1256
-0.887268
36.4663
-0.950916
36.812
-1.01491
37.1628
-1.07922
37.5188
-1.1438
37.8801
-1.20861
38.2466
-1.27362
38.6185
-1.33878
38.9957
-1.40404
39.3784
-1.46938
39.7666
-1.53476
40.1602
-1.60012
40.5594
-1.66543
40.9641
-1.73066
41.3743
-1.79575
41.7901
-1.86067
42.2114
-1.92538
42.6384
-1.98984
43.0707
-2.054
43.5089
-2.11782
43.9516
-2.18132
44.4031
-2.24424
44.85
-2.30721
45.3332
-2.36814
-2.43336
45.7273
21.7997
1.32
-21.624
21.9855
1.31048
22.1791
1.30019
22.379
1.289
22.5839
1.27681
22.7928
1.26352
23.0049
1.24905
23.2194
1.23335
23.4358
1.21636
23.6536
1.19803
23.8725
1.17833
24.0921
1.15723
24.3124
1.13471
24.5332
1.11074
24.7543
1.08533
24.9757
1.05845
25.1975
1.03012
25.4196
1.00031
25.642
0.969045
25.8649
0.93632
26.0884
0.902145
26.3124
0.866529
26.5372
0.829483
26.7628
0.791023
26.9894
0.751162
27.2172
0.709918
27.4461
0.66731
27.6765
0.623358
27.9084
0.578082
28.142
0.531506
28.3775
0.483654
28.615
0.434549
28.8546
0.38422
29.0964
0.332692
29.3408
0.279994
29.5877
0.226155
29.8374
0.171205
30.0899
0.115174
30.3454
0.0580951
30.6042
0
30.8662
-0.0590779
31.1316
-0.119105
31.4006
-0.180045
31.6732
-0.241864
31.9497
-0.304526
32.23
-0.367993
32.5144
-0.432229
32.8029
-0.497195
33.0957
-0.562853
33.3927
-0.629164
33.6943
-0.696089
34.0003
-0.763587
34.311
-0.831618
34.6263
-0.900142
34.9465
-0.969117
35.2715
-1.0385
35.6014
-1.10825
35.9362
-1.17833
36.2762
-1.24869
36.6212
-1.31929
36.9713
-1.39009
37.3267
-1.46105
37.6873
-1.53211
38.0531
-1.60324
38.4243
-1.67439
38.8007
-1.74553
39.1826
-1.8166
39.5697
-1.88756
39.9623
-1.95837
40.3602
-2.02898
40.7635
-2.09936
41.1722
-2.16945
41.5862
-2.23922
42.0058
-2.3086
42.4298
-2.37762
42.8622
-2.44601
43.2904
-2.51443
43.753
-2.58067
-2.65146
44.1316
21.4213
1.44984
-21.2508
21.5997
1.43911
21.784
1.42743
21.973
1.41468
22.1659
1.40079
22.3618
1.38565
22.5601
1.36921
22.7603
1.3514
22.9619
1.33218
23.1646
1.31151
23.3682
1.28936
23.5725
1.2657
23.7772
1.24051
23.9825
1.21378
24.1881
1.1855
24.394
1.15565
24.6004
1.12425
24.8071
1.09128
25.0144
1.05676
25.2222
1.02068
25.4306
0.983067
25.6398
0.943919
25.8498
0.903252
26.0608
0.861082
26.2729
0.817425
26.4862
0.7723
26.7009
0.725726
26.917
0.677726
27.1348
0.628322
27.3544
0.577539
27.5758
0.525402
27.7994
0.471937
28.0251
0.417172
28.2532
0.361138
28.4837
0.303863
28.7169
0.245378
28.9528
0.185716
29.1916
0.12491
29.4334
0.0629926
29.6784
0
29.9266
-0.0640329
30.1783
-0.12907
30.4334
-0.195074
30.6922
-0.262006
30.9548
-0.329829
31.2211
-0.398502
31.4915
-0.467987
31.7659
-0.538242
32.0445
-0.609227
32.3273
-0.6809
32.6144
-0.753217
32.906
-0.826138
33.2021
-0.899618
33.5028
-0.973614
33.8081
-1.04808
34.1182
-1.12298
34.433
-1.19825
34.7527
-1.27387
35.0773
-1.34977
35.4069
-1.42593
35.7414
-1.50228
36.081
-1.57878
36.4257
-1.6554
36.7755
-1.73207
37.1304
-1.80876
37.4905
-1.88541
37.8557
-1.96199
38.2262
-2.03843
38.6018
-2.11471
38.9827
-2.19076
39.3688
-2.26655
39.76
-2.34201
40.1564
-2.41713
40.5583
-2.49181
40.9644
-2.5661
41.3785
-2.63971
41.7888
-2.71332
42.2317
-2.78462
-2.86069
42.5955
21.0448
1.57905
-20.8812
21.2145
1.56697
21.3887
1.55376
21.5665
1.53935
21.7472
1.52364
21.9303
1.50656
22.1152
1.48805
22.3016
1.46805
22.4891
1.44654
22.6775
1.42347
22.8666
1.39881
23.0563
1.37254
23.2464
1.34465
23.4371
1.31512
23.6281
1.28394
23.8196
1.25111
24.0115
1.21663
24.2039
1.1805
24.3969
1.14273
24.5906
1.10332
24.785
1.06228
24.9803
1.01963
25.1765
0.975376
25.3737
0.929539
25.5722
0.882136
25.772
0.833187
25.9732
0.782713
26.1761
0.730736
26.3806
0.677282
26.5869
0.622376
26.7953
0.566045
27.0057
0.508317
27.2184
0.449223
27.4335
0.388792
27.651
0.327056
27.8712
0.264049
28.0942
0.199805
28.32
0.134358
28.5489
0.0677439
28.7809
0
29.0161
-0.0688361
29.2547
-0.138726
29.4968
-0.20963
29.7425
-0.281508
29.9918
-0.354319
30.245
-0.428022
30.502
-0.502574
30.763
-0.577932
31.0281
-0.654053
31.2974
-0.730891
31.5709
-0.808404
31.8488
-0.886544
32.131
-0.965266
32.4177
-1.04452
32.709
-1.12427
33.0048
-1.20446
33.3054
-1.28504
33.6106
-1.36597
33.9206
-1.4472
34.2354
-1.52867
34.5551
-1.61035
34.8797
-1.69217
35.2092
-1.7741
35.5436
-1.85608
35.8831
-1.93806
36.2275
-2.02
36.577
-2.10184
36.9315
-2.18353
37.291
-2.26502
37.6555
-2.34627
38.0251
-2.42722
38.3998
-2.50783
38.7794
-2.58804
39.1642
-2.66779
39.5532
-2.7471
39.9498
-2.82568
40.343
-2.90424
40.7671
-2.98036
-3.06145
41.1166
20.6689
1.70748
-20.5134
20.8292
1.69391
20.9929
1.67906
21.1594
1.66286
21.3282
1.64524
21.4987
1.62613
21.6707
1.60547
21.8439
1.58322
22.0179
1.55935
22.1927
1.53382
22.3681
1.50661
22.5441
1.4777
22.7206
1.44707
22.8975
1.41472
23.0749
1.38063
23.2527
1.34481
23.4312
1.30725
23.6102
1.26796
23.7899
1.22695
23.9703
1.18422
24.1516
1.13979
24.3338
1.09367
24.5171
1.04587
24.7015
0.996413
24.8873
0.945316
25.0744
0.892602
25.263
0.838292
25.4533
0.782411
25.6454
0.724985
25.8393
0.666041
26.0353
0.605608
26.2335
0.543714
26.4339
0.480392
26.6367
0.415674
26.842
0.349593
27.05
0.282184
27.2607
0.213483
27.4744
0.143527
27.691
0.0723529
27.9107
0
28.1337
-0.073492
28.36
-0.148083
28.5897
-0.22373
28.8229
-0.300392
29.0598
-0.378026
29.3004
-0.456587
29.5448
-0.536031
29.7932
-0.616312
30.0455
-0.697386
30.3019
-0.779204
30.5625
-0.861719
30.8273
-0.944884
31.0963
-1.02865
31.3698
-1.11297
31.6476
-1.19779
31.93
-1.28307
32.2169
-1.36874
32.5084
-1.45477
32.8045
-1.5411
33.1052
-1.62768
33.4108
-1.71446
33.721
-1.80139
34.036
-1.88841
34.3559
-1.97547
34.6805
-2.06252
35.01
-2.14951
35.3444
-2.23638
35.6837
-2.32309
36.0278
-2.40957
36.3768
-2.49578
36.7306
-2.58167
37.0893
-2.66717
37.4529
-2.75225
37.8215
-2.83682
38.1941
-2.92092
38.574
-3.00425
38.9508
-3.08752
39.3568
-3.16824
-3.25408
39.6926
20.293
1.83497
-20.1463
20.4435
1.81978
20.5967
1.80318
20.752
1.78511
20.909
1.76548
21.0675
1.74426
21.2271
1.72139
21.3876
1.69683
21.5489
1.67055
21.7109
1.64252
21.8734
1.61272
22.0365
1.58113
22.2001
1.54774
22.3642
1.51255
22.5288
1.47554
22.6939
1.43673
22.8597
1.3961
23.0262
1.35366
23.1934
1.30943
23.3615
1.26341
23.5305
1.21561
23.7005
1.16605
23.8717
1.11475
24.0441
1.06172
24.2179
1.00699
24.3931
0.950567
24.57
0.892489
24.7485
0.832777
24.9289
0.771458
25.1112
0.70856
25.2956
0.644114
25.4821
0.578151
25.671
0.510703
25.8623
0.441805
26.0561
0.371491
26.2526
0.299798
26.4518
0.226763
26.6539
0.152425
26.8589
0.0768242
27.0671
0
27.2784
-0.0780054
27.4931
-0.15715
27.7111
-0.237389
27.9326
-0.318679
28.1576
-0.400974
28.3864
-0.484229
28.6188
-0.568397
28.8551
-0.65343
29.0954
-0.739279
29.3396
-0.825897
29.5878
-0.913232
29.8402
-1.00124
30.0968
-1.08986
30.3576
-1.17904
30.6227
-1.26874
30.8922
-1.35891
31.1661
-1.44948
31.4445
-1.54041
31.7273
-1.63164
32.0148
-1.72311
32.3067
-1.81479
32.6033
-1.9066
32.9046
-1.9985
33.2105
-2.09042
33.521
-2.18233
33.8363
-2.27415
34.1563
-2.36584
34.481
-2.45734
34.8103
-2.54859
35.1445
-2.63954
35.4833
-2.73014
35.8268
-2.82032
36.175
-2.91004
36.528
-2.99922
36.885
-3.08788
37.249
-3.17573
37.6101
-3.26349
37.9989
-3.3486
-3.43896
38.3215
19.9169
1.96137
-19.7793
20.0575
1.94445
20.2002
1.92601
20.3445
1.90596
20.4902
1.88426
20.6371
1.86086
20.7848
1.83572
20.9334
1.80879
21.0827
1.78006
21.2326
1.74949
21.383
1.71708
21.534
1.68279
21.6855
1.64663
21.8375
1.60859
21.9901
1.56867
22.1434
1.52686
22.2974
1.48316
22.4521
1.4376
22.6077
1.39017
22.7642
1.34088
22.9217
1.28975
23.0803
1.2368
23.2401
1.18203
23.4013
1.12548
23.5639
1.06717
23.728
1.00711
23.8938
0.945328
24.0613
0.881857
24.2307
0.816724
24.4021
0.749957
24.5756
0.681588
24.7512
0.61165
24.9292
0.540177
25.1097
0.467203
25.2926
0.392766
25.4782
0.316904
25.6666
0.239656
25.8578
0.161061
26.052
0.0811618
26.2492
0
26.4495
-0.0823807
26.6531
-0.165936
26.8601
-0.25062
27.0705
-0.336388
27.2843
-0.42319
27.5018
-0.510981
27.7229
-0.59971
27.9478
-0.689328
28.1765
-0.779785
28.4091
-0.871029
28.6457
-0.963009
28.8863
-1.05567
29.131
-1.14897
29.3798
-1.24284
29.6328
-1.33723
29.8901
-1.43209
30.1516
-1.52736
30.4175
-1.62299
30.6878
-1.71892
30.9624
-1.8151
31.2416
-1.91146
31.5251
-2.00796
31.8132
-2.10453
32.1058
-2.20112
32.4029
-2.29767
32.7046
-2.39412
33.0108
-2.49041
33.3216
-2.58649
33.6369
-2.6823
33.9568
-2.77779
34.2813
-2.87288
34.6103
-2.96753
34.9438
-3.06168
35.282
-3.15525
35.624
-3.24827
35.9727
-3.34042
36.3188
-3.43246
36.6911
-3.52175
-3.61639
37.0012
19.5404
2.08654
-19.412
19.6712
2.0678
19.8036
2.04742
19.9373
2.02533
20.0721
2.0015
20.2079
1.97586
20.3445
1.94839
20.4818
1.91906
20.6197
1.88784
20.7582
1.85471
20.8973
1.81966
21.0369
1.78266
21.1771
1.74372
21.3179
1.70283
21.4593
1.65998
21.6015
1.61519
21.7444
1.56845
21.8881
1.51977
22.0328
1.46917
22.1785
1.41664
22.3253
1.36222
22.4732
1.30591
22.6224
1.24774
22.7731
1.18772
22.9252
1.12588
23.0789
1.06224
23.2342
0.996832
23.3914
0.929677
23.5505
0.860809
23.7116
0.790257
23.8748
0.718054
24.0403
0.644235
24.2081
0.568833
24.3783
0.491888
24.551
0.413436
24.7264
0.333517
24.9045
0.252172
25.0854
0.169442
25.2693
0.0853697
25.4562
-1.72771e-07
25.6462
-0.0866221
25.8393
-0.174451
26.0358
-0.263439
26.2356
-0.353538
26.4389
-0.444699
26.6457
-0.536872
26.8561
-0.630006
27.0701
-0.72405
27.2879
-0.818951
27.5095
-0.914656
27.735
-1.01111
27.9644
-1.10826
28.1978
-1.20605
28.4352
-1.30443
28.6767
-1.40333
28.9223
-1.50271
29.1721
-1.6025
29.4261
-1.70265
29.6843
-1.80309
29.9469
-1.90378
30.2137
-2.00464
30.4849
-2.10563
30.7604
-2.20668
31.0403
-2.30773
31.3246
-2.40873
31.6133
-2.50961
31.9064
-2.61031
32.2039
-2.71077
32.5058
-2.81094
32.8121
-2.91075
33.1229
-3.01014
33.438
-3.10905
33.7574
-3.20743
34.0814
-3.3052
34.4091
-3.40237
34.7432
-3.49862
35.075
-3.59474
35.4315
-3.68801
-3.78672
35.7295
19.1637
2.21035
-19.0445
19.2849
2.18971
19.4073
2.16732
19.5309
2.14313
19.6553
2.11709
19.7806
2.08918
19.9066
2.05935
20.0332
2.02758
20.1605
1.99385
20.2883
1.95813
20.4167
1.92042
20.5457
1.88071
20.6753
1.83898
20.8056
1.79524
20.9366
1.74949
21.0683
1.70172
21.2009
1.65196
21.3344
1.60019
21.4689
1.54644
21.6045
1.49072
21.7412
1.43304
21.8791
1.37342
22.0184
1.31189
22.1592
1.24846
22.3015
1.18315
22.4454
1.116
22.591
1.04703
22.7385
0.976262
22.8879
0.903737
23.0394
0.829483
23.193
0.753534
23.3488
0.675926
23.507
0.596695
23.6675
0.515878
23.8306
0.433517
23.9964
0.349651
24.1648
0.264322
24.3361
0.177574
24.5102
0.0894518
24.6873
0
24.8675
-0.0907343
25.0508
-0.182703
25.2373
-0.275858
25.4272
-0.370148
25.6204
-0.465523
25.8171
-0.561932
26.0173
-0.659321
26.2211
-0.757637
26.4285
-0.856826
26.6397
-0.956833
26.8546
-1.0576
27.0734
-1.15908
27.296
-1.2612
27.5225
-1.36391
27.7531
-1.46715
27.9876
-1.57087
28.2262
-1.675
28.4689
-1.77949
28.7157
-1.88427
28.9666
-1.98928
29.2218
-2.09446
29.4811
-2.19975
29.7447
-2.3051
30.0125
-2.41042
30.2845
-2.51568
30.5608
-2.62079
30.8414
-2.72571
31.1262
-2.83037
31.4153
-2.9347
31.7087
-3.03864
32.0063
-3.14214
32.3082
-3.24512
32.6142
-3.34754
32.9246
-3.4493
33.2386
-3.55043
33.5588
-3.6506
33.8768
-3.75059
34.2182
-3.84767
-3.95023
34.5047
18.7871
2.33269
-18.6769
18.8989
2.31007
19.0118
2.28561
19.1257
2.25926
19.2403
2.23098
19.3556
2.20075
19.4716
2.16853
19.5882
2.13429
19.7054
2.09803
19.8232
2.05972
19.9417
2.01935
20.0607
1.97691
20.1804
1.9324
20.3009
1.88582
20.4221
1.83717
20.5441
1.78646
20.6671
1.73368
20.791
1.67886
20.916
1.622
21.0421
1.56312
21.1694
1.50223
21.298
1.43935
21.428
1.3745
21.5595
1.30771
21.6926
1.23901
21.8274
1.1684
21.9639
1.09594
22.1023
1.02164
22.2426
0.945533
22.385
0.86766
22.5295
0.788052
22.6763
0.706746
22.8254
0.62378
22.9769
0.539192
23.131
0.453024
23.2876
0.365318
23.4469
0.276118
23.609
0.185467
23.7739
0.0934118
23.9418
0
24.1127
-0.0947205
24.2867
-0.190701
24.4639
-0.287889
24.6443
-0.386235
24.828
-0.485686
25.0151
-0.586188
25.2056
-0.687688
25.3997
-0.790129
25.5973
-0.893455
25.7985
-0.99761
26.0034
-1.10254
26.212
-1.20818
26.4245
-1.31447
26.6407
-1.42135
26.8608
-1.52877
27.0848
-1.63666
27.3127
-1.74497
27.5446
-1.85362
27.7805
-1.96256
28.0205
-2.07172
28.2644
-2.18105
28.5125
-2.29047
28.7646
-2.39992
29.0209
-2.50935
29.2813
-2.61868
29.5457
-2.72786
29.8144
-2.83681
30.0871
-2.94547
30.3639
-3.05379
30.6449
-3.16168
30.93
-3.2691
31.2192
-3.37597
31.5124
-3.48224
31.8098
-3.58782
32.1107
-3.69272
32.4175
-3.79662
32.7225
-3.90031
33.0495
-4.00101
-4.10723
33.3249
18.4108
2.45347
-18.3094
18.5137
2.4288
18.6175
2.40222
18.7221
2.37366
18.8274
2.34311
18.9334
2.31053
19.04
2.27589
19.1472
2.23917
19.255
2.20036
19.3634
2.15944
19.4725
2.11641
19.5823
2.07126
19.6928
2.02398
19.804
1.97457
19.9161
1.92304
20.0291
1.8694
20.1431
1.81365
20.258
1.75579
20.3741
1.69586
20.4914
1.63385
20.6099
1.56979
20.7298
1.5037
20.8511
1.4356
20.974
1.36551
21.0984
1.29346
21.2246
1.21948
21.3525
1.14359
21.4824
1.06583
21.6142
0.986223
21.7481
0.904812
21.8841
0.821631
22.0223
0.736717
22.1629
0.650109
22.3059
0.561847
22.4514
0.471974
22.5994
0.380532
22.7501
0.287568
22.9036
0.193126
23.0599
0.0972535
23.219
0
23.3811
-0.0985853
23.5463
-0.198452
23.7146
-0.299547
23.886
-0.401817
24.0607
-0.50521
24.2387
-0.609669
24.4201
-0.715139
24.6049
-0.821563
24.7932
-0.928882
24.985
-1.03704
25.1804
-1.14597
25.3794
-1.25562
25.5821
-1.36593
25.7885
-1.47684
25.9987
-1.58827
26.2126
-1.70018
26.4304
-1.81249
26.6521
-1.92515
26.8776
-2.03808
27.107
-2.15123
27.3404
-2.26453
27.5777
-2.37791
27.8189
-2.49131
28.0642
-2.60466
28.3134
-2.7179
28.5666
-2.83096
28.8238
-2.94377
29.0849
-3.05627
29.3501
-3.16839
29.6192
-3.28007
29.8924
-3.39123
30.1694
-3.50181
30.4504
-3.61176
30.7354
-3.72097
31.0238
-3.82948
31.3178
-3.93694
31.6102
-4.04414
31.9234
-4.1483
-4.25798
32.1882
18.0354
2.57257
-17.9423
18.1297
2.54582
18.2248
2.51707
18.3207
2.48628
18.4172
2.45341
18.5144
2.41846
18.6121
2.38139
18.7105
2.34218
18.8096
2.30082
18.9092
2.25729
19.0096
2.2116
19.1107
2.16374
19.2126
2.1137
19.3153
2.06148
19.4188
2.0071
19.5234
1.95055
19.6289
1.89185
19.7355
1.83101
19.8433
1.76803
19.9523
1.70295
20.0626
1.63577
20.1743
1.56651
20.2875
1.49521
20.4022
1.42188
20.5186
1.34655
20.6367
1.26925
20.7567
1.19001
20.8785
1.10886
21.0023
1.02583
21.1282
0.940963
21.2562
0.854293
21.3864
0.765859
21.519
0.675701
21.6539
0.58386
21.7913
0.49038
21.9313
0.395306
22.0739
0.298683
22.2192
0.200558
22.3673
0.10098
22.5182
0
22.672
-0.102332
22.8288
-0.205964
22.9887
-0.310842
23.1517
-0.416911
23.3178
-0.524116
23.4872
-0.6324
23.6599
-0.741706
23.8359
-0.851975
24.0153
-0.963149
24.1982
-1.07516
24.3845
-1.18796
24.5744
-1.30148
24.7679
-1.41566
24.9649
-1.53043
25.1657
-1.64573
25.3701
-1.7615
25.5782
-1.87767
25.79
-1.99417
26.0057
-2.11094
26.2251
-2.22792
26.4483
-2.34503
26.6754
-2.46221
26.9062
-2.57939
27.141
-2.69651
27.3795
-2.81349
27.622
-2.93027
27.8683
-3.04677
28.1184
-3.16294
28.3724
-3.2787
28.6302
-3.39399
28.8919
-3.50873
29.1574
-3.62286
29.4266
-3.73631
29.6998
-3.849
29.9763
-3.96094
30.2581
-4.07179
30.5385
-4.18234
30.8385
-4.2898
-4.40277
31.0931
17.6611
2.68994
-17.576
17.7473
2.66106
17.8342
2.6301
17.9219
2.59704
18.0101
2.56185
18.099
2.52451
18.1885
2.48499
18.2787
2.44329
18.3695
2.39938
18.461
2.35325
18.5532
2.30491
18.6462
2.25435
18.74
2.20157
18.8347
2.14657
18.9304
2.08935
19.027
2.02993
19.1247
1.96831
19.2235
1.90451
19.3235
1.83854
19.4248
1.77042
19.5274
1.70017
19.6315
1.6278
19.737
1.55335
19.8442
1.47684
19.953
1.39829
20.0636
1.31774
20.176
1.23522
20.2903
1.15075
20.4066
1.06438
20.5249
0.976135
20.6454
0.88606
20.7681
0.794193
20.8931
0.700575
21.0205
0.605249
21.1503
0.508259
21.2827
0.409651
21.4176
0.309472
21.5552
0.20777
21.6955
0.104596
21.8386
-1.72671e-07
21.9846
-0.105965
22.1335
-0.213245
22.2855
-0.321786
22.4404
-0.431531
22.5985
-0.542424
22.7597
-0.654407
22.9241
-0.767419
23.0918
-0.881403
23.2628
-0.996295
23.4371
-1.11204
23.6149
-1.22856
23.7961
-1.34581
23.9808
-1.46371
24.1689
-1.5822
24.3607
-1.70123
24.556
-1.82071
24.7549
-1.94058
24.9575
-2.06078
25.1637
-2.18124
25.3735
-2.30189
25.5871
-2.42267
25.8043
-2.54349
26.0253
-2.6643
26.25
-2.78502
26.4784
-2.90558
26.7106
-3.02592
26.9465
-3.14597
27.1861
-3.26565
27.4294
-3.38489
27.6764
-3.50363
27.9272
-3.62179
28.1816
-3.7393
28.4397
-3.85611
28.7015
-3.97211
28.9665
-4.08732
29.2367
-4.2014
29.5056
-4.31515
29.793
-4.42575
-4.54183
30.0378
17.2884
2.80549
-17.2108
17.3669
2.77445
17.4461
2.74127
17.526
2.70592
17.6065
2.66839
17.6877
2.62865
17.7694
2.58669
17.8519
2.54248
17.935
2.49602
18.0189
2.44731
18.1036
2.39633
18.189
2.34309
18.2753
2.28758
18.3626
2.22982
18.4508
2.1698
18.54
2.10754
18.6304
2.04304
18.7219
1.97632
18.8147
1.9074
18.9088
1.83629
19.0042
1.76301
19.1011
1.68759
19.1996
1.61005
19.2997
1.53042
19.4014
1.44872
19.5049
1.36498
19.6102
1.27924
19.7175
1.19153
19.8267
1.10189
19.938
1.01035
20.0514
0.916954
20.167
0.82174
20.2849
0.724751
20.4051
0.626031
20.5278
0.525625
20.6529
0.42358
20.7806
0.319945
20.911
0.214769
21.044
0.108103
21.1797
0
21.3183
-0.109487
21.4597
-0.220302
21.6041
-0.332391
21.7515
-0.445694
21.9018
-0.560155
22.0553
-0.675713
22.2119
-0.792307
22.3717
-0.909878
22.5347
-1.02836
22.701
-1.14769
22.8706
-1.26781
23.0435
-1.38865
23.2198
-1.51014
23.3995
-1.63223
23.5827
-1.75483
23.7694
-1.87788
23.9595
-2.00132
24.1532
-2.12508
24.3504
-2.24908
24.5512
-2.37326
24.7555
-2.49754
24.9635
-2.62187
25.175