/*--------------------------------*- C++ -*----------------------------------*\
| =========                 |                                                 |
| \\      /  F ield         | OpenFOAM: The Open Source CFD Toolbox           |
|  \\    /   O peration     | Version:  2312                                  |
|   \\  /    A nd           | Website:  www.openfoam.com                      |
|    \\/     M anipulation  |                                                 |
\*---------------------------------------------------------------------------*/
FoamFile
{
    version     2.0;
    format      ascii;
    arch        "LSB;label=32;scalar=64";
    class       volScalarField;
    location    "2.2";
    object      wave;
}
// * * * * * * * * * * * * * * * * * * * * * * * * * * * * * * * * * * * * * //

dimensions      [0 0 0 0 0 0 0];

internalField   nonuniform List<scalar> 
100
(
0.759315
0.646962
0.518356
0.376727
0.225635
0.0688735
-0.0896179
-0.245858
-0.395921
-0.536038
-0.662689
-0.772691
-0.863282
-0.932185
-0.977669
-0.998593
-0.994429
-0.965283
-0.911887
-0.835583
-0.738286
-0.622443
-0.490962
-0.347147
-0.194611
-0.0371863
0.121173
0.276488
0.424857
0.562553
0.686116
0.792442
0.878861
0.9432
0.983845
0.999773
0.990584
0.95651
0.898406
0.817732
0.716515
0.597297
0.463074
0.317218
0.163392
0.00546161
-0.152606
-0.30684
-0.453365
-0.588501
-0.708852
-0.811396
-0.893555
-0.953266
-0.989029
-0.999946
-0.985741
-0.946773
-0.88402
-0.799058
-0.694021
-0.57155
-0.43472
-0.286969
-0.132008
0.0262686
0.183885
0.336883
0.481417
0.613857
0.730875
0.829532
0.90735
0.962372
0.993218
0.999112
0.979906
0.936083
0.868743
0.779579
0.670829
0.545227
0.405928
0.256431
0.100492
-0.0579723
-0.21498
-0.366586
-0.508984
-0.638594
-0.752162
-0.846833
-0.92023
-0.970509
-0.996407
-0.997273
-0.973085
-0.924451
-0.852592
-0.759315
)
;

boundaryField
{
    movingWall
    {
        type            calculated;
        value           uniform 0;
    }
    fixedWalls
    {
        type            calculated;
        value           uniform 0;
    }
    frontAndBack
    {
        type            empty;
    }
}


// ************************************************************************* //
