/*--------------------------------*- C++ -*----------------------------------*\
| =========                 |                                                 |
| \\      /  F ield         | OpenFOAM: The Open Source CFD Toolbox           |
|  \\    /   O peration     | Version:  2312                                  |
|   \\  /    A nd           | Website:  www.openfoam.com                      |
|    \\/     M anipulation  |                                                 |
\*---------------------------------------------------------------------------*/
FoamFile
{
    version     2.0;
    format      ascii;
    arch        "LSB;label=32;scalar=64";
    class       volVectorField;
    location    "0.732";
    object      U;
}
// * * * * * * * * * * * * * * * * * * * * * * * * * * * * * * * * * * * * * //

dimensions      [0 1 -1 0 0 0 0];

internalField   nonuniform List<vector> 
31205
(
(253.153 0 0)
(255.034 0 0)
(256.861 0 0)
(258.636 0 0)
(260.362 0 0)
(262.039 0 0)
(263.67 0 0)
(265.255 0 0)
(266.797 0 0)
(268.295 0 0)
(269.751 0 0)
(271.166 0 0)
(272.542 0 0)
(273.878 0 0)
(275.175 0 0)
(276.435 0 0)
(277.658 0 0)
(278.844 0 0)
(279.994 0 0)
(281.109 0 0)
(282.19 0 0)
(283.236 0 0)
(284.247 0 0)
(285.226 0 0)
(286.171 0 0)
(287.083 0 0)
(287.962 0 0)
(288.809 0 0)
(289.624 0 0)
(290.407 0 0)
(291.157 0 0)
(291.876 0 0)
(292.563 0 0)
(293.219 0 0)
(293.843 0 0)
(294.435 0 0)
(294.996 0 0)
(295.524 0 0)
(296.021 0 0)
(296.486 0 0)
(296.919 0 0)
(297.32 0 0)
(297.688 0 0)
(298.023 0 0)
(298.325 0 0)
(298.594 0 0)
(298.829 0 0)
(299.029 0 0)
(299.195 0 0)
(299.326 0 0)
(299.42 0 0)
(299.479 0 0)
(299.5 0 0)
(299.483 0 0)
(299.428 0 0)
(299.333 0 0)
(299.197 0 0)
(299.02 0 0)
(298.8 0 0)
(298.535 0 0)
(298.225 0 0)
(297.868 0 0)
(297.462 0 0)
(297.005 0 0)
(296.496 0 0)
(295.93 0 0)
(295.307 0 0)
(294.623 0 0)
(293.875 0 0)
(293.059 0 0)
(292.17 0 0)
(291.21 0 0)
(290.147 0 0)
(289.048 0 0)
(287.699 0 0)
(286.578 0 0)
(284.991 0 0)
(283.36 0 0)
(281.068 0 0)
(254.862 0 0)
(256.646 0 0)
(258.381 0 0)
(260.069 0 0)
(261.711 0 0)
(263.308 0 0)
(264.863 0 0)
(266.375 0 0)
(267.847 0 0)
(269.278 0 0)
(270.67 0 0)
(272.024 0 0)
(273.341 0 0)
(274.621 0 0)
(275.865 0 0)
(277.073 0 0)
(278.247 0 0)
(279.387 0 0)
(280.492 0 0)
(281.565 0 0)
(282.604 0 0)
(283.611 0 0)
(284.586 0 0)
(285.53 0 0)
(286.441 0 0)
(287.322 0 0)
(288.171 0 0)
(288.99 0 0)
(289.778 0 0)
(290.536 0 0)
(291.264 0 0)
(291.961 0 0)
(292.628 0 0)
(293.265 0 0)
(293.872 0 0)
(294.449 0 0)
(294.996 0 0)
(295.512 0 0)
(295.999 0 0)
(296.455 0 0)
(296.88 0 0)
(297.275 0 0)
(297.639 0 0)
(297.972 0 0)
(298.273 0 0)
(298.543 0 0)
(298.78 0 0)
(298.985 0 0)
(299.158 0 0)
(299.297 0 0)
(299.402 0 0)
(299.473 0 0)
(299.508 0 0)
(299.509 0 0)
(299.472 0 0)
(299.399 0 0)
(299.287 0 0)
(299.137 0 0)
(298.946 0 0)
(298.715 0 0)
(298.441 0 0)
(298.123 0 0)
(297.76 0 0)
(297.35 0 0)
(296.891 0 0)
(296.382 0 0)
(295.82 0 0)
(295.202 0 0)
(294.526 0 0)
(293.79 0 0)
(292.987 0 0)
(292.121 0 0)
(291.167 0 0)
(290.169 0 0)
(289.025 0 0)
(287.843 0 0)
(286.56 0 0)
(285.329 0 0)
(283.078 0 0)
(256.56 0 0)
(258.251 0 0)
(259.897 0 0)
(261.5 0 0)
(263.06 0 0)
(264.58 0 0)
(266.06 0 0)
(267.501 0 0)
(268.904 0 0)
(270.27 0 0)
(271.6 0 0)
(272.894 0 0)
(274.153 0 0)
(275.378 0 0)
(276.569 0 0)
(277.728 0 0)
(278.853 0 0)
(279.946 0 0)
(281.008 0 0)
(282.038 0 0)
(283.037 0 0)
(284.006 0 0)
(284.944 0 0)
(285.852 0 0)
(286.731 0 0)
(287.58 0 0)
(288.4 0 0)
(289.19 0 0)
(289.952 0 0)
(290.685 0 0)
(291.389 0 0)
(292.064 0 0)
(292.711 0 0)
(293.329 0 0)
(293.918 0 0)
(294.479 0 0)
(295.012 0 0)
(295.515 0 0)
(295.99 0 0)
(296.436 0 0)
(296.854 0 0)
(297.242 0 0)
(297.6 0 0)
(297.929 0 0)
(298.229 0 0)
(298.498 0 0)
(298.737 0 0)
(298.945 0 0)
(299.122 0 0)
(299.267 0 0)
(299.381 0 0)
(299.462 0 0)
(299.51 0 0)
(299.524 0 0)
(299.505 0 0)
(299.45 0 0)
(299.359 0 0)
(299.232 0 0)
(299.068 0 0)
(298.865 0 0)
(298.623 0 0)
(298.34 0 0)
(298.015 0 0)
(297.646 0 0)
(297.233 0 0)
(296.773 0 0)
(296.264 0 0)
(295.705 0 0)
(295.093 0 0)
(294.426 0 0)
(293.699 0 0)
(292.914 0 0)
(292.057 0 0)
(291.141 0 0)
(290.142 0 0)
(289.071 0 0)
(287.844 0 0)
(286.817 0 0)
(284.901 0 0)
(258.202 0 0)
(259.805 0 0)
(261.367 0 0)
(262.89 0 0)
(264.373 0 0)
(265.819 0 0)
(267.229 0 0)
(268.602 0 0)
(269.94 0 0)
(271.243 0 0)
(272.513 0 0)
(273.75 0 0)
(274.954 0 0)
(276.126 0 0)
(277.266 0 0)
(278.376 0 0)
(279.455 0 0)
(280.503 0 0)
(281.522 0 0)
(282.512 0 0)
(283.472 0 0)
(284.403 0 0)
(285.306 0 0)
(286.18 0 0)
(287.026 0 0)
(287.845 0 0)
(288.635 0 0)
(289.398 0 0)
(290.134 0 0)
(290.842 0 0)
(291.523 0 0)
(292.176 0 0)
(292.803 0 0)
(293.402 0 0)
(293.974 0 0)
(294.519 0 0)
(295.037 0 0)
(295.528 0 0)
(295.991 0 0)
(296.427 0 0)
(296.835 0 0)
(297.216 0 0)
(297.569 0 0)
(297.894 0 0)
(298.19 0 0)
(298.458 0 0)
(298.697 0 0)
(298.907 0 0)
(299.087 0 0)
(299.238 0 0)
(299.358 0 0)
(299.448 0 0)
(299.507 0 0)
(299.533 0 0)
(299.528 0 0)
(299.49 0 0)
(299.418 0 0)
(299.312 0 0)
(299.17 0 0)
(298.993 0 0)
(298.779 0 0)
(298.527 0 0)
(298.236 0 0)
(297.904 0 0)
(297.532 0 0)
(297.116 0 0)
(296.655 0 0)
(296.148 0 0)
(295.592 0 0)
(294.987 0 0)
(294.327 0 0)
(293.614 0 0)
(292.84 0 0)
(292.005 0 0)
(291.1 0 0)
(290.151 0 0)
(289.035 0 0)
(288.08 0 0)
(286.4 0 0)
(259.77 0 0)
(261.291 0 0)
(262.775 0 0)
(264.221 0 0)
(265.633 0 0)
(267.009 0 0)
(268.351 0 0)
(269.661 0 0)
(270.937 0 0)
(272.182 0 0)
(273.395 0 0)
(274.577 0 0)
(275.729 0 0)
(276.85 0 0)
(277.943 0 0)
(279.006 0 0)
(280.04 0 0)
(281.046 0 0)
(282.024 0 0)
(282.974 0 0)
(283.897 0 0)
(284.793 0 0)
(285.661 0 0)
(286.503 0 0)
(287.318 0 0)
(288.107 0 0)
(288.869 0 0)
(289.606 0 0)
(290.316 0 0)
(291 0 0)
(291.659 0 0)
(292.291 0 0)
(292.898 0 0)
(293.479 0 0)
(294.034 0 0)
(294.564 0 0)
(295.067 0 0)
(295.545 0 0)
(295.997 0 0)
(296.422 0 0)
(296.822 0 0)
(297.195 0 0)
(297.541 0 0)
(297.861 0 0)
(298.154 0 0)
(298.421 0 0)
(298.659 0 0)
(298.87 0 0)
(299.053 0 0)
(299.208 0 0)
(299.334 0 0)
(299.432 0 0)
(299.499 0 0)
(299.537 0 0)
(299.544 0 0)
(299.521 0 0)
(299.466 0 0)
(299.378 0 0)
(299.258 0 0)
(299.104 0 0)
(298.915 0 0)
(298.691 0 0)
(298.431 0 0)
(298.133 0 0)
(297.797 0 0)
(297.421 0 0)
(297.004 0 0)
(296.544 0 0)
(296.039 0 0)
(295.489 0 0)
(294.89 0 0)
(294.241 0 0)
(293.538 0 0)
(292.782 0 0)
(291.958 0 0)
(291.099 0 0)
(290.101 0 0)
(289.229 0 0)
(287.719 0 0)
(261.259 0 0)
(262.703 0 0)
(264.113 0 0)
(265.489 0 0)
(266.832 0 0)
(268.144 0 0)
(269.423 0 0)
(270.672 0 0)
(271.891 0 0)
(273.079 0 0)
(274.239 0 0)
(275.369 0 0)
(276.472 0 0)
(277.546 0 0)
(278.592 0 0)
(279.611 0 0)
(280.604 0 0)
(281.569 0 0)
(282.508 0 0)
(283.421 0 0)
(284.308 0 0)
(285.17 0 0)
(286.006 0 0)
(286.816 0 0)
(287.602 0 0)
(288.362 0 0)
(289.098 0 0)
(289.808 0 0)
(290.494 0 0)
(291.156 0 0)
(291.792 0 0)
(292.405 0 0)
(292.992 0 0)
(293.556 0 0)
(294.095 0 0)
(294.609 0 0)
(295.098 0 0)
(295.563 0 0)
(296.004 0 0)
(296.419 0 0)
(296.81 0 0)
(297.176 0 0)
(297.516 0 0)
(297.831 0 0)
(298.121 0 0)
(298.385 0 0)
(298.623 0 0)
(298.834 0 0)
(299.019 0 0)
(299.178 0 0)
(299.309 0 0)
(299.413 0 0)
(299.489 0 0)
(299.536 0 0)
(299.555 0 0)
(299.545 0 0)
(299.505 0 0)
(299.435 0 0)
(299.333 0 0)
(299.201 0 0)
(299.035 0 0)
(298.837 0 0)
(298.605 0 0)
(298.338 0 0)
(298.035 0 0)
(297.695 0 0)
(297.317 0 0)
(296.9 0 0)
(296.442 0 0)
(295.941 0 0)
(295.397 0 0)
(294.807 0 0)
(294.168 0 0)
(293.481 0 0)
(292.733 0 0)
(291.952 0 0)
(291.051 0 0)
(290.263 0 0)
(288.904 0 0)
(262.67 0 0)
(264.043 0 0)
(265.384 0 0)
(266.693 0 0)
(267.973 0 0)
(269.223 0 0)
(270.444 0 0)
(271.636 0 0)
(272.799 0 0)
(273.936 0 0)
(275.044 0 0)
(276.126 0 0)
(277.182 0 0)
(278.211 0 0)
(279.214 0 0)
(280.191 0 0)
(281.143 0 0)
(282.071 0 0)
(282.973 0 0)
(283.85 0 0)
(284.703 0 0)
(285.532 0 0)
(286.337 0 0)
(287.118 0 0)
(287.875 0 0)
(288.608 0 0)
(289.318 0 0)
(290.004 0 0)
(290.667 0 0)
(291.306 0 0)
(291.922 0 0)
(292.515 0 0)
(293.085 0 0)
(293.631 0 0)
(294.154 0 0)
(294.653 0 0)
(295.13 0 0)
(295.582 0 0)
(296.012 0 0)
(296.417 0 0)
(296.799 0 0)
(297.158 0 0)
(297.492 0 0)
(297.802 0 0)
(298.088 0 0)
(298.349 0 0)
(298.586 0 0)
(298.798 0 0)
(298.985 0 0)
(299.146 0 0)
(299.282 0 0)
(299.392 0 0)
(299.475 0 0)
(299.532 0 0)
(299.561 0 0)
(299.563 0 0)
(299.537 0 0)
(299.482 0 0)
(299.398 0 0)
(299.285 0 0)
(299.141 0 0)
(298.966 0 0)
(298.76 0 0)
(298.521 0 0)
(298.249 0 0)
(297.942 0 0)
(297.6 0 0)
(297.222 0 0)
(296.806 0 0)
(296.351 0 0)
(295.856 0 0)
(295.319 0 0)
(294.738 0 0)
(294.113 0 0)
(293.434 0 0)
(292.725 0 0)
(291.907 0 0)
(291.192 0 0)
(289.967 0 0)
(264.007 0 0)
(265.313 0 0)
(266.589 0 0)
(267.837 0 0)
(269.057 0 0)
(270.249 0 0)
(271.414 0 0)
(272.553 0 0)
(273.665 0 0)
(274.751 0 0)
(275.812 0 0)
(276.848 0 0)
(277.859 0 0)
(278.846 0 0)
(279.808 0 0)
(280.746 0 0)
(281.66 0 0)
(282.55 0 0)
(283.417 0 0)
(284.261 0 0)
(285.082 0 0)
(285.88 0 0)
(286.655 0 0)
(287.408 0 0)
(288.138 0 0)
(288.845 0 0)
(289.53 0 0)
(290.193 0 0)
(290.834 0 0)
(291.452 0 0)
(292.048 0 0)
(292.622 0 0)
(293.174 0 0)
(293.704 0 0)
(294.211 0 0)
(294.697 0 0)
(295.16 0 0)
(295.601 0 0)
(296.02 0 0)
(296.416 0 0)
(296.789 0 0)
(297.14 0 0)
(297.468 0 0)
(297.774 0 0)
(298.056 0 0)
(298.315 0 0)
(298.55 0 0)
(298.762 0 0)
(298.95 0 0)
(299.114 0 0)
(299.254 0 0)
(299.369 0 0)
(299.458 0 0)
(299.523 0 0)
(299.562 0 0)
(299.575 0 0)
(299.562 0 0)
(299.521 0 0)
(299.454 0 0)
(299.358 0 0)
(299.234 0 0)
(299.081 0 0)
(298.898 0 0)
(298.685 0 0)
(298.441 0 0)
(298.165 0 0)
(297.856 0 0)
(297.514 0 0)
(297.136 0 0)
(296.723 0 0)
(296.273 0 0)
(295.785 0 0)
(295.255 0 0)
(294.687 0 0)
(294.07 0 0)
(293.424 0 0)
(292.682 0 0)
(292.031 0 0)
(290.925 0 0)
(265.275 0 0)
(266.518 0 0)
(267.734 0 0)
(268.923 0 0)
(270.087 0 0)
(271.225 0 0)
(272.337 0 0)
(273.426 0 0)
(274.489 0 0)
(275.529 0 0)
(276.545 0 0)
(277.537 0 0)
(278.506 0 0)
(279.452 0 0)
(280.375 0 0)
(281.275 0 0)
(282.153 0 0)
(283.009 0 0)
(283.843 0 0)
(284.655 0 0)
(285.445 0 0)
(286.213 0 0)
(286.96 0 0)
(287.686 0 0)
(288.39 0 0)
(289.072 0 0)
(289.734 0 0)
(290.374 0 0)
(290.994 0 0)
(291.592 0 0)
(292.169 0 0)
(292.725 0 0)
(293.26 0 0)
(293.774 0 0)
(294.267 0 0)
(294.739 0 0)
(295.19 0 0)
(295.619 0 0)
(296.027 0 0)
(296.414 0 0)
(296.779 0 0)
(297.123 0 0)
(297.445 0 0)
(297.746 0 0)
(298.024 0 0)
(298.28 0 0)
(298.514 0 0)
(298.726 0 0)
(298.915 0 0)
(299.081 0 0)
(299.224 0 0)
(299.343 0 0)
(299.439 0 0)
(299.511 0 0)
(299.559 0 0)
(299.582 0 0)
(299.58 0 0)
(299.553 0 0)
(299.5 0 0)
(299.421 0 0)
(299.315 0 0)
(299.182 0 0)
(299.021 0 0)
(298.832 0 0)
(298.613 0 0)
(298.365 0 0)
(298.087 0 0)
(297.777 0 0)
(297.435 0 0)
(297.06 0 0)
(296.651 0 0)
(296.207 0 0)
(295.725 0 0)
(295.208 0 0)
(294.646 0 0)
(294.058 0 0)
(293.384 0 0)
(292.792 0 0)
(291.79 0 0)
(266.478 0 0)
(267.662 0 0)
(268.821 0 0)
(269.955 0 0)
(271.066 0 0)
(272.153 0 0)
(273.216 0 0)
(274.257 0 0)
(275.275 0 0)
(276.27 0 0)
(277.243 0 0)
(278.194 0 0)
(279.123 0 0)
(280.031 0 0)
(280.917 0 0)
(281.782 0 0)
(282.626 0 0)
(283.448 0 0)
(284.25 0 0)
(285.032 0 0)
(285.792 0 0)
(286.533 0 0)
(287.253 0 0)
(287.952 0 0)
(288.632 0 0)
(289.291 0 0)
(289.93 0 0)
(290.549 0 0)
(291.148 0 0)
(291.727 0 0)
(292.286 0 0)
(292.825 0 0)
(293.343 0 0)
(293.842 0 0)
(294.321 0 0)
(294.78 0 0)
(295.218 0 0)
(295.637 0 0)
(296.035 0 0)
(296.412 0 0)
(296.77 0 0)
(297.107 0 0)
(297.423 0 0)
(297.718 0 0)
(297.993 0 0)
(298.246 0 0)
(298.479 0 0)
(298.69 0 0)
(298.879 0 0)
(299.047 0 0)
(299.193 0 0)
(299.317 0 0)
(299.418 0 0)
(299.496 0 0)
(299.552 0 0)
(299.584 0 0)
(299.593 0 0)
(299.578 0 0)
(299.539 0 0)
(299.475 0 0)
(299.385 0 0)
(299.271 0 0)
(299.13 0 0)
(298.962 0 0)
(298.768 0 0)
(298.545 0 0)
(298.295 0 0)
(298.015 0 0)
(297.706 0 0)
(297.365 0 0)
(296.994 0 0)
(296.59 0 0)
(296.152 0 0)
(295.681 0 0)
(295.169 0 0)
(294.634 0 0)
(294.02 0 0)
(293.481 0 0)
(292.573 0 0)
(267.62 0 0)
(268.749 0 0)
(269.854 0 0)
(270.937 0 0)
(271.998 0 0)
(273.037 0 0)
(274.054 0 0)
(275.049 0 0)
(276.023 0 0)
(276.977 0 0)
(277.909 0 0)
(278.821 0 0)
(279.713 0 0)
(280.584 0 0)
(281.435 0 0)
(282.266 0 0)
(283.077 0 0)
(283.869 0 0)
(284.64 0 0)
(285.393 0 0)
(286.126 0 0)
(286.839 0 0)
(287.533 0 0)
(288.208 0 0)
(288.864 0 0)
(289.501 0 0)
(290.118 0 0)
(290.717 0 0)
(291.296 0 0)
(291.857 0 0)
(292.398 0 0)
(292.92 0 0)
(293.424 0 0)
(293.908 0 0)
(294.373 0 0)
(294.819 0 0)
(295.246 0 0)
(295.654 0 0)
(296.042 0 0)
(296.411 0 0)
(296.76 0 0)
(297.09 0 0)
(297.401 0 0)
(297.691 0 0)
(297.962 0 0)
(298.213 0 0)
(298.443 0 0)
(298.653 0 0)
(298.843 0 0)
(299.012 0 0)
(299.161 0 0)
(299.288 0 0)
(299.394 0 0)
(299.479 0 0)
(299.542 0 0)
(299.582 0 0)
(299.601 0 0)
(299.597 0 0)
(299.57 0 0)
(299.52 0 0)
(299.446 0 0)
(299.348 0 0)
(299.225 0 0)
(299.078 0 0)
(298.905 0 0)
(298.707 0 0)
(298.482 0 0)
(298.23 0 0)
(297.95 0 0)
(297.642 0 0)
(297.304 0 0)
(296.937 0 0)
(296.538 0 0)
(296.11 0 0)
(295.644 0 0)
(295.156 0 0)
(294.598 0 0)
(294.106 0 0)
(293.282 0 0)
(268.706 0 0)
(269.782 0 0)
(270.837 0 0)
(271.871 0 0)
(272.885 0 0)
(273.878 0 0)
(274.851 0 0)
(275.804 0 0)
(276.738 0 0)
(277.651 0 0)
(278.545 0 0)
(279.42 0 0)
(280.276 0 0)
(281.112 0 0)
(281.93 0 0)
(282.729 0 0)
(283.509 0 0)
(284.271 0 0)
(285.014 0 0)
(285.739 0 0)
(286.445 0 0)
(287.133 0 0)
(287.802 0 0)
(288.454 0 0)
(289.087 0 0)
(289.702 0 0)
(290.299 0 0)
(290.878 0 0)
(291.439 0 0)
(291.982 0 0)
(292.506 0 0)
(293.013 0 0)
(293.501 0 0)
(293.971 0 0)
(294.423 0 0)
(294.857 0 0)
(295.273 0 0)
(295.67 0 0)
(296.049 0 0)
(296.409 0 0)
(296.751 0 0)
(297.074 0 0)
(297.379 0 0)
(297.665 0 0)
(297.931 0 0)
(298.179 0 0)
(298.408 0 0)
(298.617 0 0)
(298.807 0 0)
(298.977 0 0)
(299.128 0 0)
(299.258 0 0)
(299.369 0 0)
(299.459 0 0)
(299.528 0 0)
(299.576 0 0)
(299.604 0 0)
(299.61 0 0)
(299.594 0 0)
(299.557 0 0)
(299.497 0 0)
(299.415 0 0)
(299.309 0 0)
(299.181 0 0)
(299.028 0 0)
(298.851 0 0)
(298.65 0 0)
(298.423 0 0)
(298.17 0 0)
(297.891 0 0)
(297.586 0 0)
(297.252 0 0)
(296.89 0 0)
(296.499 0 0)
(296.075 0 0)
(295.631 0 0)
(295.123 0 0)
(294.674 0 0)
(293.925 0 0)
(269.737 0 0)
(270.765 0 0)
(271.772 0 0)
(272.761 0 0)
(273.73 0 0)
(274.68 0 0)
(275.612 0 0)
(276.525 0 0)
(277.419 0 0)
(278.295 0 0)
(279.153 0 0)
(279.992 0 0)
(280.814 0 0)
(281.618 0 0)
(282.404 0 0)
(283.172 0 0)
(283.923 0 0)
(284.656 0 0)
(285.372 0 0)
(286.07 0 0)
(286.751 0 0)
(287.414 0 0)
(288.061 0 0)
(288.69 0 0)
(289.301 0 0)
(289.896 0 0)
(290.473 0 0)
(291.033 0 0)
(291.576 0 0)
(292.102 0 0)
(292.61 0 0)
(293.102 0 0)
(293.576 0 0)
(294.032 0 0)
(294.472 0 0)
(294.894 0 0)
(295.299 0 0)
(295.686 0 0)
(296.055 0 0)
(296.408 0 0)
(296.742 0 0)
(297.059 0 0)
(297.358 0 0)
(297.639 0 0)
(297.902 0 0)
(298.146 0 0)
(298.373 0 0)
(298.581 0 0)
(298.771 0 0)
(298.942 0 0)
(299.094 0 0)
(299.227 0 0)
(299.341 0 0)
(299.436 0 0)
(299.511 0 0)
(299.567 0 0)
(299.602 0 0)
(299.618 0 0)
(299.613 0 0)
(299.587 0 0)
(299.54 0 0)
(299.472 0 0)
(299.382 0 0)
(299.271 0 0)
(299.137 0 0)
(298.98 0 0)
(298.8 0 0)
(298.597 0 0)
(298.369 0 0)
(298.117 0 0)
(297.84 0 0)
(297.537 0 0)
(297.208 0 0)
(296.853 0 0)
(296.467 0 0)
(296.062 0 0)
(295.599 0 0)
(295.19 0 0)
(294.509 0 0)
(270.719 0 0)
(271.7 0 0)
(272.663 0 0)
(273.608 0 0)
(274.535 0 0)
(275.445 0 0)
(276.337 0 0)
(277.212 0 0)
(278.069 0 0)
(278.91 0 0)
(279.733 0 0)
(280.539 0 0)
(281.329 0 0)
(282.101 0 0)
(282.857 0 0)
(283.597 0 0)
(284.319 0 0)
(285.025 0 0)
(285.715 0 0)
(286.388 0 0)
(287.045 0 0)
(287.685 0 0)
(288.309 0 0)
(288.916 0 0)
(289.507 0 0)
(290.082 0 0)
(290.641 0 0)
(291.183 0 0)
(291.708 0 0)
(292.218 0 0)
(292.711 0 0)
(293.188 0 0)
(293.648 0 0)
(294.092 0 0)
(294.519 0 0)
(294.929 0 0)
(295.324 0 0)
(295.701 0 0)
(296.062 0 0)
(296.406 0 0)
(296.733 0 0)
(297.043 0 0)
(297.337 0 0)
(297.613 0 0)
(297.872 0 0)
(298.114 0 0)
(298.338 0 0)
(298.545 0 0)
(298.734 0 0)
(298.906 0 0)
(299.06 0 0)
(299.195 0 0)
(299.313 0 0)
(299.412 0 0)
(299.492 0 0)
(299.554 0 0)
(299.597 0 0)
(299.621 0 0)
(299.626 0 0)
(299.61 0 0)
(299.576 0 0)
(299.521 0 0)
(299.445 0 0)
(299.349 0 0)
(299.232 0 0)
(299.094 0 0)
(298.934 0 0)
(298.752 0 0)
(298.548 0 0)
(298.321 0 0)
(298.07 0 0)
(297.796 0 0)
(297.497 0 0)
(297.174 0 0)
(296.823 0 0)
(296.454 0 0)
(296.033 0 0)
(295.659 0 0)
(295.04 0 0)
(271.652 0 0)
(272.59 0 0)
(273.511 0 0)
(274.415 0 0)
(275.303 0 0)
(276.174 0 0)
(277.029 0 0)
(277.868 0 0)
(278.69 0 0)
(279.497 0 0)
(280.288 0 0)
(281.062 0 0)
(281.821 0 0)
(282.564 0 0)
(283.291 0 0)
(284.003 0 0)
(284.699 0 0)
(285.379 0 0)
(286.044 0 0)
(286.693 0 0)
(287.326 0 0)
(287.944 0 0)
(288.547 0 0)
(289.134 0 0)
(289.705 0 0)
(290.261 0 0)
(290.802 0 0)
(291.327 0 0)
(291.836 0 0)
(292.33 0 0)
(292.808 0 0)
(293.27 0 0)
(293.717 0 0)
(294.149 0 0)
(294.564 0 0)
(294.964 0 0)
(295.348 0 0)
(295.716 0 0)
(296.068 0 0)
(296.404 0 0)
(296.725 0 0)
(297.029 0 0)
(297.316 0 0)
(297.588 0 0)
(297.843 0 0)
(298.082 0 0)
(298.304 0 0)
(298.509 0 0)
(298.698 0 0)
(298.87 0 0)
(299.025 0 0)
(299.162 0 0)
(299.283 0 0)
(299.386 0 0)
(299.471 0 0)
(299.539 0 0)
(299.588 0 0)
(299.62 0 0)
(299.633 0 0)
(299.628 0 0)
(299.604 0 0)
(299.561 0 0)
(299.499 0 0)
(299.418 0 0)
(299.316 0 0)
(299.195 0 0)
(299.054 0 0)
(298.891 0 0)
(298.708 0 0)
(298.504 0 0)
(298.278 0 0)
(298.029 0 0)
(297.758 0 0)
(297.465 0 0)
(297.145 0 0)
(296.81 0 0)
(296.426 0 0)
(296.085 0 0)
(295.522 0 0)
(272.542 0 0)
(273.438 0 0)
(274.319 0 0)
(275.185 0 0)
(276.035 0 0)
(276.87 0 0)
(277.69 0 0)
(278.494 0 0)
(279.284 0 0)
(280.058 0 0)
(280.818 0 0)
(281.562 0 0)
(282.292 0 0)
(283.007 0 0)
(283.707 0 0)
(284.392 0 0)
(285.062 0 0)
(285.718 0 0)
(286.359 0 0)
(286.985 0 0)
(287.597 0 0)
(288.193 0 0)
(288.776 0 0)
(289.343 0 0)
(289.896 0 0)
(290.433 0 0)
(290.957 0 0)
(291.465 0 0)
(291.959 0 0)
(292.437 0 0)
(292.901 0 0)
(293.35 0 0)
(293.785 0 0)
(294.204 0 0)
(294.608 0 0)
(294.997 0 0)
(295.371 0 0)
(295.73 0 0)
(296.074 0 0)
(296.403 0 0)
(296.716 0 0)
(297.014 0 0)
(297.296 0 0)
(297.563 0 0)
(297.815 0 0)
(298.05 0 0)
(298.27 0 0)
(298.474 0 0)
(298.662 0 0)
(298.834 0 0)
(298.99 0 0)
(299.129 0 0)
(299.252 0 0)
(299.358 0 0)
(299.448 0 0)
(299.521 0 0)
(299.577 0 0)
(299.615 0 0)
(299.636 0 0)
(299.64 0 0)
(299.626 0 0)
(299.595 0 0)
(299.545 0 0)
(299.477 0 0)
(299.39 0 0)
(299.284 0 0)
(299.16 0 0)
(299.016 0 0)
(298.852 0 0)
(298.669 0 0)
(298.465 0 0)
(298.24 0 0)
(297.995 0 0)
(297.729 0 0)
(297.438 0 0)
(297.133 0 0)
(296.783 0 0)
(296.472 0 0)
(295.96 0 0)
(273.389 0 0)
(274.247 0 0)
(275.09 0 0)
(275.919 0 0)
(276.734 0 0)
(277.534 0 0)
(278.32 0 0)
(279.093 0 0)
(279.851 0 0)
(280.595 0 0)
(281.325 0 0)
(282.04 0 0)
(282.742 0 0)
(283.43 0 0)
(284.105 0 0)
(284.765 0 0)
(285.411 0 0)
(286.043 0 0)
(286.661 0 0)
(287.266 0 0)
(287.856 0 0)
(288.433 0 0)
(288.995 0 0)
(289.544 0 0)
(290.079 0 0)
(290.599 0 0)
(291.106 0 0)
(291.598 0 0)
(292.077 0 0)
(292.541 0 0)
(292.991 0 0)
(293.428 0 0)
(293.849 0 0)
(294.257 0 0)
(294.651 0 0)
(295.03 0 0)
(295.394 0 0)
(295.744 0 0)
(296.08 0 0)
(296.401 0 0)
(296.708 0 0)
(297 0 0)
(297.277 0 0)
(297.539 0 0)
(297.787 0 0)
(298.019 0 0)
(298.237 0 0)
(298.439 0 0)
(298.626 0 0)
(298.798 0 0)
(298.954 0 0)
(299.095 0 0)
(299.22 0 0)
(299.329 0 0)
(299.423 0 0)
(299.5 0 0)
(299.562 0 0)
(299.607 0 0)
(299.636 0 0)
(299.648 0 0)
(299.643 0 0)
(299.621 0 0)
(299.583 0 0)
(299.527 0 0)
(299.453 0 0)
(299.362 0 0)
(299.253 0 0)
(299.126 0 0)
(298.98 0 0)
(298.816 0 0)
(298.633 0 0)
(298.431 0 0)
(298.209 0 0)
(297.967 0 0)
(297.704 0 0)
(297.426 0 0)
(297.108 0 0)
(296.824 0 0)
(296.358 0 0)
(274.196 0 0)
(275.017 0 0)
(275.825 0 0)
(276.619 0 0)
(277.4 0 0)
(278.168 0 0)
(278.923 0 0)
(279.664 0 0)
(280.392 0 0)
(281.108 0 0)
(281.809 0 0)
(282.498 0 0)
(283.174 0 0)
(283.836 0 0)
(284.486 0 0)
(285.122 0 0)
(285.745 0 0)
(286.355 0 0)
(286.951 0 0)
(287.535 0 0)
(288.105 0 0)
(288.663 0 0)
(289.206 0 0)
(289.737 0 0)
(290.254 0 0)
(290.759 0 0)
(291.249 0 0)
(291.727 0 0)
(292.191 0 0)
(292.641 0 0)
(293.078 0 0)
(293.502 0 0)
(293.912 0 0)
(294.309 0 0)
(294.692 0 0)
(295.061 0 0)
(295.416 0 0)
(295.758 0 0)
(296.086 0 0)
(296.4 0 0)
(296.7 0 0)
(296.986 0 0)
(297.258 0 0)
(297.516 0 0)
(297.759 0 0)
(297.989 0 0)
(298.204 0 0)
(298.404 0 0)
(298.59 0 0)
(298.762 0 0)
(298.918 0 0)
(299.06 0 0)
(299.187 0 0)
(299.299 0 0)
(299.396 0 0)
(299.478 0 0)
(299.544 0 0)
(299.595 0 0)
(299.631 0 0)
(299.65 0 0)
(299.654 0 0)
(299.642 0 0)
(299.614 0 0)
(299.569 0 0)
(299.508 0 0)
(299.43 0 0)
(299.336 0 0)
(299.224 0 0)
(299.095 0 0)
(298.948 0 0)
(298.784 0 0)
(298.602 0 0)
(298.402 0 0)
(298.183 0 0)
(297.944 0 0)
(297.692 0 0)
(297.403 0 0)
(297.144 0 0)
(296.72 0 0)
(274.966 0 0)
(275.752 0 0)
(276.526 0 0)
(277.288 0 0)
(278.037 0 0)
(278.774 0 0)
(279.498 0 0)
(280.211 0 0)
(280.911 0 0)
(281.598 0 0)
(282.273 0 0)
(282.936 0 0)
(283.587 0 0)
(284.225 0 0)
(284.851 0 0)
(285.464 0 0)
(286.065 0 0)
(286.654 0 0)
(287.23 0 0)
(287.793 0 0)
(288.345 0 0)
(288.883 0 0)
(289.409 0 0)
(289.923 0 0)
(290.424 0 0)
(290.912 0 0)
(291.388 0 0)
(291.85 0 0)
(292.301 0 0)
(292.738 0 0)
(293.162 0 0)
(293.574 0 0)
(293.973 0 0)
(294.359 0 0)
(294.731 0 0)
(295.091 0 0)
(295.438 0 0)
(295.771 0 0)
(296.091 0 0)
(296.398 0 0)
(296.692 0 0)
(296.972 0 0)
(297.239 0 0)
(297.493 0 0)
(297.732 0 0)
(297.959 0 0)
(298.171 0 0)
(298.37 0 0)
(298.555 0 0)
(298.726 0 0)
(298.883 0 0)
(299.025 0 0)
(299.154 0 0)
(299.268 0 0)
(299.368 0 0)
(299.454 0 0)
(299.525 0 0)
(299.581 0 0)
(299.623 0 0)
(299.649 0 0)
(299.661 0 0)
(299.657 0 0)
(299.638 0 0)
(299.604 0 0)
(299.554 0 0)
(299.489 0 0)
(299.407 0 0)
(299.31 0 0)
(299.196 0 0)
(299.066 0 0)
(298.92 0 0)
(298.756 0 0)
(298.575 0 0)
(298.378 0 0)
(298.162 0 0)
(297.933 0 0)
(297.67 0 0)
(297.434 0 0)
(297.049 0 0)
(275.7 0 0)
(276.453 0 0)
(277.195 0 0)
(277.926 0 0)
(278.645 0 0)
(279.353 0 0)
(280.049 0 0)
(280.733 0 0)
(281.406 0 0)
(282.068 0 0)
(282.717 0 0)
(283.356 0 0)
(283.982 0 0)
(284.597 0 0)
(285.201 0 0)
(285.792 0 0)
(286.372 0 0)
(286.941 0 0)
(287.497 0 0)
(288.042 0 0)
(288.574 0 0)
(289.095 0 0)
(289.604 0 0)
(290.101 0 0)
(290.587 0 0)
(291.06 0 0)
(291.521 0 0)
(291.97 0 0)
(292.406 0 0)
(292.831 0 0)
(293.243 0 0)
(293.643 0 0)
(294.031 0 0)
(294.407 0 0)
(294.77 0 0)
(295.12 0 0)
(295.458 0 0)
(295.784 0 0)
(296.097 0 0)
(296.397 0 0)
(296.684 0 0)
(296.959 0 0)
(297.221 0 0)
(297.47 0 0)
(297.706 0 0)
(297.929 0 0)
(298.139 0 0)
(298.336 0 0)
(298.519 0 0)
(298.69 0 0)
(298.847 0 0)
(298.99 0 0)
(299.12 0 0)
(299.237 0 0)
(299.339 0 0)
(299.428 0 0)
(299.503 0 0)
(299.564 0 0)
(299.611 0 0)
(299.644 0 0)
(299.663 0 0)
(299.667 0 0)
(299.657 0 0)
(299.633 0 0)
(299.593 0 0)
(299.539 0 0)
(299.47 0 0)
(299.386 0 0)
(299.286 0 0)
(299.171 0 0)
(299.04 0 0)
(298.894 0 0)
(298.732 0 0)
(298.554 0 0)
(298.358 0 0)
(298.151 0 0)
(297.912 0 0)
(297.698 0 0)
(297.348 0 0)
(276.4 0 0)
(277.123 0 0)
(277.835 0 0)
(278.536 0 0)
(279.226 0 0)
(279.906 0 0)
(280.575 0 0)
(281.233 0 0)
(281.88 0 0)
(282.517 0 0)
(283.143 0 0)
(283.757 0 0)
(284.361 0 0)
(284.954 0 0)
(285.536 0 0)
(286.107 0 0)
(286.667 0 0)
(287.216 0 0)
(287.754 0 0)
(288.28 0 0)
(288.795 0 0)
(289.299 0 0)
(289.792 0 0)
(290.273 0 0)
(290.743 0 0)
(291.202 0 0)
(291.649 0 0)
(292.084 0 0)
(292.508 0 0)
(292.921 0 0)
(293.321 0 0)
(293.711 0 0)
(294.088 0 0)
(294.453 0 0)
(294.807 0 0)
(295.149 0 0)
(295.478 0 0)
(295.796 0 0)
(296.102 0 0)
(296.396 0 0)
(296.677 0 0)
(296.946 0 0)
(297.203 0 0)
(297.448 0 0)
(297.68 0 0)
(297.9 0 0)
(298.108 0 0)
(298.302 0 0)
(298.485 0 0)
(298.654 0 0)
(298.811 0 0)
(298.955 0 0)
(299.086 0 0)
(299.204 0 0)
(299.309 0 0)
(299.401 0 0)
(299.48 0 0)
(299.545 0 0)
(299.597 0 0)
(299.636 0 0)
(299.661 0 0)
(299.673 0 0)
(299.671 0 0)
(299.655 0 0)
(299.625 0 0)
(299.581 0 0)
(299.524 0 0)
(299.451 0 0)
(299.365 0 0)
(299.264 0 0)
(299.148 0 0)
(299.018 0 0)
(298.872 0 0)
(298.712 0 0)
(298.536 0 0)
(298.348 0 0)
(298.132 0 0)
(297.937 0 0)
(297.619 0 0)
(277.069 0 0)
(277.762 0 0)
(278.445 0 0)
(279.118 0 0)
(279.781 0 0)
(280.435 0 0)
(281.078 0 0)
(281.711 0 0)
(282.334 0 0)
(282.947 0 0)
(283.55 0 0)
(284.142 0 0)
(284.725 0 0)
(285.297 0 0)
(285.858 0 0)
(286.409 0 0)
(286.95 0 0)
(287.48 0 0)
(288 0 0)
(288.509 0 0)
(289.007 0 0)
(289.495 0 0)
(289.972 0 0)
(290.439 0 0)
(290.894 0 0)
(291.339 0 0)
(291.772 0 0)
(292.195 0 0)
(292.607 0 0)
(293.007 0 0)
(293.397 0 0)
(293.775 0 0)
(294.142 0 0)
(294.498 0 0)
(294.843 0 0)
(295.176 0 0)
(295.498 0 0)
(295.808 0 0)
(296.107 0 0)
(296.394 0 0)
(296.67 0 0)
(296.934 0 0)
(297.186 0 0)
(297.426 0 0)
(297.655 0 0)
(297.872 0 0)
(298.077 0 0)
(298.269 0 0)
(298.45 0 0)
(298.619 0 0)
(298.775 0 0)
(298.919 0 0)
(299.051 0 0)
(299.171 0 0)
(299.278 0 0)
(299.373 0 0)
(299.455 0 0)
(299.524 0 0)
(299.581 0 0)
(299.625 0 0)
(299.656 0 0)
(299.675 0 0)
(299.68 0 0)
(299.672 0 0)
(299.651 0 0)
(299.617 0 0)
(299.569 0 0)
(299.508 0 0)
(299.434 0 0)
(299.345 0 0)
(299.244 0 0)
(299.128 0 0)
(298.998 0 0)
(298.854 0 0)
(298.695 0 0)
(298.526 0 0)
(298.33 0 0)
(298.153 0 0)
(297.865 0 0)
(277.707 0 0)
(278.373 0 0)
(279.029 0 0)
(279.675 0 0)
(280.313 0 0)
(280.941 0 0)
(281.559 0 0)
(282.169 0 0)
(282.769 0 0)
(283.359 0 0)
(283.94 0 0)
(284.511 0 0)
(285.073 0 0)
(285.625 0 0)
(286.167 0 0)
(286.699 0 0)
(287.221 0 0)
(287.734 0 0)
(288.236 0 0)
(288.729 0 0)
(289.211 0 0)
(289.684 0 0)
(290.146 0 0)
(290.598 0 0)
(291.039 0 0)
(291.47 0 0)
(291.891 0 0)
(292.302 0 0)
(292.702 0 0)
(293.091 0 0)
(293.47 0 0)
(293.838 0 0)
(294.195 0 0)
(294.542 0 0)
(294.878 0 0)
(295.203 0 0)
(295.517 0 0)
(295.82 0 0)
(296.112 0 0)
(296.393 0 0)
(296.663 0 0)
(296.922 0 0)
(297.169 0 0)
(297.405 0 0)
(297.63 0 0)
(297.844 0 0)
(298.046 0 0)
(298.237 0 0)
(298.416 0 0)
(298.584 0 0)
(298.74 0 0)
(298.884 0 0)
(299.017 0 0)
(299.137 0 0)
(299.246 0 0)
(299.343 0 0)
(299.428 0 0)
(299.501 0 0)
(299.562 0 0)
(299.611 0 0)
(299.648 0 0)
(299.672 0 0)
(299.684 0 0)
(299.684 0 0)
(299.671 0 0)
(299.646 0 0)
(299.608 0 0)
(299.557 0 0)
(299.493 0 0)
(299.417 0 0)
(299.328 0 0)
(299.226 0 0)
(299.11 0 0)
(298.982 0 0)
(298.839 0 0)
(298.686 0 0)
(298.509 0 0)
(298.349 0 0)
(298.088 0 0)
(278.317 0 0)
(278.956 0 0)
(279.586 0 0)
(280.208 0 0)
(280.82 0 0)
(281.425 0 0)
(282.02 0 0)
(282.607 0 0)
(283.185 0 0)
(283.754 0 0)
(284.314 0 0)
(284.865 0 0)
(285.407 0 0)
(285.939 0 0)
(286.463 0 0)
(286.977 0 0)
(287.482 0 0)
(287.978 0 0)
(288.464 0 0)
(288.94 0 0)
(289.407 0 0)
(289.865 0 0)
(290.313 0 0)
(290.751 0 0)
(291.179 0 0)
(291.597 0 0)
(292.006 0 0)
(292.405 0 0)
(292.793 0 0)
(293.172 0 0)
(293.54 0 0)
(293.898 0 0)
(294.246 0 0)
(294.584 0 0)
(294.911 0 0)
(295.228 0 0)
(295.535 0 0)
(295.831 0 0)
(296.117 0 0)
(296.392 0 0)
(296.656 0 0)
(296.91 0 0)
(297.153 0 0)
(297.385 0 0)
(297.606 0 0)
(297.817 0 0)
(298.016 0 0)
(298.205 0 0)
(298.382 0 0)
(298.549 0 0)
(298.704 0 0)
(298.849 0 0)
(298.982 0 0)
(299.103 0 0)
(299.214 0 0)
(299.313 0 0)
(299.401 0 0)
(299.477 0 0)
(299.542 0 0)
(299.595 0 0)
(299.637 0 0)
(299.667 0 0)
(299.685 0 0)
(299.691 0 0)
(299.686 0 0)
(299.669 0 0)
(299.639 0 0)
(299.598 0 0)
(299.545 0 0)
(299.48 0 0)
(299.402 0 0)
(299.312 0 0)
(299.21 0 0)
(299.096 0 0)
(298.968 0 0)
(298.83 0 0)
(298.671 0 0)
(298.526 0 0)
(298.29 0 0)
(278.9 0 0)
(279.514 0 0)
(280.119 0 0)
(280.717 0 0)
(281.306 0 0)
(281.888 0 0)
(282.461 0 0)
(283.026 0 0)
(283.583 0 0)
(284.132 0 0)
(284.672 0 0)
(285.204 0 0)
(285.727 0 0)
(286.241 0 0)
(286.747 0 0)
(287.244 0 0)
(287.732 0 0)
(288.212 0 0)
(288.682 0 0)
(289.144 0 0)
(289.596 0 0)
(290.039 0 0)
(290.473 0 0)
(290.898 0 0)
(291.314 0 0)
(291.72 0 0)
(292.116 0 0)
(292.504 0 0)
(292.881 0 0)
(293.249 0 0)
(293.608 0 0)
(293.957 0 0)
(294.295 0 0)
(294.625 0 0)
(294.944 0 0)
(295.253 0 0)
(295.553 0 0)
(295.842 0 0)
(296.121 0 0)
(296.39 0 0)
(296.649 0 0)
(296.898 0 0)
(297.136 0 0)
(297.365 0 0)
(297.582 0 0)
(297.79 0 0)
(297.987 0 0)
(298.173 0 0)
(298.349 0 0)
(298.515 0 0)
(298.669 0 0)
(298.813 0 0)
(298.947 0 0)
(299.069 0 0)
(299.181 0 0)
(299.282 0 0)
(299.372 0 0)
(299.451 0 0)
(299.519 0 0)
(299.577 0 0)
(299.623 0 0)
(299.658 0 0)
(299.682 0 0)
(299.694 0 0)
(299.696 0 0)
(299.686 0 0)
(299.665 0 0)
(299.633 0 0)
(299.589 0 0)
(299.534 0 0)
(299.467 0 0)
(299.388 0 0)
(299.298 0 0)
(299.197 0 0)
(299.083 0 0)
(298.96 0 0)
(298.816 0 0)
(298.686 0 0)
(298.472 0 0)
(279.458 0 0)
(280.047 0 0)
(280.629 0 0)
(281.204 0 0)
(281.772 0 0)
(282.331 0 0)
(282.884 0 0)
(283.428 0 0)
(283.965 0 0)
(284.494 0 0)
(285.015 0 0)
(285.529 0 0)
(286.034 0 0)
(286.531 0 0)
(287.02 0 0)
(287.5 0 0)
(287.973 0 0)
(288.437 0 0)
(288.892 0 0)
(289.339 0 0)
(289.777 0 0)
(290.207 0 0)
(290.628 0 0)
(291.04 0 0)
(291.443 0 0)
(291.838 0 0)
(292.223 0 0)
(292.599 0 0)
(292.966 0 0)
(293.324 0 0)
(293.673 0 0)
(294.013 0 0)
(294.343 0 0)
(294.664 0 0)
(294.975 0 0)
(295.277 0 0)
(295.57 0 0)
(295.852 0 0)
(296.126 0 0)
(296.389 0 0)
(296.643 0 0)
(296.887 0 0)
(297.121 0 0)
(297.345 0 0)
(297.559 0 0)
(297.764 0 0)
(297.958 0 0)
(298.142 0 0)
(298.317 0 0)
(298.481 0 0)
(298.635 0 0)
(298.778 0 0)
(298.912 0 0)
(299.035 0 0)
(299.148 0 0)
(299.25 0 0)
(299.343 0 0)
(299.424 0 0)
(299.496 0 0)
(299.556 0 0)
(299.607 0 0)
(299.646 0 0)
(299.675 0 0)
(299.694 0 0)
(299.702 0 0)
(299.699 0 0)
(299.685 0 0)
(299.661 0 0)
(299.626 0 0)
(299.58 0 0)
(299.523 0 0)
(299.455 0 0)
(299.376 0 0)
(299.287 0 0)
(299.185 0 0)
(299.076 0 0)
(298.947 0 0)
(298.829 0 0)
(298.637 0 0)
(279.99 0 0)
(280.557 0 0)
(281.117 0 0)
(281.671 0 0)
(282.217 0 0)
(282.756 0 0)
(283.288 0 0)
(283.813 0 0)
(284.331 0 0)
(284.842 0 0)
(285.345 0 0)
(285.84 0 0)
(286.328 0 0)
(286.809 0 0)
(287.282 0 0)
(287.746 0 0)
(288.204 0 0)
(288.653 0 0)
(289.094 0 0)
(289.527 0 0)
(289.952 0 0)
(290.368 0 0)
(290.777 0 0)
(291.176 0 0)
(291.568 0 0)
(291.951 0 0)
(292.326 0 0)
(292.691 0 0)
(293.049 0 0)
(293.397 0 0)
(293.737 0 0)
(294.067 0 0)
(294.389 0 0)
(294.702 0 0)
(295.006 0 0)
(295.301 0 0)
(295.586 0 0)
(295.863 0 0)
(296.13 0 0)
(296.388 0 0)
(296.636 0 0)
(296.876 0 0)