/*--------------------------------*- C++ -*----------------------------------*\
| =========                 |                                                 |
| \\      /  F ield         | OpenFOAM: The Open Source CFD Toolbox           |
|  \\    /   O peration     | Version:  2312                                  |
|   \\  /    A nd           | Website:  www.openfoam.com                      |
|    \\/     M anipulation  |                                                 |
\*---------------------------------------------------------------------------*/
FoamFile
{
    version     2.0;
    format      ascii;
    arch        "LSB;label=32;scalar=64";
    class       volVectorField;
    location    "0.541";
    object      U;
}
// * * * * * * * * * * * * * * * * * * * * * * * * * * * * * * * * * * * * * //

dimensions      [0 1 -1 0 0 0 0];

internalField   nonuniform List<vector> 
31205
(
(196.974 0 0)
(193.896 0 0)
(190.719 0 0)
(187.437 0 0)
(184.042 0 0)
(180.526 0 0)
(176.878 0 0)
(173.09 0 0)
(169.15 0 0)
(165.045 0 0)
(160.764 0 0)
(156.294 0 0)
(151.627 0 0)
(146.758 0 0)
(141.701 0 0)
(136.491 0 0)
(131.212 0 0)
(125.995 0 0)
(121.02 0 0)
(116.477 0 0)
(112.524 0 0)
(109.258 0 0)
(106.7 0 0)
(104.81 0 0)
(103.513 0 0)
(102.721 0 0)
(102.344 0 0)
(102.303 0 0)
(102.534 0 0)
(102.982 0 0)
(103.603 0 0)
(104.364 0 0)
(105.237 0 0)
(106.202 0 0)
(107.241 0 0)
(108.341 0 0)
(109.49 0 0)
(110.681 0 0)
(111.906 0 0)
(113.159 0 0)
(114.434 0 0)
(115.729 0 0)
(117.04 0 0)
(118.363 0 0)
(119.696 0 0)
(121.038 0 0)
(122.387 0 0)
(123.74 0 0)
(125.098 0 0)
(126.458 0 0)
(127.82 0 0)
(129.182 0 0)
(130.545 0 0)
(131.908 0 0)
(133.269 0 0)
(134.629 0 0)
(135.987 0 0)
(137.342 0 0)
(138.695 0 0)
(140.045 0 0)
(141.392 0 0)
(142.735 0 0)
(144.074 0 0)
(145.41 0 0)
(146.742 0 0)
(148.07 0 0)
(149.393 0 0)
(150.712 0 0)
(152.026 0 0)
(153.336 0 0)
(154.642 0 0)
(155.942 0 0)
(157.239 0 0)
(158.528 0 0)
(159.82 0 0)
(161.086 0 0)
(162.408 0 0)
(163.54 0 0)
(165.237 0 0)
(193.702 0 0)
(190.617 0 0)
(187.433 0 0)
(184.142 0 0)
(180.738 0 0)
(177.21 0 0)
(173.551 0 0)
(169.749 0 0)
(165.795 0 0)
(161.676 0 0)
(157.381 0 0)
(152.902 0 0)
(148.232 0 0)
(143.377 0 0)
(138.362 0 0)
(133.245 0 0)
(128.129 0 0)
(123.162 0 0)
(118.521 0 0)
(114.373 0 0)
(110.839 0 0)
(107.975 0 0)
(105.773 0 0)
(104.178 0 0)
(103.114 0 0)
(102.495 0 0)
(102.244 0 0)
(102.29 0 0)
(102.577 0 0)
(103.056 0 0)
(103.692 0 0)
(104.453 0 0)
(105.317 0 0)
(106.265 0 0)
(107.28 0 0)
(108.352 0 0)
(109.47 0 0)
(110.627 0 0)
(111.816 0 0)
(113.031 0 0)
(114.268 0 0)
(115.523 0 0)
(116.794 0 0)
(118.076 0 0)
(119.369 0 0)
(120.67 0 0)
(121.978 0 0)
(123.29 0 0)
(124.607 0 0)
(125.926 0 0)
(127.247 0 0)
(128.57 0 0)
(129.892 0 0)
(131.215 0 0)
(132.536 0 0)
(133.857 0 0)
(135.176 0 0)
(136.492 0 0)
(137.807 0 0)
(139.118 0 0)
(140.427 0 0)
(141.733 0 0)
(143.035 0 0)
(144.334 0 0)
(145.629 0 0)
(146.92 0 0)
(148.207 0 0)
(149.49 0 0)
(150.769 0 0)
(152.044 0 0)
(153.314 0 0)
(154.58 0 0)
(155.842 0 0)
(157.098 0 0)
(158.355 0 0)
(159.588 0 0)
(160.875 0 0)
(161.979 0 0)
(163.626 0 0)
(190.257 0 0)
(187.161 0 0)
(183.964 0 0)
(180.66 0 0)
(177.24 0 0)
(173.696 0 0)
(170.019 0 0)
(166.198 0 0)
(162.224 0 0)
(158.086 0 0)
(153.775 0 0)
(149.285 0 0)
(144.619 0 0)
(139.792 0 0)
(134.848 0 0)
(129.867 0 0)
(124.97 0 0)
(120.315 0 0)
(116.063 0 0)
(112.349 0 0)
(109.251 0 0)
(106.79 0 0)
(104.935 0 0)
(103.623 0 0)
(102.779 0 0)
(102.325 0 0)
(102.192 0 0)
(102.32 0 0)
(102.659 0 0)
(103.169 0 0)
(103.818 0 0)
(104.581 0 0)
(105.435 0 0)
(106.366 0 0)
(107.359 0 0)
(108.405 0 0)
(109.493 0 0)
(110.617 0 0)
(111.77 0 0)
(112.949 0 0)
(114.149 0 0)
(115.366 0 0)
(116.597 0 0)
(117.84 0 0)
(119.093 0 0)
(120.354 0 0)
(121.622 0 0)
(122.895 0 0)
(124.171 0 0)
(125.451 0 0)
(126.732 0 0)
(128.015 0 0)
(129.299 0 0)
(130.582 0 0)
(131.865 0 0)
(133.147 0 0)
(134.427 0 0)
(135.706 0 0)
(136.982 0 0)
(138.257 0 0)
(139.528 0 0)
(140.797 0 0)
(142.062 0 0)
(143.325 0 0)
(144.584 0 0)
(145.839 0 0)
(147.091 0 0)
(148.339 0 0)
(149.583 0 0)
(150.823 0 0)
(152.059 0 0)
(153.291 0 0)
(154.519 0 0)
(155.741 0 0)
(156.965 0 0)
(158.166 0 0)
(159.418 0 0)
(160.495 0 0)
(162.092 0 0)
(186.73 0 0)
(183.619 0 0)
(180.407 0 0)
(177.086 0 0)
(173.647 0 0)
(170.083 0 0)
(166.385 0 0)
(162.542 0 0)
(158.546 0 0)
(154.387 0 0)
(150.061 0 0)
(145.568 0 0)
(140.918 0 0)
(136.144 0 0)
(131.309 0 0)
(126.514 0 0)
(121.894 0 0)
(117.6 0 0)
(113.768 0 0)
(110.496 0 0)
(107.824 0 0)
(105.744 0 0)
(104.21 0 0)
(103.156 0 0)
(102.51 0 0)
(102.204 0 0)
(102.178 0 0)
(102.379 0 0)
(102.765 0 0)
(103.303 0 0)
(103.965 0 0)
(104.727 0 0)
(105.573 0 0)
(106.488 0 0)
(107.46 0 0)
(108.479 0 0)
(109.539 0 0)
(110.631 0 0)
(111.752 0 0)
(112.896 0 0)
(114.059 0 0)
(115.239 0 0)
(116.433 0 0)
(117.638 0 0)
(118.853 0 0)
(120.075 0 0)
(121.304 0 0)
(122.538 0 0)
(123.776 0 0)
(125.017 0 0)
(126.26 0 0)
(127.504 0 0)
(128.749 0 0)
(129.995 0 0)
(131.24 0 0)
(132.484 0 0)
(133.727 0 0)
(134.969 0 0)
(136.208 0 0)
(137.446 0 0)
(138.681 0 0)
(139.914 0 0)
(141.144 0 0)
(142.37 0 0)
(143.594 0 0)
(144.815 0 0)
(146.032 0 0)
(147.245 0 0)
(148.455 0 0)
(149.661 0 0)
(150.863 0 0)
(152.061 0 0)
(153.256 0 0)
(154.445 0 0)
(155.636 0 0)
(156.805 0 0)
(158.024 0 0)
(159.074 0 0)
(160.624 0 0)
(183.16 0 0)
(180.033 0 0)
(176.804 0 0)
(173.463 0 0)
(170.004 0 0)
(166.419 0 0)
(162.697 0 0)
(158.832 0 0)
(154.815 0 0)
(150.639 0 0)
(146.306 0 0)
(141.822 0 0)
(137.213 0 0)
(132.528 0 0)
(127.85 0 0)
(123.296 0 0)
(119.003 0 0)
(115.103 0 0)
(111.703 0 0)
(108.862 0 0)
(106.589 0 0)
(104.855 0 0)
(103.607 0 0)
(102.78 0 0)
(102.308 0 0)
(102.13 0 0)
(102.196 0 0)
(102.46 0 0)
(102.888 0 0)
(103.448 0 0)
(104.119 0 0)
(104.88 0 0)
(105.717 0 0)
(106.616 0 0)
(107.566 0 0)
(108.561 0 0)
(109.593 0 0)
(110.655 0 0)
(111.743 0 0)
(112.853 0 0)
(113.982 0 0)
(115.126 0 0)
(116.284 0 0)
(117.452 0 0)
(118.63 0 0)
(119.815 0 0)
(121.007 0 0)
(122.203 0 0)
(123.403 0 0)
(124.607 0 0)
(125.812 0 0)
(127.019 0 0)
(128.227 0 0)
(129.436 0 0)
(130.644 0 0)
(131.852 0 0)
(133.058 0 0)
(134.264 0 0)
(135.468 0 0)
(136.67 0 0)
(137.869 0 0)
(139.067 0 0)
(140.261 0 0)
(141.454 0 0)
(142.643 0 0)
(143.829 0 0)
(145.012 0 0)
(146.192 0 0)
(147.368 0 0)
(148.541 0 0)
(149.71 0 0)
(150.875 0 0)
(152.038 0 0)
(153.194 0 0)
(154.353 0 0)
(155.491 0 0)
(156.676 0 0)
(157.699 0 0)
(159.205 0 0)
(179.562 0 0)
(176.419 0 0)
(173.171 0 0)
(169.81 0 0)
(166.33 0 0)
(162.722 0 0)
(158.978 0 0)
(155.092 0 0)
(151.057 0 0)
(146.873 0 0)
(142.545 0 0)
(138.093 0 0)
(133.557 0 0)
(129.006 0 0)
(124.539 0 0)
(120.278 0 0)
(116.35 0 0)
(112.863 0 0)
(109.889 0 0)
(107.453 0 0)
(105.544 0 0)
(104.118 0 0)
(103.12 0 0)
(102.489 0 0)
(102.165 0 0)
(102.098 0 0)
(102.242 0 0)
(102.56 0 0)
(103.021 0 0)
(103.6 0 0)
(104.277 0 0)
(105.035 0 0)
(105.861 0 0)
(106.743 0 0)
(107.673 0 0)
(108.644 0 0)
(109.648 0 0)
(110.681 0 0)
(111.738 0 0)
(112.815 0 0)
(113.91 0 0)
(115.02 0 0)
(116.143 0 0)
(117.276 0 0)
(118.417 0 0)
(119.567 0 0)
(120.722 0 0)
(121.882 0 0)
(123.046 0 0)
(124.213 0 0)
(125.382 0 0)
(126.553 0 0)
(127.725 0 0)
(128.897 0 0)
(130.07 0 0)
(131.242 0 0)
(132.413 0 0)
(133.583 0 0)
(134.752 0 0)
(135.919 0 0)
(137.084 0 0)
(138.247 0 0)
(139.408 0 0)
(140.566 0 0)
(141.721 0 0)
(142.874 0 0)
(144.024 0 0)
(145.17 0 0)
(146.314 0 0)
(147.454 0 0)
(148.591 0 0)
(149.724 0 0)
(150.855 0 0)
(151.98 0 0)
(153.107 0 0)
(154.214 0 0)
(155.367 0 0)
(156.363 0 0)
(157.827 0 0)
(175.942 0 0)
(172.781 0 0)
(169.513 0 0)
(166.132 0 0)
(162.63 0 0)
(159 0 0)
(155.236 0 0)
(151.333 0 0)
(147.288 0 0)
(143.107 0 0)
(138.805 0 0)
(134.415 0 0)
(129.995 0 0)
(125.629 0 0)
(121.424 0 0)
(117.499 0 0)
(113.961 0 0)
(110.888 0 0)
(108.321 0 0)
(106.259 0 0)
(104.674 0 0)
(103.518 0 0)
(102.737 0 0)
(102.273 0 0)
(102.077 0 0)
(102.103 0 0)
(102.313 0 0)
(102.675 0 0)
(103.163 0 0)
(103.756 0 0)
(104.436 0 0)
(105.189 0 0)
(106.003 0 0)
(106.869 0 0)
(107.779 0 0)
(108.725 0 0)
(109.702 0 0)
(110.706 0 0)
(111.733 0 0)
(112.779 0 0)
(113.842 0 0)
(114.918 0 0)
(116.007 0 0)
(117.105 0 0)
(118.212 0 0)
(119.326 0 0)
(120.446 0 0)
(121.571 0 0)
(122.7 0 0)
(123.831 0 0)
(124.965 0 0)
(126.101 0 0)
(127.238 0 0)
(128.375 0 0)
(129.513 0 0)
(130.65 0 0)
(131.787 0 0)
(132.923 0 0)
(134.058 0 0)
(135.191 0 0)
(136.322 0 0)
(137.452 0 0)
(138.579 0 0)
(139.704 0 0)
(140.827 0 0)
(141.947 0 0)
(143.064 0 0)
(144.178 0 0)
(145.29 0 0)
(146.398 0 0)
(147.504 0 0)
(148.606 0 0)
(149.705 0 0)
(150.799 0 0)
(151.895 0 0)
(152.971 0 0)
(154.093 0 0)
(155.062 0 0)
(156.486 0 0)
(172.299 0 0)
(169.118 0 0)
(165.831 0 0)
(162.429 0 0)
(158.906 0 0)
(155.257 0 0)
(151.477 0 0)
(147.563 0 0)
(143.52 0 0)
(139.361 0 0)
(135.113 0 0)
(130.825 0 0)
(126.568 0 0)
(122.437 0 0)
(118.541 0 0)
(114.983 0 0)
(111.844 0 0)
(109.173 0 0)
(106.984 0 0)
(105.259 0 0)
(103.961 0 0)
(103.039 0 0)
(102.443 0 0)
(102.123 0 0)
(102.035 0 0)
(102.139 0 0)
(102.404 0 0)
(102.802 0 0)
(103.312 0 0)
(103.915 0 0)
(104.596 0 0)
(105.343 0 0)
(106.144 0 0)
(106.993 0 0)
(107.882 0 0)
(108.804 0 0)
(109.756 0 0)
(110.732 0 0)
(111.729 0 0)
(112.745 0 0)
(113.776 0 0)
(114.82 0 0)
(115.875 0 0)
(116.94 0 0)
(118.014 0 0)
(119.094 0 0)
(120.179 0 0)
(121.27 0 0)
(122.364 0 0)
(123.462 0 0)
(124.561 0 0)
(125.663 0 0)
(126.766 0 0)
(127.869 0 0)
(128.973 0 0)
(130.077 0 0)
(131.18 0 0)
(132.282 0 0)
(133.384 0 0)
(134.484 0 0)
(135.583 0 0)
(136.679 0 0)
(137.774 0 0)
(138.867 0 0)
(139.958 0 0)
(141.046 0 0)
(142.131 0 0)
(143.214 0 0)
(144.294 0 0)
(145.372 0 0)
(146.446 0 0)
(147.517 0 0)
(148.586 0 0)
(149.65 0 0)
(150.715 0 0)
(151.763 0 0)
(152.853 0 0)
(153.796 0 0)
(155.18 0 0)
(168.631 0 0)
(165.432 0 0)
(162.124 0 0)
(158.702 0 0)
(155.161 0 0)
(151.496 0 0)
(147.706 0 0)
(143.793 0 0)
(139.77 0 0)
(135.658 0 0)
(131.501 0 0)
(127.358 0 0)
(123.315 0 0)
(119.468 0 0)
(115.915 0 0)
(112.739 0 0)
(109.993 0 0)
(107.702 0 0)
(105.859 0 0)
(104.433 0 0)
(103.385 0 0)
(102.665 0 0)
(102.228 0 0)
(102.029 0 0)
(102.032 0 0)
(102.202 0 0)
(102.513 0 0)
(102.941 0 0)
(103.468 0 0)
(104.077 0 0)
(104.756 0 0)
(105.495 0 0)
(106.284 0 0)
(107.115 0 0)
(107.983 0 0)
(108.882 0 0)
(109.808 0 0)
(110.757 0 0)
(111.726 0 0)
(112.711 0 0)
(113.712 0 0)
(114.724 0 0)
(115.748 0 0)
(116.781 0 0)
(117.821 0 0)
(118.868 0 0)
(119.921 0 0)
(120.978 0 0)
(122.039 0 0)
(123.103 0 0)
(124.17 0 0)
(125.238 0 0)
(126.308 0 0)
(127.378 0 0)
(128.449 0 0)
(129.52 0 0)
(130.591 0 0)
(131.661 0 0)
(132.73 0 0)
(133.798 0 0)
(134.864 0 0)
(135.929 0 0)
(136.993 0 0)
(138.054 0 0)
(139.113 0 0)
(140.17 0 0)
(141.225 0 0)
(142.277 0 0)
(143.327 0 0)
(144.373 0 0)
(145.418 0 0)
(146.459 0 0)
(147.498 0 0)
(148.532 0 0)
(149.568 0 0)
(150.586 0 0)
(151.646 0 0)
(152.564 0 0)
(153.908 0 0)
(164.939 0 0)
(161.72 0 0)
(158.394 0 0)
(154.954 0 0)
(151.398 0 0)
(147.724 0 0)
(143.934 0 0)
(140.039 0 0)
(136.059 0 0)
(132.03 0 0)
(128.005 0 0)
(124.057 0 0)
(120.275 0 0)
(116.75 0 0)
(113.56 0 0)
(110.767 0 0)
(108.398 0 0)
(106.456 0 0)
(104.922 0 0)
(103.76 0 0)
(102.927 0 0)
(102.38 0 0)
(102.078 0 0)
(101.983 0 0)
(102.062 0 0)
(102.287 0 0)
(102.636 0 0)
(103.088 0 0)
(103.627 0 0)
(104.241 0 0)
(104.917 0 0)
(105.646 0 0)
(106.421 0 0)
(107.235 0 0)
(108.082 0 0)
(108.958 0 0)
(109.859 0 0)
(110.782 0 0)
(111.722 0 0)
(112.679 0 0)
(113.65 0 0)
(114.632 0 0)
(115.625 0 0)
(116.626 0 0)
(117.635 0 0)
(118.65 0 0)
(119.67 0 0)
(120.696 0 0)
(121.724 0 0)
(122.756 0 0)
(123.79 0 0)
(124.827 0 0)
(125.864 0 0)
(126.902 0 0)
(127.941 0 0)
(128.98 0 0)
(130.019 0 0)
(131.057 0 0)
(132.095 0 0)
(133.132 0 0)
(134.167 0 0)
(135.201 0 0)
(136.233 0 0)
(137.264 0 0)
(138.293 0 0)
(139.319 0 0)
(140.344 0 0)
(141.366 0 0)
(142.386 0 0)
(143.403 0 0)
(144.418 0 0)
(145.43 0 0)
(146.439 0 0)
(147.444 0 0)
(148.451 0 0)
(149.441 0 0)
(150.472 0 0)
(151.365 0 0)
(152.671 0 0)
(161.222 0 0)
(157.985 0 0)
(154.641 0 0)
(151.188 0 0)
(147.623 0 0)
(143.95 0 0)
(140.178 0 0)
(136.323 0 0)
(132.419 0 0)
(128.511 0 0)
(124.666 0 0)
(120.96 0 0)
(117.479 0 0)
(114.299 0 0)
(111.48 0 0)
(109.057 0 0)
(107.039 0 0)
(105.413 0 0)
(104.152 0 0)
(103.218 0 0)
(102.571 0 0)
(102.172 0 0)
(101.985 0 0)
(101.977 0 0)
(102.12 0 0)
(102.392 0 0)
(102.771 0 0)
(103.242 0 0)
(103.791 0 0)
(104.405 0 0)
(105.076 0 0)
(105.795 0 0)
(106.556 0 0)
(107.352 0 0)
(108.179 0 0)
(109.033 0 0)
(109.909 0 0)
(110.806 0 0)
(111.719 0 0)
(112.648 0 0)
(113.59 0 0)
(114.543 0 0)
(115.505 0 0)
(116.476 0 0)
(117.454 0 0)
(118.438 0 0)
(119.428 0 0)
(120.422 0 0)
(121.419 0 0)
(122.42 0 0)
(123.423 0 0)
(124.427 0 0)
(125.434 0 0)
(126.441 0 0)
(127.449 0 0)
(128.457 0 0)
(129.465 0 0)
(130.472 0 0)
(131.479 0 0)
(132.485 0 0)
(133.49 0 0)
(134.494 0 0)
(135.496 0 0)
(136.497 0 0)
(137.496 0 0)
(138.493 0 0)
(139.488 0 0)
(140.481 0 0)
(141.472 0 0)
(142.46 0 0)
(143.446 0 0)
(144.429 0 0)
(145.41 0 0)
(146.387 0 0)
(147.366 0 0)
(148.328 0 0)
(149.329 0 0)
(150.198 0 0)
(151.466 0 0)
(157.481 0 0)
(154.228 0 0)
(150.872 0 0)
(147.411 0 0)
(143.848 0 0)
(140.192 0 0)
(136.458 0 0)
(132.674 0 0)
(128.883 0 0)
(125.143 0 0)
(121.523 0 0)
(118.101 0 0)
(114.948 0 0)
(112.125 0 0)
(109.668 0 0)
(107.594 0 0)
(105.895 0 0)
(104.55 0 0)
(103.528 0 0)
(102.791 0 0)
(102.303 0 0)
(102.03 0 0)
(101.939 0 0)
(102.005 0 0)
(102.202 0 0)
(102.511 0 0)
(102.916 0 0)
(103.402 0 0)
(103.956 0 0)
(104.57 0 0)
(105.235 0 0)
(105.943 0 0)
(106.689 0 0)
(107.468 0 0)
(108.275 0 0)
(109.106 0 0)
(109.958 0 0)
(110.83 0 0)
(111.717 0 0)
(112.618 0 0)
(113.532 0 0)
(114.456 0 0)
(115.39 0 0)
(116.331 0 0)
(117.279 0 0)
(118.234 0 0)
(119.193 0 0)
(120.157 0 0)
(121.124 0 0)
(122.094 0 0)
(123.066 0 0)
(124.041 0 0)
(125.017 0 0)
(125.993 0 0)
(126.971 0 0)
(127.949 0 0)
(128.927 0 0)
(129.904 0 0)
(130.882 0 0)
(131.858 0 0)
(132.833 0 0)
(133.808 0 0)
(134.781 0 0)
(135.752 0 0)
(136.722 0 0)
(137.691 0 0)
(138.657 0 0)
(139.621 0 0)
(140.583 0 0)
(141.543 0 0)
(142.501 0 0)
(143.456 0 0)
(144.409 0 0)
(145.359 0 0)
(146.31 0 0)
(147.245 0 0)
(148.218 0 0)
(149.063 0 0)
(150.294 0 0)
(153.719 0 0)
(150.454 0 0)
(147.092 0 0)
(143.634 0 0)
(140.088 0 0)
(136.469 0 0)
(132.803 0 0)
(129.128 0 0)
(125.494 0 0)
(121.966 0 0)
(118.613 0 0)
(115.503 0 0)
(112.693 0 0)
(110.223 0 0)
(108.111 0 0)
(106.357 0 0)
(104.944 0 0)
(103.845 0 0)
(103.029 0 0)
(102.462 0 0)
(102.109 0 0)
(101.942 0 0)
(101.934 0 0)
(102.061 0 0)
(102.303 0 0)
(102.644 0 0)
(103.069 0 0)
(103.565 0 0)
(104.124 0 0)
(104.735 0 0)
(105.392 0 0)
(106.089 0 0)
(106.82 0 0)
(107.581 0 0)
(108.368 0 0)
(109.177 0 0)
(110.007 0 0)
(110.853 0 0)
(111.715 0 0)
(112.59 0 0)
(113.476 0 0)
(114.373 0 0)
(115.278 0 0)
(116.191 0 0)
(117.11 0 0)
(118.035 0 0)
(118.966 0 0)
(119.9 0 0)
(120.837 0 0)
(121.778 0 0)
(122.721 0 0)
(123.666 0 0)
(124.612 0 0)
(125.56 0 0)
(126.508 0 0)
(127.456 0 0)
(128.405 0 0)
(129.354 0 0)
(130.302 0 0)
(131.249 0 0)
(132.196 0 0)
(133.142 0 0)
(134.086 0 0)
(135.029 0 0)
(135.971 0 0)
(136.911 0 0)
(137.849 0 0)
(138.786 0 0)
(139.72 0 0)
(140.653 0 0)
(141.583 0 0)
(142.511 0 0)
(143.437 0 0)
(144.359 0 0)
(145.283 0 0)
(146.192 0 0)
(147.137 0 0)
(147.959 0 0)
(149.154 0 0)
(149.94 0 0)
(146.671 0 0)
(143.313 0 0)
(139.873 0 0)
(136.365 0 0)
(132.813 0 0)
(129.25 0 0)
(125.724 0 0)
(122.292 0 0)
(119.017 0 0)
(115.962 0 0)
(113.181 0 0)
(110.714 0 0)
(108.582 0 0)
(106.789 0 0)
(105.323 0 0)
(104.162 0 0)
(103.278 0 0)
(102.639 0 0)
(102.216 0 0)
(101.979 0 0)
(101.902 0 0)
(101.963 0 0)
(102.142 0 0)
(102.421 0 0)
(102.787 0 0)
(103.228 0 0)
(103.732 0 0)
(104.292 0 0)
(104.899 0 0)
(105.548 0 0)
(106.232 0 0)
(106.948 0 0)
(107.692 0 0)
(108.459 0 0)
(109.247 0 0)
(110.054 0 0)
(110.876 0 0)
(111.713 0 0)
(112.562 0 0)
(113.422 0 0)
(114.292 0 0)
(115.17 0 0)
(116.055 0 0)
(116.947 0 0)
(117.844 0 0)
(118.745 0 0)
(119.651 0 0)
(120.56 0 0)
(121.472 0 0)
(122.386 0 0)
(123.303 0 0)
(124.22 0 0)
(125.139 0 0)
(126.059 0 0)
(126.979 0 0)
(127.899 0 0)
(128.82 0 0)
(129.739 0 0)
(130.659 0 0)
(131.578 0 0)
(132.495 0 0)
(133.412 0 0)
(134.328 0 0)
(135.242 0 0)
(136.154 0 0)
(137.065 0 0)
(137.975 0 0)
(138.882 0 0)
(139.787 0 0)
(140.691 0 0)
(141.592 0 0)
(142.491 0 0)
(143.387 0 0)
(144.285 0 0)
(145.168 0 0)
(146.086 0 0)
(146.885 0 0)
(148.045 0 0)
(146.154 0 0)
(142.891 0 0)
(139.552 0 0)
(136.15 0 0)
(132.708 0 0)
(129.257 0 0)
(125.839 0 0)
(122.505 0 0)
(119.314 0 0)
(116.324 0 0)
(113.585 0 0)
(111.136 0 0)
(109 0 0)
(107.184 0 0)
(105.68 0 0)
(104.47 0 0)
(103.529 0 0)
(102.829 0 0)
(102.342 0 0)
(102.042 0 0)
(101.902 0 0)
(101.901 0 0)
(102.02 0 0)
(102.242 0 0)
(102.552 0 0)
(102.939 0 0)
(103.391 0 0)
(103.901 0 0)
(104.46 0 0)
(105.062 0 0)
(105.701 0 0)
(106.373 0 0)
(107.074 0 0)
(107.8 0 0)
(108.548 0 0)
(109.315 0 0)
(110.1 0 0)
(110.899 0 0)
(111.712 0 0)
(112.536 0 0)
(113.37 0 0)
(114.214 0 0)
(115.065 0 0)
(115.924 0 0)
(116.788 0 0)
(117.658 0 0)
(118.532 0 0)
(119.41 0 0)
(120.291 0 0)
(121.176 0 0)
(122.062 0 0)
(122.951 0 0)
(123.841 0 0)
(124.732 0 0)
(125.624 0 0)
(126.516 0 0)
(127.409 0 0)
(128.301 0 0)
(129.194 0 0)
(130.086 0 0)
(130.977 0 0)
(131.868 0 0)
(132.758 0 0)
(133.646 0 0)
(134.534 0 0)
(135.42 0 0)
(136.304 0 0)
(137.187 0 0)
(138.068 0 0)
(138.947 0 0)
(139.824 0 0)
(140.699 0 0)
(141.573 0 0)
(142.443 0 0)
(143.315 0 0)
(144.172 0 0)
(145.064 0 0)
(145.84 0 0)
(146.966 0 0)
(142.373 0 0)
(139.131 0 0)
(135.832 0 0)
(132.497 0 0)
(129.154 0 0)
(125.843 0 0)
(122.61 0 0)
(119.508 0 0)
(116.59 0 0)
(113.904 0 0)
(111.486 0 0)
(109.361 0 0)
(107.536 0 0)
(106.007 0 0)
(104.76 0 0)
(103.774 0 0)
(103.023 0 0)
(102.482 0 0)
(102.124 0 0)
(101.928 0 0)
(101.871 0 0)
(101.934 0 0)
(102.102 0 0)
(102.359 0 0)
(102.695 0 0)
(103.097 0 0)
(103.559 0 0)
(104.071 0 0)
(104.628 0 0)
(105.223 0 0)
(105.853 0 0)
(106.512 0 0)
(107.198 0 0)
(107.906 0 0)
(108.635 0 0)
(109.382 0 0)
(110.145 0 0)
(110.921 0 0)
(111.71 0 0)
(112.511 0 0)
(113.32 0 0)
(114.138 0 0)
(114.964 0 0)
(115.797 0 0)
(116.635 0 0)
(117.478 0 0)
(118.325 0 0)
(119.177 0 0)
(120.031 0 0)
(120.888 0 0)
(121.748 0 0)
(122.61 0 0)
(123.472 0 0)
(124.337 0 0)
(125.202 0 0)
(126.067 0 0)
(126.933 0 0)
(127.799 0 0)
(128.665 0 0)
(129.53 0 0)
(130.395 0 0)
(131.26 0 0)
(132.123 0 0)
(132.985 0 0)
(133.846 0 0)
(134.706 0 0)
(135.565 0 0)
(136.422 0 0)
(137.277 0 0)
(138.13 0 0)
(138.982 0 0)
(139.832 0 0)
(140.68 0 0)
(141.525 0 0)
(142.372 0 0)
(143.205 0 0)
(144.071 0 0)
(144.825 0 0)
(145.917 0 0)
(138.615 0 0)
(135.415 0 0)
(132.184 0 0)
(128.948 0 0)
(125.743 0 0)
(122.612 0 0)
(119.603 0 0)
(116.764 0 0)
(114.139 0 0)
(111.764 0 0)
(109.661 0 0)
(107.84 0 0)
(106.3 0 0)
(105.028 0 0)
(104.007 0 0)
(103.215 0 0)
(102.627 0 0)
(102.221 0 0)
(101.974 0 0)
(101.865 0 0)
(101.878 0 0)
(101.995 0 0)
(102.203 0 0)
(102.49 0 0)
(102.846 0 0)
(103.261 0 0)
(103.729 0 0)
(104.242 0 0)
(104.795 0 0)
(105.383 0 0)
(106.002 0 0)
(106.648 0 0)
(107.319 0 0)
(108.01 0 0)
(108.72 0 0)
(109.447 0 0)
(110.189 0 0)
(110.943 0 0)
(111.71 0 0)
(112.486 0 0)
(113.272 0 0)
(114.065 0 0)
(114.866 0 0)
(115.673 0 0)
(116.486 0 0)
(117.304 0 0)
(118.125 0 0)
(118.951 0 0)
(119.779 0 0)
(120.61 0 0)
(121.444 0 0)
(122.279 0 0)
(123.116 0 0)
(123.954 0 0)
(124.793 0 0)
(125.632 0 0)
(126.472 0 0)
(127.312 0 0)
(128.152 0 0)
(128.991 0 0)
(129.831 0 0)
(130.669 0 0)
(131.507 0 0)
(132.344 0 0)
(133.179 0 0)
(134.014 0 0)
(134.847 0 0)
(135.679 0 0)
(136.509 0 0)
(137.337 0 0)
(138.164 0 0)
(138.989 0 0)
(139.813 0 0)
(140.633 0 0)
(141.455 0 0)
(142.264 0 0)
(143.105 0 0)
(143.838 0 0)
(144.897 0 0)
(134.905 0 0)
(131.775 0 0)
(128.643 0 0)
(125.544 0 0)
(122.516 0 0)
(119.602 0 0)
(116.847 0 0)
(114.292 0 0)
(111.968 0 0)
(109.898 0 0)
(108.094 0 0)
(106.553 0 0)
(105.269 0 0)
(104.224 0 0)
(103.4 0 0)
(102.774 0 0)
(102.326 0 0)
(102.034 0 0)
(101.88 0 0)
(101.846 0 0)
(101.917 0 0)
(102.079 0 0)
(102.321 0 0)
(102.632 0 0)
(103.004 0 0)
(103.429 0 0)
(103.9 0 0)
(104.413 0 0)
(104.961 0 0)
(105.541 0 0)
(106.149 0 0)
(106.782 0 0)
(107.437 0 0)
(108.111 0 0)
(108.803 0 0)
(109.511 0 0)
(110.232 0 0)
(110.965 0 0)
(111.709 0 0)
(112.463 0 0)
(113.225 0 0)
(113.995 0 0)
(114.772 0 0)
(115.554 0 0)
(116.342 0 0)
(117.135 0 0)
(117.932 0 0)
(118.732 0 0)
(119.535 0 0)
(120.341 0 0)
(121.149 0 0)
(121.959 0 0)
(122.77 0 0)
(123.583 0 0)
(124.396 0 0)
(125.21 0 0)
(126.025 0 0)
(126.84 0 0)
(127.654 0 0)
(128.469 0 0)
(129.283 0 0)
(130.096 0 0)
(130.909 0 0)
(131.721 0 0)
(132.532 0 0)
(133.342 0 0)
(134.15 0 0)
(134.957 0 0)
(135.763 0 0)
(136.568 0 0)
(137.37 0 0)
(138.171 0 0)
(138.97 0 0)
(139.767 0 0)
(140.565 0 0)
(141.35 0 0)
(142.166 0 0)
(142.879 0 0)
(143.906 0 0)
(131.275 0 0)
(128.247 0 0)
(125.253 0 0)
(122.327 0 0)
(119.511 0 0)
(116.845 0 0)
(114.364 0 0)
(112.1 0 0)
(110.073 0 0)
(108.295 0 0)
(106.765 0 0)
(105.478 0 0)
(104.419 0 0)
(103.572 0 0)
(102.916 0 0)
(102.434 0 0)
(102.104 0 0)
(101.91 0 0)
(101.835 0 0)
(101.864 0 0)
(101.983 0 0)
(102.183 0 0)
(102.453 0 0)
(102.783 0 0)
(103.168 0 0)
(103.599 0 0)
(104.073 0 0)
(104.583 0 0)
(105.125 0 0)
(105.697 0 0)
(106.294 0 0)
(106.913 0 0)
(107.553 0 0)
(108.211 0 0)
(108.884 0 0)
(109.573 0 0)
(110.274 0 0)
(110.986 0 0)
(111.708 0 0)
(112.44 0 0)
(113.18 0 0)
(113.927 0 0)
(114.68 0 0)
(115.439 0 0)
(116.203 0 0)
(116.972 0 0)
(117.744 0 0)
(118.52 0 0)
(119.299 0 0)
(120.08 0 0)
(120.863 0 0)
(121.648 0 0)
(122.435 0 0)
(123.223 0 0)
(124.012 0 0)
(124.801 0 0)
(125.591 0 0)
(126.382 0 0)
(127.172 0 0)
(127.962 0 0)
(128.751 0 0)
(129.541 0 0)
(130.329 0 0)
(131.117 0 0)
(131.904 0 0)
(132.689 0 0)
(133.474 0 0)
(134.257 0 0)
(135.039 0 0)
(135.82 0 0)
(136.599 0 0)
(137.376 0 0)
(138.152 0 0)
(138.925 0 0)
(139.7 0 0)
(140.462 0 0)
(141.254 0 0)
(141.947 0 0)
(142.942 0 0)
(127.765 0 0)
(124.874 0 0)
(122.052 0 0)
(119.336 0 0)
(116.76 0 0)
(114.36 0 0)
(112.162 0 0)
(110.186 0 0)
(108.442 0 0)
(106.933 0 0)
(105.652 0 0)
(104.589 0 0)
(103.727 0 0)
(103.05 0 0)
(102.54 0 0)
(102.18 0 0)
(101.951 0 0)
(101.839 0 0)
(101.83 0 0)
(101.912 0 0)
(102.073 0 0)
(102.303 0 0)
(102.595 0 0)
(102.942 0 0)
(103.336 0 0)
(103.772 0 0)
(104.245 0 0)
(104.752 0 0)
(105.288 0 0)
(105.85 0 0)
(106.435 0 0)
(107.041 0 0)
(107.666 0 0)
(108.308 0 0)
(108.964 0 0)
(109.633 0 0)
(110.315 0 0)
(111.007 0 0)
(111.708 0 0)
(112.418 0 0)
(113.136 0 0)
(113.861 0 0)
(114.591 0 0)
(115.327 0 0)
(116.068 0 0)
(116.813 0 0)
(117.562 0 0)
(118.314 0 0)
(119.069 0 0)
(119.827 0 0)
(120.587 0 0)
(121.348 0 0)
(122.111 0 0)
(122.875 0 0)
(123.64 0 0)
(124.405 0 0)
(125.171 0 0)
(125.938 0 0)
(126.704 0 0)
(127.47 0 0)
(128.236 0 0)
(129.002 0 0)
(129.766 0 0)
(130.531 0 0)
(131.294 0 0)
(132.056 0 0)
(132.818 0 0)
(133.578 0 0)
(134.337 0 0)
(135.094 0 0)
(135.85 0 0)
(136.604 0 0)
(137.357 0 0)
(138.108 0 0)
(138.859 0 0)
(139.6 0 0)
(140.368 0 0)
(141.041 0 0)
(142.006 0 0)
(124.414 0 0)
(121.696 0 0)
(119.08 0 0)
(116.599 0 0)
(114.283 0 0)
(112.157 0 0)
(110.238 0 0)
(108.537 0 0)
(107.056 0 0)
(105.791 0 0)
(104.731 0 0)
(103.863 0 0)
(103.172 0 0)
(102.642 0 0)
(102.256 0 0)
(101.998 0 0)
(101.855 0 0)
(101.813 0 0)
(101.86 0 0)
(101.985 0 0)
(102.181 0 0)
(102.437 0 0)
(102.747 0 0)
(103.106 0 0)
(103.507 0 0)
(103.946 0 0)
(104.418 0 0)
(104.92 0 0)
(105.448 0 0)
(106.001 0 0)
(106.574 0 0)
(107.167 0 0)
(107.777 0 0)
(108.402 0 0)
(109.041 0 0)
(109.692 0 0)
(110.355 0 0)
(111.027 0 0)
(111.708 0 0)
(112.397 0 0)
(113.094 0 0)
(113.797 0 0)
(114.505 0 0)
(115.219 0 0)
(115.938 0 0)
(116.66 0 0)
(117.386 0 0)
(118.116 0 0)
(118.848 0 0)
(119.582 0 0)
(120.318 0 0)
(121.057 0 0)
(121.796 0 0)
(122.537 0 0)
(123.279 0 0)
(124.021 0 0)
(124.764 0 0)
(125.507 0 0)
(126.25 0 0)
(126.993 0 0)
(127.736 0 0)
(128.479 0 0)
(129.221 0 0)
(129.962 0 0)
(130.703 0 0)
(131.442 0 0)
(132.181 0 0)
(132.918 0 0)
(133.654 0 0)
(134.389 0 0)
(135.123 0 0)
(135.855 0 0)
(136.586 0 0)
(137.314 0 0)
(138.043 0 0)
(138.762 0 0)
(139.507 0 0)
(140.16 0 0)
(141.096 0 0)
(121.265 0 0)
(118.751 0 0)
(116.366 0 0)
(114.137 0 0)
(112.087 0 0)
(110.232 0 0)
(108.58 0 0)
(107.135 0 0)
(105.892 0 0)
(104.844 0 0)
(103.977 0 0)
(103.279 0 0)
(102.735 0 0)
(102.33 0 0)
(102.049 0 0)
(101.879 0 0)
(101.808 0 0)
(101.824 0 0)
(101.918 0 0)
(102.081 0 0)
(102.304 0 0)
(102.581 0 0)
(102.907 0 0)
(103.275 0 0)
(103.68 0 0)
(104.12 0 0)
(104.589 0 0)
(105.086 0 0)
(105.607 0 0)
(106.149 0 0)
(106.711 0 0)
(107.29 0 0)
(107.885 0 0)
(108.494 0 0)
(109.116 0 0)
(109.75 0 0)
(110.394 0 0)
(111.047 0 0)
(111.708 0 0)
(112.377 0 0)
(113.053 0 0)
(113.735 0 0)
(114.422 0 0)
(115.115 0 0)
(115.811 0 0)
(116.512 0 0)
(117.216 0 0)
(117.923 0 0)
(118.633 0 0)
(119.345 0 0)
(120.059 0 0)
(120.774 0 0)
(121.491 0 0)
(122.21 0 0)
(122.929 0 0)
(123.649 0 0)
(124.369 0 0)
(125.09 0 0)
(125.81 0 0)
(126.531 0 0)
(127.252 0 0)
(127.972 0 0)
(128.691 0 0)
(129.411 0 0)
(130.129 0 0)
(130.846 0 0)
(131.563 0 0)
(132.278 0 0)
(132.992 0 0)
(133.705 0 0)
(134.417 0 0)
(135.127 0 0)
(135.836 0 0)
(136.543 0 0)
(137.251 0 0)
(137.948 0 0)
(138.671 0 0)
(139.305 0 0)
(140.212 0 0)
(118.353 0 0)
(116.066 0 0)
(113.927 0 0)
(111.957 0 0)
(110.17 0 0)
(108.573 0 0)
(107.17 0 0)
(105.957 0 0)
(104.926 0 0)
(104.068 0 0)
(103.369 0 0)
(102.818 0 0)
(102.399 0 0)
(102.1 0 0)
(101.908 0 0)
(101.812 0 0)
(101.802 0 0)
(101.867 0 0)
(102.001 0 0)
(102.194 0 0)
(102.441 0 0)
(102.735 0 0)
(103.072 0 0)
(103.446 0 0)
(103.855 0 0)
(104.294 0 0)
(104.76 0 0)
(105.25 0 0)
(105.762 0 0)
(106.295 0 0)
(106.844 0 0)
(107.41 0 0)
(107.991 0 0)
(108.584 0 0)
(109.19 0 0)
(109.806 0 0)
(110.432 0 0)
(111.066 0 0)
(111.708 0 0)
(112.358 0 0)
(113.014 0 0)
(113.675 0 0)
(114.342 0 0)
(115.013 0 0)
(115.689 0 0)
(116.368 0 0)
(117.051 0 0)
(117.737 0 0)
(118.425 0 0)
(119.115 0 0)
(119.807 0 0)
(120.501 0 0)
(121.196 0 0)
(121.893 0 0)
(122.59 0 0)
(123.288 0 0)
(123.986 0 0)
(124.685 0 0)
(125.384 0 0)
(126.083 0 0)
(126.782 0 0)
(127.48 0 0)
(128.178 0 0)
(128.876 0 0)
(129.572 0 0)
(130.268 0 0)
(130.963 0 0)
(131.657 0 0)
(132.35 0 0)
(133.042 0 0)
(133.732 0 0)
(134.421 0 0)
(135.109 0 0)
(135.794 0 0)
(136.481 0 0)
(137.157 0 0)
(137.859 0 0)
(138.475 0 0)
(139.353 0 0)
(115.705 0 0)
(113.659 0 0)
(111.771 0 0)
(110.056 0 0)
(108.519 0 0)
(107.163 0 0)
(105.985 0 0)
(104.978 0 0)
(104.134 0 0)
(103.441 0 0)
(102.887 0 0)
(102.46 0 0)
(102.148 0 0)
(101.939 0 0)
(101.823 0 0)
(101.79 0 0)
(101.83 0 0)
(101.937 0 0)
(102.103 0 0)
(102.322 0 0)
(102.588 0 0)
(102.895 0 0)
(103.241 0 0)
(103.62 0 0)
(104.03 0 0)
(104.467 0 0)
(104.928 0 0)
(105.412 0 0)
(105.916 0 0)
(106.437 0 0)
(106.975 0 0)
(107.528 0 0)
(108.094 0 0)
(108.672 0 0)
(109.261 0 0)
(109.861 0 0)
(110.469 0 0)
(111.085 0 0)
(111.709 0 0)
(112.339 0 0)
(112.976 0 0)
(113.617 0 0)
(114.264 0 0)
(114.915 0 0)
(115.571 0 0)
(116.229 0 0)
(116.891 0 0)
(117.556 0 0)
(118.223 0 0)
(118.892 0 0)
(119.563 0 0)
(120.236 0 0)
(120.91 0 0)
(121.585 0 0)
(122.261 0 0)
(122.938 0 0)
(123.615 0 0)
(124.293 0 0)
(124.971 0 0)
(125.649 0 0)
(126.326 0 0)
(127.003 0 0)
(127.68 0 0)
(128.357 0 0)
(129.032 0 0)
(129.707 0 0)
(130.381 0 0)
(131.054 0 0)
(131.726 0 0)
(132.397 0 0)
(133.067 0 0)
(133.735 0 0)
(134.402 0 0)
(135.067 0 0)
(135.733 0 0)
(136.39 0 0)
(137.07 0 0)
(137.668 0 0)
(138.518 0 0)
(113.337 0 0)
(111.534 0 0)
(109.894 0 0)
(108.42 0 0)
(107.116 0 0)
(105.978 0 0)
(105.001 0 0)
(104.176 0 0)
(103.493 0 0)
(102.942 0 0)
(102.512 0 0)
(102.191 0 0)
(101.97 0 0)
(101.837 0 0)
(101.785 0 0)
(101.804 0 0)
(101.888 0 0)
(102.03 0 0)
(102.223 0 0)
(102.462 0 0)
(102.743 0 0)
(103.062 0 0)
(103.414 0 0)
(103.796 0 0)
(104.205 0 0)
(104.639 0 0)
(105.095 0 0)
(105.572 0 0)
(106.066 0 0)
(106.577 0 0)
(107.103 0 0)
(107.643 0 0)
(108.195 0 0)
(108.758 0 0)
(109.331 0 0)
(109.914 0 0)
(110.505 0 0)
(111.104 0 0)
(111.709 0 0)
(112.321 0 0)
(112.939 0 0)
(113.562 0 0)
(114.189 0 0)
(114.821 0 0)
(115.456 0 0)
(116.095 0 0)
(116.736 0 0)
(117.381 0 0)
(118.028 0 0)
(118.677 0 0)
(119.327 0 0)
(119.98 0 0)
(120.633 0 0)
(121.288 0 0)
(121.943 0 0)
(122.599 0 0)
(123.256 0 0)
(123.913 0 0)
(124.57 0 0)
(125.227 0 0)
(125.884 0 0)
(126.541 0 0)
(127.198 0 0)
(127.853 0 0)
(128.509 0 0)
(129.163 0 0)
(129.817 0 0)
(130.47 0 0)
(131.121 0 0)
(131.772 0 0)
(132.422 0 0)
(133.07 0 0)
(133.717 0 0)
(134.362 0 0)
(135.008 0 0)
(135.644 0 0)
(136.304 0 0)
(136.884 0 0)
(137.708 0 0)
(111.251 0 0)
(109.687 0 0)
(108.28 0 0)
(107.031 0 0)
(105.937 0 0)
(104.994 0 0)
(104.193 0 0)
(103.526 0 0)
(102.983 0 0)
(102.554 0 0)
(102.229 0 0)
(101.998 0 0)
(101.853 0 0)
(101.785 0 0)
(101.786 0 0)
(101.85 0 0)
(101.97 0 0)
(102.14 0 0)
(102.356 0 0)
(102.612 0 0)
(102.905 0 0)
(103.232 0 0)
(103.588 0 0)
(103.972 0 0)
(104.38 0 0)
(104.81 0 0)
(105.26 0 0)
(105.729 0 0)
(106.214 0 0)
(106.714 0 0)
(107.228 0 0)
(107.755 0 0)
(108.293 0 0)
(108.841 0 0)
(109.399 0 0)
(109.966 0 0)
(110.54 0 0)
(111.122 0 0)
(111.71 0 0)
(112.304 0 0)
(112.903 0 0)
(113.507 0 0)
(114.116 0 0)
(114.729 0 0)
(115.345 0 0)
(115.964 0 0)
(116.587 0 0)
(117.212 0 0)
(117.839 0 0)
(118.468 0 0)
(119.099 0 0)
(119.731 0 0)
(120.365 0 0)
(120.999 0 0)
(121.635 0 0)
(122.271 0 0)
(122.908 0 0)
(123.545 0 0)
(124.182 0 0)
(124.819 0 0)
(125.456 0 0)
(126.093 0 0)
(126.729 0 0)
(127.365 0 0)
(128.001 0 0)
(128.636 0 0)
(129.269 0 0)
(129.902 0 0)
(130.534 0 0)
(131.165 0 0)
(131.795 0 0)
(132.424 0 0)
(133.051 0 0)
(133.677 0 0)
(134.303 0 0)
(134.921 0 0)
(135.56 0 0)
(136.124 0 0)
(136.921 0 0)
(109.441 0 0)
(108.103 0 0)
(106.912 0 0)
(105.866 0 0)
(104.959 0 0)
(104.187 0 0)
(103.539 0 0)
(103.008 0 0)
(102.584 0 0)
(102.259 0 0)
(102.023 0 0)
(101.869 0 0)
(101.789 0 0)
(101.775 0 0)
(101.822 0 0)
(101.922 0 0)
(102.072 0 0)
(102.266 0 0)
(102.5 0 0)
(102.77 0 0)
(103.073 0 0)
(103.405 0 0)
(103.764 0 0)
(104.148 0 0)
(104.553 0 0)
(104.979 0 0)
(105.423 0 0)
(105.883 0 0)
(106.359 0 0)
(106.849 0 0)
(107.351 0 0)
(107.865 0 0)
(108.389 0 0)
(108.923 0 0)
(109.466 0 0)
(110.017 0 0)
(110.575 0 0)
(111.14 0 0)
(111.711 0 0)
(112.287 0 0)
(112.869 0 0)
(113.455 0 0)