/*--------------------------------*- C++ -*----------------------------------*\
| =========                 |                                                 |
| \\      /  F ield         | OpenFOAM: The Open Source CFD Toolbox           |
|  \\    /   O peration     | Version:  2312                                  |
|   \\  /    A nd           | Website:  www.openfoam.com                      |
|    \\/     M anipulation  |                                                 |
\*---------------------------------------------------------------------------*/
FoamFile
{
    version     2.0;
    format      ascii;
    arch        "LSB;label=32;scalar=64";
    class       surfaceScalarField;
    location    "0.286";
    object      phi;
}
// * * * * * * * * * * * * * * * * * * * * * * * * * * * * * * * * * * * * * //

dimensions      [0 3 -1 0 0 0 0];

oriented        oriented;

internalField   nonuniform List<scalar> 
62015
(
78.756
0.15358
-79.4257
78.0747
0.149433
77.3814
0.145239
76.6753
0.140999
75.9559
0.136718
75.2223
0.132398
74.4737
0.128044
73.7092
0.123658
72.9276
0.119245
72.1278
0.114808
71.3084
0.11035
70.4679
0.105876
69.6046
0.101389
68.7164
0.0968939
67.8011
0.0923937
66.8561
0.0878927
65.8783
0.0833955
64.8642
0.0789058
63.8094
0.0744276
62.7088
0.0699657
61.5563
0.0655244
60.3443
0.0611075
59.063
0.0567197
57.7002
0.0523648
56.2399
0.0480465
54.6602
0.0437686
52.9296
0.0395328
50.9988
0.0353388
48.7992
0.0311805
46.2692
0.0270573
43.4236
0.0230045
40.4213
0.019123
37.5431
0.0155592
35.0663
0.0124264
33.1404
0.00974181
31.7652
0.0074318
30.8492
0.0053885
30.2786
0.00351308
29.9543
0.00173272
29.8027
0
29.7725
-0.00171519
29.8292
-0.00343149
29.9494
-0.00516003
30.1173
-0.00690823
30.3218
-0.00868069
30.5549
-0.0104799
30.8111
-0.0123081
31.086
-0.0141657
31.3765
-0.0160537
31.6801
-0.0179721
31.9949
-0.0199205
32.3194
-0.0218985
32.6524
-0.0239057
32.9928
-0.0259414
33.34
-0.0280045
33.6932
-0.0300943
34.0518
-0.0322097
34.4155
-0.0343497
34.7838
-0.0365131
35.1564
-0.0386987
35.5331
-0.0409053
35.9136
-0.0431318
36.2976
-0.0453766
36.6851
-0.0476385
37.0759
-0.0499162
37.4699
-0.0522082
37.8668
-0.0545131
38.2668
-0.0568294
38.6696
-0.0591558
39.0751
-0.0614906
39.4834
-0.0638326
39.8944
-0.0661797
40.3078
-0.0685315
40.7243
-0.0708844
41.1416
-0.0732414
41.5669
-0.0755881
41.9776
-0.0779625
42.4431
-0.0802393
-0.0828048
42.7504
75.8528
0.300355
-76.5025
75.1919
0.292226
74.5195
0.284004
73.8352
0.275696
73.1381
0.267308
72.4277
0.258846
71.703
0.250318
70.9631
0.24173
70.2069
0.233088
69.4334
0.224401
68.6411
0.215676
67.8287
0.206919
66.9943
0.198139
66.1361
0.189342
65.2519
0.180537
64.3392
0.171731
63.3948
0.162933
62.4154
0.15415
61.3967
0.145391
60.3338
0.136663
59.2207
0.127975
58.0497
0.119336
56.8115
0.110753
55.4939
0.102234
54.0812
0.0937857
52.5516
0.085415
50.8735
0.0771249
48.9984
0.0689122
46.8614
0.0607658
44.4115
0.0526929
41.6776
0.0447778
38.824
0.0372308
36.1171
0.0303313
33.8057
0.024278
32.0154
0.0190798
30.7365
0.0145869
29.8815
0.0105925
29.345
0.00691201
29.0365
0.00341086
28.8886
0
28.8544
-0.00337662
28.9019
-0.00675388
29.0095
-0.0101537
29.1623
-0.0135897
29.3501
-0.0170706
29.5654
-0.0206021
29.8027
-0.0241873
30.0582
-0.0278288
30.3287
-0.031527
30.6119
-0.0352825
30.9059
-0.0390946
31.2094
-0.042963
31.5212
-0.0468863
31.8403
-0.0508633
32.1659
-0.0548922
32.4974
-0.0589716
32.8343
-0.0630993
33.1761
-0.0672733
33.5225
-0.0714915
33.8731
-0.0757516
34.2277
-0.0800512
34.586
-0.0843879
34.9478
-0.0887593
35.3131
-0.0931626
35.6815
-0.0975952
36.053
-0.102055
36.4276
-0.106538
36.805
-0.111042
37.1852
-0.115565
37.5681
-0.120104
37.9537
-0.124655
38.342
-0.129215
38.7326
-0.133783
39.1263
-0.138353
39.5207
-0.142929
39.9227
-0.147485
40.3113
-0.152092
40.7509
-0.156514
-0.161479
41.0449
73.0248
0.44044
-73.6555
72.3833
0.428489
71.7311
0.416404
71.0675
0.404194
70.3919
0.391869
69.7034
0.379438
69.0013
0.36691
68.2848
0.354298
67.5526
0.341609
66.8039
0.328854
66.0371
0.316045
65.251
0.303191
64.4438
0.290303
63.6137
0.277393
62.7584
0.264472
61.8756
0.251551
60.9622
0.238641
60.0148
0.225755
59.0293
0.212903
58.0008
0.200099
56.9234
0.187353
55.7895
0.174678
54.5899
0.162085
53.3124
0.149584
51.9412
0.137186
50.4546
0.124898
48.8205
0.112725
46.9904
0.100657
44.9045
0.0886826
42.5246
0.0768259
39.8971
0.0652407
37.1936
0.0542559
34.6653
0.044267
32.5299
0.0355219
30.8862
0.0279956
29.7136
0.0214564
28.9276
0.0156092
28.4316
0.0101973
28.1439
0.00503516
28.0036
0
27.9684
-0.00498615
28.0093
-0.00997218
28.1065
-0.014989
28.2463
-0.0200559
28.4191
-0.0251857
28.6182
-0.0303866
28.8383
-0.0356633
29.0757
-0.041019
29.3277
-0.0464549
29.5918
-0.0519718
29.8666
-0.057569
30.1504
-0.0632456
30.4423
-0.0689999
30.7413
-0.0748302
31.0467
-0.0807342
31.3578
-0.0867093
31.6742
-0.0927529
31.9954
-0.0988619
32.3211
-0.105033
32.6509
-0.111264
32.9846
-0.11755
33.322
-0.123889
33.6628
-0.130275
34.007
-0.136707
34.3543
-0.14318
34.7047
-0.14969
35.058
-0.156234
35.4141
-0.162806
35.7729
-0.169404
36.1345
-0.176022
36.4986
-0.182658
36.8653
-0.189306
37.2344
-0.195963
37.6064
-0.202622
37.9793
-0.209288
38.3592
-0.215924
38.7269
-0.222631
39.1419
-0.229075
-0.236285
39.4221
70.2858
0.574037
-70.898
69.6634
0.55842
69.0307
0.542631
68.3871
0.526682
67.7321
0.510585
67.0649
0.494353
66.3846
0.477997
65.6904
0.461532
64.9814
0.44497
64.2563
0.428324
63.514
0.411609
62.7529
0.394836
61.9716
0.378022
61.168
0.36118
60.3402
0.344325
59.4856
0.32747
58.6013
0.310632
57.684
0.293825
56.7296
0.277064
55.7333
0.260363
54.689
0.24374
53.5894
0.227208
52.4252
0.210781
51.1841
0.194473
49.8504
0.178296
48.4019
0.162258
46.8056
0.146362
45.0138
0.130594
42.9724
0.114942
40.6581
0.0994661
38.1357
0.0844074
35.5828
0.070218
33.2334
0.0573871
31.2739
0.0461754
29.7764
0.0365008
28.7105
0.0280474
27.9947
0.0204425
27.5411
0.0133713
27.276
0.00660701
27.1454
0
27.1112
-0.00654544
27.1473
-0.0130898
27.2358
-0.0196717
27.3643
-0.0263155
27.5238
-0.0330379
27.7081
-0.0398484
27.9124
-0.0467541
28.1333
-0.0537586
28.3681
-0.0608639
28.6146
-0.0680708
28.8713
-0.0753786
29.1368
-0.0827861
29.4101
-0.0902915
29.6903
-0.0978923
29.9767
-0.105586
30.2687
-0.113369
30.5658
-0.121237
30.8676
-0.129188
31.1738
-0.137217
31.4841
-0.14532
31.7981
-0.153493
32.1158
-0.161731
32.4368
-0.170029
32.7611
-0.178384
33.0885
-0.186789
33.4188
-0.19524
33.7521
-0.203732
34.0881
-0.212259
34.4267
-0.220817
34.768
-0.2294
35.1119
-0.238003
35.4582
-0.24662
35.8069
-0.255246
36.1584
-0.263873
36.5108
-0.272508
36.8699
-0.281103
37.2176
-0.289785
37.6097
-0.298133
-0.307447
37.8759
67.6402
0.701367
-68.2343
67.0363
0.682238
66.4228
0.662901
65.7988
0.643372
65.1639
0.623665
64.5173
0.603794
63.8582
0.583776
63.1858
0.563625
62.4991
0.543359
61.7969
0.522993
61.0781
0.502543
60.3413
0.482026
59.5848
0.46146
58.8068
0.440861
58.0053
0.420246
57.1778
0.399635
56.3214
0.379043
55.4329
0.358491
54.5081
0.337995
53.5422
0.317573
52.5294
0.297245
51.4622
0.277027
50.3312
0.256936
49.1243
0.236987
47.8253
0.217194
46.4116
0.197566
44.8495
0.178099
43.0924
0.158777
41.0936
0.139596
38.8455
0.120667
36.4303
0.102338
34.0282
0.0851804
31.854
0.0697477
30.0631
0.0562805
28.7043
0.0446225
27.7392
0.0343756
27.0901
0.0251015
26.6769
0.0164383
26.4341
0.0081281
26.3134
0
26.2809
-0.00805594
26.3131
-0.0161099
26.394
-0.0242068
26.5122
-0.0323756
26.6596
-0.0406357
26.8304
-0.0489992
27.0202
-0.0574741
27.2257
-0.0660649
27.4445
-0.0747743
27.6746
-0.0836032
27.9145
-0.0925508
28.1628
-0.101616
28.4187
-0.110796
28.6813
-0.120089
28.9498
-0.129491
29.2239
-0.138997
29.5029
-0.148605
29.7865
-0.15831
30.0743
-0.168106
30.3661
-0.177989
30.6617
-0.187954
30.9607
-0.197994
31.2631
-0.208106
31.5686
-0.218282
31.8772
-0.228517
32.1887
-0.238805
32.5029
-0.24914
32.8199
-0.259515
33.1395
-0.269925
33.4617
-0.280363
33.7863
-0.290823
34.1134
-0.301296
34.4427
-0.31178
34.7748
-0.322262
35.1078
-0.33275
35.4472
-0.343189
35.7761
-0.353728
36.1465
-0.363867
-0.375154
36.399
65.0876
0.82265
-65.6639
64.5021
0.800158
63.9072
0.777426
63.3025
0.754471
62.6873
0.731309
62.0608
0.70796
61.4224
0.684439
60.7711
0.660766
60.1061
0.63696
59.4262
0.613038
58.7302
0.589021
58.0168
0.564927
57.2844
0.540776
56.5311
0.516589
55.755
0.492385
54.9536
0.468186
54.1241
0.444011
53.2631
0.419882
52.3668
0.395819
51.4301
0.371844
50.4474
0.347977
49.411
0.324237
48.3116
0.300644
47.137
0.277214
45.8707
0.253961
44.4894
0.230892
42.9589
0.207999
41.2348
0.185263
39.279
0.162699
37.1002
0.14049
34.7954
0.119102
32.5437
0.0992122
30.5386
0.0814086
28.9065
0.0658811
27.6763
0.0523889
26.804
0.0404576
26.2162
0.0295948
25.8404
0.0194031
25.6183
0.00960048
25.5071
0
25.4764
-0.00951942
25.5054
-0.0190357
25.5794
-0.0285991
25.6882
-0.0382428
25.8244
-0.0479882
25.9827
-0.0578499
26.159
-0.0678367
26.3502
-0.0779541
26.5542
-0.0882053
26.7689
-0.0985911
26.993
-0.109111
27.2253
-0.119764
27.4648
-0.130547
27.7108
-0.141457
27.9627
-0.152489
28.2198
-0.163641
28.4818
-0.174907
28.7482
-0.186281
29.0188
-0.197758
29.2932
-0.209333
29.5713
-0.221
29.8528
-0.232752
30.1376
-0.244583
30.4254
-0.256485
30.7162
-0.268454
31.0098
-0.280481
31.3062
-0.292559
31.6052
-0.304682
31.9067
-0.316841
32.2108
-0.32903
32.5173
-0.341241
32.8262
-0.353467
33.1372
-0.3657
33.4509
-0.377929
33.7656
-0.390162
34.0863
-0.402336
34.3973
-0.414621
34.7472
-0.426447
-0.43958
34.9867
62.626
0.938096
-63.1847
62.0584
0.912387
61.482
0.886408
60.896
0.860177
60.3
0.833714
59.6932
0.807039
59.075
0.780172
58.4443
0.753134
57.8004
0.725946
57.1422
0.69863
56.4684
0.671206
55.7777
0.643696
55.0686
0.616124
54.3393
0.588512
53.5877
0.560882
52.8115
0.533258
52.0078
0.505663
51.1735
0.47812
50.3044
0.450652
49.3959
0.423284
48.4419
0.396037
47.435
0.368933
46.3658
0.341993
45.2218
0.315233
43.9863
0.288668
42.6353
0.262301
41.1346
0.236119
39.4427
0.210103
37.5317
0.184306
35.4263
0.158997
33.2351
0.134766
31.1324
0.11238
29.2891
0.0924246
27.8052
0.075016
26.6931
0.0598248
25.9053
0.0463081
25.3733
0.0339311
25.0317
0.0222699
24.8286
0.011026
24.7261
0
24.6972
-0.0109374
24.7232
-0.0218703
24.7909
-0.0328536
24.8911
-0.0439235
25.0169
-0.0551043
25.1636
-0.0664114
25.3272
-0.0778552
25.5052
-0.0894423
25.6952
-0.101176
25.8955
-0.113056
26.1049
-0.125085
26.3221
-0.137259
26.5463
-0.149575
26.7768
-0.162031
27.0129
-0.174622
27.2542
-0.187343
27.5001
-0.200188
27.7504
-0.213153
28.0047
-0.22623
28.2628
-0.239414
28.5244
-0.252698
28.7893
-0.266074
29.0574
-0.279536
29.3286
-0.293076
29.6026
-0.306686
29.8794
-0.320358
30.1588
-0.334086
30.4409
-0.34786
30.7254
-0.361672
31.0123
-0.375514
31.3016
-0.389378
31.5933
-0.403255
31.887
-0.417138
32.1834
-0.431012
32.4807
-0.444887
32.7838
-0.458694
33.0777
-0.47262
33.4083
-0.486033
-0.500894
33.6353
60.2526
1.04791
-60.7941
59.7027
1.01912
59.1442
0.990041
58.5767
0.960681
57.9994
0.931064
57.4119
0.901214
56.8132
0.871152
56.2027
0.840901
55.5793
0.810486
54.9421
0.779928
54.2898
0.749253
53.6212
0.718485
52.9346
0.687648
52.2284
0.656768
51.5006
0.625869
50.7487
0.594977
49.9701
0.564118
49.1613
0.533317
48.3186
0.5026
47.437
0.471993
46.5106
0.441519
45.5319
0.411201
44.4914
0.381061
43.3765
0.351117
42.1701
0.32138
40.8475
0.291851
39.375
0.26251
37.7154
0.233348
35.8518
0.204467
33.824
0.176247
31.7492
0.149396
29.7931
0.124746
28.1037
0.102846
26.7573
0.0837207
25.7531
0.0669524
25.0421
0.0519404
24.5605
0.0381177
24.2499
0.0250429
24.0642
0.0124061
23.9697
0
23.9424
-0.0123113
23.9657
-0.0246168
24.0276
-0.0369749
24.1198
-0.0494247
24.2361
-0.0619921
24.3719
-0.0746943
24.5238
-0.087543
24.6893
-0.100545
24.8663
-0.113703
25.0532
-0.12702
25.2487
-0.140496
25.4518
-0.154127
25.6617
-0.167912
25.8775
-0.181846
26.0989
-0.195925
26.3252
-0.210144
26.556
-0.224497
26.7911
-0.238976
27.0301
-0.253577
27.2727
-0.268291
27.5188
-0.283111
27.7682
-0.29803
28.0206
-0.313039
28.276
-0.32813
28.5341
-0.343295
28.795
-0.358526
29.0585
-0.373813
29.3245
-0.389148
29.5929
-0.404522
29.8637
-0.419925
30.1367
-0.435348
30.4121
-0.450782
30.6895
-0.466219
30.9694
-0.481642
31.2503
-0.497063
31.5366
-0.512405
31.8145
-0.527873
32.1269
-0.542779
-0.559256
32.342
57.9647
1.15228
-58.4892
57.4319
1.12056
56.8911
1.08851
56.3415
1.05617
55.7826
1.02354
55.2137
0.990658
54.6342
0.957547
54.0432
0.924232
53.4398
0.890737
52.823
0.857088
52.1916
0.823312
51.5443
0.789436
50.8796
0.755485
50.1958
0.721488
49.4908
0.687471
48.7624
0.653463
48.0079
0.61949
47.2238
0.585582
46.4063
0.551764
45.5505
0.518065
44.6506
0.48451
43.6989
0.451122
42.6857
0.417924
41.5984
0.384933
40.4193
0.352158
39.1234
0.319593
37.6778
0.287217
36.0512
0.255041
34.2382
0.223236
32.2925
0.1923
30.336
0.163057
28.5232
0.136369
26.9793
0.112718
25.76
0.0920263
24.8541
0.0737913
24.2126
0.057366
23.7767
0.0421613
23.4943
0.0277259
23.3244
0.0137429
23.2372
0
23.2115
-0.0136429
23.2322
-0.0272783
23.2888
-0.0409676
23.3735
-0.0547523
23.4809
-0.0686599
23.6066
-0.0827091
23.7477
-0.0969121
23.9015
-0.111276
24.0664
-0.125806
24.2407
-0.140503
24.4232
-0.155367
24.6131
-0.170396
24.8094
-0.185587
25.0116
-0.200936
25.219
-0.216437
25.4313
-0.232086
25.6479
-0.247876
25.8687
-0.263799
26.0932
-0.27985
26.3214
-0.296019
26.5528
-0.3123
26.7875
-0.328683
27.0251
-0.34516
27.2656
-0.361723
27.5088
-0.378362
27.7547
-0.395067
28.003
-0.41183
28.2539
-0.428641
28.5071
-0.44549
28.7626
-0.462366
29.0203
-0.47926
29.2802
-0.496162
29.5422
-0.513062
29.8065
-0.529944
30.0719
-0.54682
30.3424
-0.563607
30.6051
-0.580523
30.9001
-0.596833
-0.61482
31.104
55.7592
1.2514
-56.2672
55.2433
1.21688
54.7197
1.18201
54.1876
1.14681
53.6466
1.11131
53.0959
1.07554
52.535
1.03952
51.963
1.00328
51.3789
0.966853
50.7819
0.930258
50.1707
0.893526
49.5441
0.856686
48.9005
0.819767
48.2384
0.782798
47.5555
0.745809
46.8498
0.70883
46.1184
0.671889
45.358
0.635016
44.5648
0.598241
43.7338
0.561591
42.8591
0.525094
41.9331
0.488773
40.946
0.452651
39.8847
0.416743
38.7312
0.381056
37.4603
0.345576
36.0411
0.310286
34.4487
0.275228
32.69
0.240666
30.8304
0.207222
28.9933
0.175816
27.3195
0.147306
25.9125
0.122084
24.8102
0.0999613
23.9938
0.0803598
23.4151
0.0625959
23.0206
0.0460685
22.7637
0.0303221
22.6082
0.0150374
22.5278
0
22.5034
-0.0149332
22.5219
-0.0298574
22.5735
-0.0448362
22.6514
-0.0599124
22.7505
-0.0751157
22.8669
-0.0904654
22.9977
-0.105975
23.1408
-0.121652
23.2942
-0.137501
23.4568
-0.153524
23.6272
-0.169722
23.8046
-0.186091
23.9883
-0.202629
24.1776
-0.219331
24.3719
-0.236192
24.571
-0.253207
24.7743
-0.270367
24.9816
-0.287667
25.1925
-0.305098
25.407
-0.322653
25.6246
-0.340322
25.8454
-0.358096
26.0691
-0.375967
26.2955
-0.393925
26.5246
-0.41196
26.7563
-0.430062
26.9904
-0.448221
27.227
-0.466427
27.4658
-0.484669
27.7068
-0.502936
27.9501
-0.521218
28.1954
-0.539503
28.4427
-0.557783
28.6924
-0.576038
28.9431
-0.594282
29.1986
-0.612427
29.4469
-0.630703
29.7255
-0.648334
-0.667731
29.9188
53.6336
1.34547
-54.1254
53.1342
1.30827
52.6272
1.2707
52.1122
1.23279
51.5886
1.19455
51.0557
1.15603
50.5128
1.11724
49.9592
1.07821
49.394
1.03898
48.8161
0.99958
48.2245
0.960032
47.6179
0.920368
46.9948
0.880621
46.3534
0.840821
45.692
0.801
45.008
0.761187
44.2989
0.721417
43.5613
0.681718
42.7913
0.642121
41.9841
0.602656
41.1335
0.563349
40.232
0.524227
39.2695
0.485308
38.2328
0.446608
37.1033
0.408126
35.8561
0.369846
34.463
0.331759
32.9068
0.293959
31.2063
0.256814
29.4364
0.221077
27.7188
0.187737
26.1791
0.157613
24.9003
0.130985
23.9053
0.107553
23.17
0.0866739
22.6482
0.0676398
22.2911
0.0498449
22.0573
0.0328349
21.9149
0.0162916
21.8406
0
21.8176
-0.016184
21.834
-0.0323571
21.8811
-0.0485845
21.9526
-0.064911
22.044
-0.0813669
22.1517
-0.0979727
22.273
-0.114742
22.406
-0.131684
22.5488
-0.148804
22.7003
-0.166102
22.8594
-0.18358
23.0252
-0.201235
23.1969
-0.219063
23.3741
-0.237062
23.5562
-0.255223
23.7429
-0.273542
23.9336
-0.292012
24.1282
-0.310624
24.3264
-0.329371
24.5279
-0.348243
24.7326
-0.367232
24.9403
-0.386328
25.1508
-0.405522
25.364
-0.424803
25.5798
-0.444161
25.7981
-0.463586
26.0188
-0.483066
26.2418
-0.502591
26.467
-0.522149
26.6944
-0.541729
26.9239
-0.561321
27.1555
-0.58091
27.389
-0.600489
27.6248
-0.620037
27.8616
-0.639567
28.1029
-0.658989
28.3376
-0.678541
28.6008
-0.697414
-0.718128
28.784
51.5851
1.43465
-52.0612
51.1017
1.3949
50.6111
1.35477
50.1127
1.31426
49.606
1.27342
49.0903
1.23227
48.565
1.19084
48.0292
1.14916
47.4822
1.10727
46.9229
1.06519
46.3502
1.02296
45.7629
0.980611
45.1595
0.93817
44.5383
0.895673
43.8974
0.853153
43.2345
0.810642
42.5468
0.768174
41.831
0.725781
41.0834
0.683493
40.2988
0.641341
39.4713
0.599353
38.593
0.557552
37.6538
0.515958
36.6401
0.474581
35.5331
0.433416
34.3085
0.392446
32.9418
0.35168
31.4243
0.311284
29.7862
0.271745
28.1093
0.233936
26.5103
0.198887
25.0988
0.167342
23.9393
0.139457
23.0426
0.114825
22.3808
0.092749
21.9102
0.0725073
21.5869
0.0534963
21.3741
0.0352674
21.2437
0.0175065
21.175
0
21.1532
-0.0173962
21.1677
-0.0347797
21.2106
-0.0522168
21.2763
-0.0697534
21.3605
-0.0874207
21.4601
-0.10524
21.5727
-0.123226
21.6961
-0.141387
21.8291
-0.159729
21.9703
-0.178254
22.1187
-0.196962
22.2736
-0.215851
22.4342
-0.234917
22.6
-0.254156
22.7706
-0.273562
22.9456
-0.293128
23.1245
-0.312847
23.3072
-0.332711
23.4933
-0.352711
23.6827
-0.372838
23.8752
-0.393083
24.0705
-0.413435
24.2686
-0.433885
24.4694
-0.454421
24.6726
-0.475033
24.8783
-0.49571
25.0863
-0.516441
25.2965
-0.537213
25.5089
-0.558015
25.7234
-0.578835
25.94
-0.599661
26.1586
-0.62048
26.379
-0.641282
26.6016
-0.662047
26.8252
-0.682788
27.0532
-0.70341
27.275
-0.72416
27.5235
-0.7442
-0.766143
27.6971
49.6111
1.51912
-50.0718
49.1434
1.47695
48.6687
1.43437
48.1864
1.3914
47.6961
1.34807
47.1971
1.30443
46.6888
1.26049
46.1704
1.21628
45.641
1.17186
45.0997
1.12723
44.5453
1.08245
43.9766
1.03754
43.3923
0.99253
42.7905
0.947465
42.1693
0.902376
41.5266
0.857295
40.8594
0.812257
40.1647
0.767295
39.4383
0.722441
38.6754
0.677725
37.8698
0.633175
37.0136
0.588813
36.0964
0.544657
35.1043
0.500714
34.0184
0.456972
32.8156
0.413418
31.4763
0.370096
30.0006
0.327258
28.4289
0.285523
26.8473
0.24587
25.3652
0.209329
24.0756
0.176544
23.0267
0.147535
22.2195
0.121799
21.6242
0.098599
21.1998
0.0772067
20.907
0.0570277
20.7133
0.0376226
20.5938
0.0186835
20.5303
0
20.5096
-0.0185712
20.5223
-0.0371279
20.5613
-0.055737
20.6216
-0.0744449
20.6993
-0.0932838
20.7914
-0.112276
20.8957
-0.131435
21.0104
-0.150773
21.134
-0.170293
21.2656
-0.189998
21.4041
-0.209888
21.5487
-0.229961
21.6989
-0.250214
21.8541
-0.270642
22.0139
-0.291238
22.1778
-0.311996
22.3457
-0.332908
22.5171
-0.353967
22.6919
-0.375161
22.8699
-0.396483
23.0508
-0.417923
23.2345
-0.439469
23.421
-0.461112
23.6099
-0.482839
23.8013
-0.50464
23.9951
-0.526504
24.1911
-0.548417
24.3893
-0.570369
24.5896
-0.592346
24.7919
-0.614336
24.9962
-0.636327
25.2025
-0.658305
25.4106
-0.68026
25.6208
-0.70217
25.8319
-0.724049
26.0473
-0.745799
26.2569
-0.767673
26.4915
-0.788811
-0.8119
26.6561
47.7092
1.59904
-48.1549
47.2566
1.55457
46.7974
1.50966
46.3308
1.46435
45.8564
1.41866
45.3737
1.37264
44.8818
1.32631
44.3801
1.27971
43.8678
1.23287
43.3438
1.18582
42.8071
1.13861
42.2565
1.09126
41.6905
1.04382
41.1074
0.996307
40.5053
0.94877
39.8819
0.901242
39.2345
0.853755
38.5598
0.806345
37.8539
0.759044
37.1116
0.711881
36.3268
0.664883
35.4914
0.618072
34.5949
0.571462
33.623
0.525055
32.557
0.478836
31.3759
0.432803
30.0654
0.387052
28.635
0.34194
27.1337
0.298221
25.649
0.25695
24.2809
0.219126
23.1064
0.185265
22.1595
0.155251
21.4337
0.128497
20.8984
0.104237
20.5157
0.0817462
20.2505
0.0604439
20.074
0.0399033
19.9644
0.0198241
19.9056
0
19.886
-0.0197103
19.8971
-0.039404
19.9326
-0.0591486
19.9879
-0.0789906
20.0594
-0.098963
20.1446
-0.119088
20.2412
-0.139381
20.3477
-0.159853
20.4628
-0.180507
20.5853
-0.201348
20.7144
-0.222375
20.8495
-0.243586
20.9899
-0.264977
21.1351
-0.286544
21.2848
-0.30828
21.4384
-0.330178
21.5958
-0.352231
21.7567
-0.374429
21.9209
-0.396763
22.088
-0.419223
22.2581
-0.441799
22.4309
-0.464481
22.6063
-0.487256
22.7842
-0.510114
22.9644
-0.533043
23.1469
-0.55603
23.3316
-0.579064
23.5184
-0.602131
23.7073
-0.625218
23.8981
-0.648314
24.0909
-0.671404
24.2855
-0.694474
24.4819
-0.717514
24.6804
-0.740502
24.8798
-0.76345
25.0832
-0.786261
25.2812
-0.80919
25.5028
-0.831359
-0.855516
25.6588
45.8768
1.6746
-46.308
45.439
1.62793
44.9947
1.58081
44.5434
1.53327
44.0845
1.48534
43.6174
1.43706
43.1415
1.38846
42.6561
1.33957
42.1602
1.29044
41.653
1.24109
41.1334
1.19156
40.6001
1.1419
40.0517
1.09213
39.4866
1.0423
38.9028
0.992434
38.298
0.942575
37.6696
0.892756
37.0141
0.843012
36.3276
0.793376
35.605
0.743877
34.8399
0.69454
34.0243
0.645385
33.1471
0.596422
32.1942
0.547648
31.1472
0.499049
29.9879
0.450645
28.7084
0.402601
27.3269
0.355398
25.8996
0.309913
24.5125
0.267252
23.2548
0.228339
22.1884
0.19355
21.3351
0.162635
20.683
0.134937
20.2018
0.109674
19.8566
0.0861329
19.6163
0.06375
19.4554
0.0421122
19.3548
0.0209293
19.3004
0
19.2819
-0.0208146
19.2915
-0.0416106
19.3237
-0.0624552
19.3744
-0.0833956
19.4403
-0.104465
19.5189
-0.125685
19.6085
-0.147073
19.7073
-0.168638
19.8143
-0.190387
19.9284
-0.212321
20.0489
-0.234441
20.175
-0.256745
20.3062
-0.279229
20.442
-0.301888
20.5821
-0.324715
20.7261
-0.347704
20.8737
-0.370846
21.0247
-0.394132
21.1788
-0.417553
21.3359
-0.441098
21.4957
-0.464757
21.6582
-0.488518
21.8232
-0.51237
21.9906
-0.536301
22.1603
-0.560299
22.3322
-0.584352
22.5062
-0.608445
22.6823
-0.632567
22.8604
-0.656705
23.0404
-0.680843
23.2222
-0.70497
23.4059
-0.72907
23.5913
-0.753132
23.7786
-0.777134
23.9669
-0.801089
24.159
-0.824895
24.3461
-0.848814
24.5553
-0.871952
-0.897103
24.7032
44.1115
1.74593
-44.5286
43.6881
1.69718
43.2583
1.64796
42.8218
1.5983
42.3778
1.54824
41.9259
1.49781
41.4655
1.44705
40.9957
1.396
40.5158
1.34468
40.0248
1.29315
39.5216
1.24143
39.005
1.18956
38.4737
1.13759
37.9258
1.08554
37.3596
1.03346
36.7727
0.981382
36.1624
0.929341
35.5252
0.877374
34.8573
0.82551
34.1533
0.77378
33.407
0.722206
32.6098
0.670805
31.7509
0.619584
30.8157
0.568535
29.7871
0.517651
28.6505
0.466987
27.4045
0.416801
26.0759
0.367701
24.7255
0.320677
23.4358
0.276845
22.284
0.237025
21.3184
0.201437
20.5509
0.169712
19.9654
0.141136
19.5328
0.114922
19.2214
0.0903741
19.0035
0.0669497
18.8568
0.0442519
18.7645
0.0220004
18.7141
0
18.6964
-0.0218851
18.7047
-0.0437496
18.734
-0.0656603
18.7804
-0.0876644
18.8411
-0.109795
18.9137
-0.132075
18.9966
-0.15452
19.0884
-0.177141
19.1878
-0.199944
19.2941
-0.222931
19.4064
-0.246103
19.5241
-0.269457
19.6467
-0.29299
19.7738
-0.316696
19.9049
-0.340569
20.0398
-0.364602
20.1782
-0.388786
20.3199
-0.413111
20.4645
-0.437569
20.612
-0.462148
20.7623
-0.486837
20.9151
-0.511626
21.0703
-0.536501
21.2278
-0.561451
21.3876
-0.586464
21.5495
-0.611526
21.7135
-0.636623
21.8794
-0.661744
22.0473
-0.686873
22.217
-0.711997
22.3886
-0.737101
22.5619
-0.762172
22.7368
-0.787197
22.9137
-0.812153
23.0915
-0.837053
23.2728
-0.861795
23.4497
-0.886641
23.6471
-0.91069
-0.936767
23.7873
42.411
1.81319
-42.8144
42.0015
1.76247
41.5859
1.71125
41.1636
1.65958
40.7342
1.6075
40.297
1.55503
39.8515
1.50223
39.3968
1.44911
38.9323
1.39573
38.4569
1.34211
37.9695
1.28831
37.4691
1.23435
36.9541
1.18028
36.4228
1.12613
35.8735
1.07194
35.3037
1.01775
34.7106
0.96359
34.091
0.909502
33.4407
0.855512
32.7545
0.80165
32.0257
0.747935
31.246
0.694382
30.404
0.640992
29.4857
0.587755
28.4754
0.534681
27.3626
0.481879
26.1533
0.429713
24.8814
0.378926
23.6102
0.330594
22.4166
0.285801
21.3658
0.245237
20.4938
0.208964
19.8042
0.176506
19.2789
0.147108
18.89
0.119989
18.609
0.0944758
18.4113
0.0700475
18.2775
0.0463248
18.1927
0.0230386
18.1459
0
18.1292
-0.022923
18.1363
-0.0458235
18.1628
-0.0687673
18.2053
-0.0918016
18.2611
-0.114959
18.3282
-0.138263
18.4049
-0.16173
18.49
-0.185371
18.5825
-0.20919
18.6814
-0.233192
18.7861
-0.257376
18.8959
-0.281739
19.0105
-0.30628
19.1293
-0.330991
19.2521
-0.355866
19.3785
-0.380898
19.5082
-0.406078
19.6411
-0.431397
19.7769
-0.456844
19.9154
-0.482409
20.0566
-0.508081
20.2002
-0.533847
20.3462
-0.559695
20.4945
-0.585614
20.6449
-0.611589
20.7974
-0.637607
20.9519
-0.663656
21.1082
-0.689721
21.2665
-0.715787
21.4266
-0.741842
21.5884
-0.76787
21.7519
-0.793855
21.917
-0.819787
22.0839
-0.845641
22.2518
-0.871429
22.4231
-0.89705
22.5902
-0.922766
22.7766
-0.94767
-0.974609
22.9094
40.7731
1.87654
-41.1631
40.3771
1.82393
39.9751
1.77083
39.5666
1.71726
39.1512
1.66325
38.7283
1.60885
38.2971
1.5541
37.8571
1.49903
37.4074
1.44368
36.947
1.3881
36.475
1.33231
35.99
1.27636
35.4907
1.22029
34.9754
1.16414
34.4422
1.10795
33.8888
1.05175
33.3123
0.995575
32.7094
0.939464
32.0758
0.883446
31.4063
0.827544
30.6942
0.77178
29.9307
0.71616
29.1047
0.660684
28.2025
0.605347
27.2107
0.550182
26.1237
0.495375
24.9544
0.441409
23.7428
0.389156
22.5524
0.339743
21.4527
0.294188
20.4974
0.253025
19.7116
0.216164
19.0928
0.183038
18.6217
0.152869
18.272
0.124886
18.0183
0.0984443
17.8389
0.0730472
17.7167
0.0483332
17.6388
0.0240448
17.5954
0
17.5794
-0.0239293
17.5855
-0.0478341
17.6095
-0.0717793
17.6483
-0.0958113
17.6997
-0.119963
17.7616
-0.144258
17.8326
-0.168713
17.9116
-0.193337
17.9975
-0.218138
18.0895
-0.243117
18.1871
-0.268275
18.2896
-0.29361
18.3966
-0.319118
18.5078
-0.344794
18.6227
-0.37063
18.741
-0.396619
18.8626
-0.422753
18.9873
-0.449021
19.1147
-0.475413
19.2448
-0.501918
19.3775
-0.528526
19.5125
-0.555222
19.6498
-0.581996
19.7893
-0.608834
19.9309
-0.635723
20.0745
-0.662649
20.22
-0.689598
20.3674
-0.716557
20.5166
-0.74351
20.6675
-0.770443
20.8201
-0.797342
20.9744
-0.824191
21.1302
-0.850976
21.2878
-0.877675
21.4463
-0.904298
21.608
-0.930744
21.7659
-0.957276
21.9418
-0.982983
-1.01072
22.0678
39.1955
1.9361
-39.5726
38.8125
1.88172
38.4237
1.82682
38.0287
1.77144
37.6268
1.71562
37.2176
1.65939
36.8004
1.60279
36.3745
1.54587
35.939
1.48866
35.4931
1.4312
35.0358
1.37353
34.5657
1.31569
34.0815
1.25773
33.5815
1.19968
33.0638
1.14158
32.5259
1.08346
31.9652
1.02537
31.3782
0.967326
30.7605
0.909369
30.1068
0.851517
29.4103
0.793786
28.6621
0.736182
27.8511
0.678701
26.9646
0.621347
25.9921
0.5642
24.9333
0.507534
23.8076
0.451965
22.6593
0.398475
21.5502
0.348206
20.5416
0.302069
19.676
0.260433
18.9692
0.223066
18.4145
0.189328
17.992
0.158429
17.6776
0.12962
17.4484
0.102285
17.2855
0.0759525
17.1738
0.0502795
17.1022
0.0250201
17.0619
0
17.0467
-0.024905
17.0518
-0.0497836
17.0735
-0.0746993
17.109
-0.0996981
17.1562
-0.124813
17.2133
-0.150067
17.279
-0.175476
17.3522
-0.20105
17.4321
-0.226797
17.5177
-0.252719
17.6086
-0.278815
17.7043
-0.305085
17.8043
-0.331523
17.9082
-0.358124
18.0157
-0.384882
18.1265
-0.411789
18.2405
-0.438835
18.3574
-0.466011
18.477
-0.493306
18.5992
-0.520709
18.7238
-0.548208
18.8508
-0.575791
18.9799
-0.603445
19.1112
-0.631157
19.2444
-0.658913
19.3796
-0.6867
19.5167
-0.714503
19.6556
-0.742308
19.7962
-0.770099
19.9385
-0.797863
20.0825
-0.825584
20.228
-0.853245
20.375
-0.880834
20.5237
-0.908328
20.6734
-0.935736
20.8261
-0.962958
20.9752
-0.990253
21.1413
-1.01671
-1.0452
21.2607
37.676
1.99202
-38.0406
37.3057
1.93596
36.9297
1.87936
36.5476
1.82227
36.1588
1.76472
35.7628
1.70676
35.359
1.64841
34.9467
1.58973
34.5251
1.53075
34.0931
1.47152
33.6499
1.41206
33.1941
1.35244
32.7244
1.29267
32.239
1.23281
31.7361
1.1729
31.2132
1.11296
30.6675
1.05303
30.0954
0.993148
29.4928
0.933336
28.854
0.873616
28.1721
0.813998
27.4382
0.754485
26.6415
0.695076
25.7707
0.635796
24.8188
0.576784
23.7909
0.518424
22.7124
0.461465
21.63
0.406973
20.602
0.35606
19.6808
0.309503
18.8986
0.267502
18.2641
0.229697
17.7673
0.195393
17.3884
0.163801
17.1055
0.1342
16.8984
0.106003
16.7503
0.0787668
16.6483
0.0521655
16.5823
0.0259656
16.5449
0
16.5304
-0.0258511
16.5346
-0.0516737
16.5542
-0.0775303
16.5866
-0.103466
16.63
-0.129513
16.6827
-0.155694
16.7435
-0.182026
16.8114
-0.208519
16.8855
-0.235179
16.9652
-0.26201
17.0499
-0.28901
17.1391
-0.316179
17.2325
-0.343511
17.3296
-0.371002
17.4302
-0.398645
17.534
-0.42643
17.6408
-0.45435
17.7504
-0.482394
17.8627
-0.510552
17.9774
-0.538812
18.0945
-0.567161
18.2138
-0.595589
18.3353
-0.624081
18.4588
-0.652624
18.5842
-0.681204
18.7115
-0.709807
18.8406
-0.73842
18.9715
-0.767025
19.104
-0.79561
19.2382
-0.824158
19.374
-0.852654
19.5113
-0.881083
19.65
-0.909429
19.7904
-0.937671
19.9317
-0.965817
20.0758
-0.993766
20.2167
-1.02178
20.3735
-1.04895
-1.07812
20.4867
36.2127
2.04443
-36.5652
35.8546
1.98677
35.4909
1.92857
35.1213
1.86986
34.7452
1.81068
34.362
1.75107
33.9711
1.69107
33.5719
1.63072
33.1635
1.57007
32.7449
1.50915
32.3153
1.448
31.8732
1.38667
31.4173
1.3252
30.946
1.26362
30.4572
1.20198
29.9485
1.1403
29.4171
1.07863
28.8593
1.01698
28.2708
0.955398
27.646
0.893886
26.9778
0.832455
26.2573
0.771107
25.4744
0.709847
24.6197
0.648737
23.6902
0.587993
22.6963
0.528124
21.6684
0.47
20.6538
0.414737
19.7057
0.36338
18.8675
0.316546
18.1627
0.274267
17.5939
0.236078
17.1491
0.201247
16.8093
0.168994
16.5547
0.138631
16.3674
0.109604
16.2327
0.0814935
16.1394
0.0539934
16.0786
0.0268823
16.0438
0
16.03
-0.0267685
16.0334
-0.0535067
16.0511
-0.0802753
16.0807
-0.107118
16.1205
-0.134068
16.1691
-0.161147
16.2253
-0.188372
16.2883
-0.215752
16.3571
-0.243294
16.4313
-0.271001
16.5102
-0.298873
16.5934
-0.326907
16.6806
-0.3551
16.7713
-0.383446
16.8654
-0.411937
16.9626
-0.440566
17.0627
-0.469323
17.1655
-0.498198
17.2708
-0.52718
17.3786
-0.556258
17.4886
-0.58542
17.6007
-0.614652
17.7149
-0.643941
17.8311
-0.673275
17.9491
-0.702638
18.069
-0.732016
18.1906
-0.761395
18.3139
-0.79076
18.4388
-0.820094
18.5653
-0.849384
18.6934
-0.878613
18.8229
-0.907764
18.9538
-0.936824
19.0863
-0.965769
19.2197
-0.994608
19.3558
-1.02324
19.4889
-1.05192
19.6368
-1.07976
-1.10957
19.7441
34.8034
2.09345
-35.1442
34.4571
2.03429
34.1054
1.97457
33.7478
1.91432
33.3839
1.8536
33.013
1.79243
32.6346
1.73087
32.248
1.66894
31.8523
1.6067
31.4466
1.54418
31.03
1.48143