/*--------------------------------*- C++ -*----------------------------------*\
| =========                 |                                                 |
| \\      /  F ield         | OpenFOAM: The Open Source CFD Toolbox           |
|  \\    /   O peration     | Version:  2312                                  |
|   \\  /    A nd           | Website:  www.openfoam.com                      |
|    \\/     M anipulation  |                                                 |
\*---------------------------------------------------------------------------*/
FoamFile
{
    version     2.0;
    format      ascii;
    arch        "LSB;label=32;scalar=64";
    class       volVectorField;
    location    "0.324";
    object      U;
}
// * * * * * * * * * * * * * * * * * * * * * * * * * * * * * * * * * * * * * //

dimensions      [0 1 -1 0 0 0 0];

internalField   nonuniform List<vector> 
31205
(
(262.852 0 0)
(264.515 0 0)
(266.13 0 0)
(267.696 0 0)
(269.215 0 0)
(270.69 0 0)
(272.12 0 0)
(273.507 0 0)
(274.852 0 0)
(276.156 0 0)
(277.42 0 0)
(278.644 0 0)
(279.83 0 0)
(280.977 0 0)
(282.088 0 0)
(283.161 0 0)
(284.198 0 0)
(285.2 0 0)
(286.166 0 0)
(287.097 0 0)
(287.993 0 0)
(288.855 0 0)
(289.684 0 0)
(290.479 0 0)
(291.24 0 0)
(291.968 0 0)
(292.663 0 0)
(293.325 0 0)
(293.953 0 0)
(294.55 0 0)
(295.113 0 0)
(295.644 0 0)
(296.141 0 0)
(296.606 0 0)
(297.038 0 0)
(297.437 0 0)
(297.802 0 0)
(298.134 0 0)
(298.432 0 0)
(298.696 0 0)
(298.926 0 0)
(299.121 0 0)
(299.28 0 0)
(299.404 0 0)
(299.492 0 0)
(299.544 0 0)
(299.558 0 0)
(299.534 0 0)
(299.471 0 0)
(299.369 0 0)
(299.227 0 0)
(299.043 0 0)
(298.816 0 0)
(298.546 0 0)
(298.231 0 0)
(297.87 0 0)
(297.461 0 0)
(297.002 0 0)
(296.491 0 0)
(295.927 0 0)
(295.307 0 0)
(294.629 0 0)
(293.889 0 0)
(293.084 0 0)
(292.211 0 0)
(291.266 0 0)
(290.243 0 0)
(289.139 0 0)
(287.945 0 0)
(286.649 0 0)
(285.245 0 0)
(283.755 0 0)
(282.188 0 0)
(280.367 0 0)
(277.91 0 0)
(275.658 0 0)
(274.399 0 0)
(281.804 0 0)
(256.296 0 0)
(264.364 0 0)
(265.94 0 0)
(267.471 0 0)
(268.958 0 0)
(270.401 0 0)
(271.803 0 0)
(273.164 0 0)
(274.485 0 0)
(275.766 0 0)
(277.01 0 0)
(278.216 0 0)
(279.385 0 0)
(280.517 0 0)
(281.614 0 0)
(282.676 0 0)
(283.704 0 0)
(284.697 0 0)
(285.657 0 0)
(286.583 0 0)
(287.476 0 0)
(288.337 0 0)
(289.165 0 0)
(289.961 0 0)
(290.725 0 0)
(291.458 0 0)
(292.159 0 0)
(292.828 0 0)
(293.466 0 0)
(294.074 0 0)
(294.649 0 0)
(295.194 0 0)
(295.708 0 0)
(296.19 0 0)
(296.641 0 0)
(297.061 0 0)
(297.449 0 0)
(297.805 0 0)
(298.13 0 0)
(298.423 0 0)
(298.683 0 0)
(298.911 0 0)
(299.105 0 0)
(299.266 0 0)
(299.394 0 0)
(299.487 0 0)
(299.546 0 0)
(299.569 0 0)
(299.557 0 0)
(299.508 0 0)
(299.421 0 0)
(299.297 0 0)
(299.133 0 0)
(298.93 0 0)
(298.686 0 0)
(298.399 0 0)
(298.07 0 0)
(297.695 0 0)
(297.275 0 0)
(296.806 0 0)
(296.288 0 0)
(295.719 0 0)
(295.095 0 0)
(294.416 0 0)
(293.677 0 0)
(292.876 0 0)
(292.009 0 0)
(291.073 0 0)
(290.062 0 0)
(288.974 0 0)
(287.8 0 0)
(286.529 0 0)
(285.154 0 0)
(283.688 0 0)
(282.183 0 0)
(280.337 0 0)
(278.478 0 0)
(274.35 0 0)
(278.289 0 0)
(272.036 0 0)
(265.864 0 0)
(267.356 0 0)
(268.806 0 0)
(270.216 0 0)
(271.586 0 0)
(272.917 0 0)
(274.21 0 0)
(275.466 0 0)
(276.686 0 0)
(277.87 0 0)
(279.019 0 0)
(280.134 0 0)
(281.215 0 0)
(282.262 0 0)
(283.276 0 0)
(284.258 0 0)
(285.208 0 0)
(286.127 0 0)
(287.013 0 0)
(287.869 0 0)
(288.694 0 0)
(289.488 0 0)
(290.252 0 0)
(290.986 0 0)
(291.69 0 0)
(292.364 0 0)
(293.008 0 0)
(293.623 0 0)
(294.207 0 0)
(294.763 0 0)
(295.288 0 0)
(295.784 0 0)
(296.251 0 0)
(296.688 0 0)
(297.094 0 0)
(297.471 0 0)
(297.818 0 0)
(298.135 0 0)
(298.421 0 0)
(298.676 0 0)
(298.901 0 0)
(299.094 0 0)
(299.255 0 0)
(299.385 0 0)
(299.482 0 0)
(299.546 0 0)
(299.577 0 0)
(299.574 0 0)
(299.536 0 0)
(299.463 0 0)
(299.354 0 0)
(299.208 0 0)
(299.025 0 0)
(298.804 0 0)
(298.543 0 0)
(298.241 0 0)
(297.898 0 0)
(297.511 0 0)
(297.081 0 0)
(296.604 0 0)
(296.079 0 0)
(295.504 0 0)
(294.878 0 0)
(294.197 0 0)
(293.46 0 0)
(292.663 0 0)
(291.802 0 0)
(290.875 0 0)
(289.877 0 0)
(288.804 0 0)
(287.65 0 0)
(286.406 0 0)
(285.048 0 0)
(283.653 0 0)
(282.012 0 0)
(280.803 0 0)
(277.556 0 0)
(276.735 0 0)
(274.76 0 0)
(267.314 0 0)
(268.726 0 0)
(270.1 0 0)
(271.436 0 0)
(272.736 0 0)
(274 0 0)
(275.229 0 0)
(276.423 0 0)
(277.584 0 0)
(278.711 0 0)
(279.806 0 0)
(280.869 0 0)
(281.9 0 0)
(282.9 0 0)
(283.868 0 0)
(284.807 0 0)
(285.715 0 0)
(286.593 0 0)
(287.442 0 0)
(288.261 0 0)
(289.052 0 0)
(289.813 0 0)
(290.546 0 0)
(291.25 0 0)
(291.926 0 0)
(292.574 0 0)
(293.193 0 0)
(293.784 0 0)
(294.347 0 0)
(294.882 0 0)
(295.389 0 0)
(295.868 0 0)
(296.318 0 0)
(296.741 0 0)
(297.135 0 0)
(297.5 0 0)
(297.837 0 0)
(298.145 0 0)
(298.424 0 0)
(298.674 0 0)
(298.895 0 0)
(299.086 0 0)
(299.247 0 0)
(299.377 0 0)
(299.477 0 0)
(299.545 0 0)
(299.582 0 0)
(299.587 0 0)
(299.559 0 0)
(299.497 0 0)
(299.402 0 0)
(299.272 0 0)
(299.107 0 0)
(298.906 0 0)
(298.668 0 0)
(298.391 0 0)
(298.076 0 0)
(297.72 0 0)
(297.323 0 0)
(296.883 0 0)
(296.398 0 0)
(295.867 0 0)
(295.289 0 0)
(294.66 0 0)
(293.98 0 0)
(293.245 0 0)
(292.452 0 0)
(291.599 0 0)
(290.681 0 0)
(289.696 0 0)
(288.638 0 0)
(287.508 0 0)
(286.273 0 0)
(284.997 0 0)
(283.472 0 0)
(282.253 0 0)
(280.331 0 0)
(278.437 0 0)
(276.137 0 0)
(268.695 0 0)
(270.033 0 0)
(271.335 0 0)
(272.603 0 0)
(273.837 0 0)
(275.038 0 0)
(276.206 0 0)
(277.342 0 0)
(278.447 0 0)
(279.521 0 0)
(280.564 0 0)
(281.578 0 0)
(282.561 0 0)
(283.516 0 0)
(284.441 0 0)
(285.338 0 0)
(286.206 0 0)
(287.046 0 0)
(287.859 0 0)
(288.644 0 0)
(289.401 0 0)
(290.131 0 0)
(290.834 0 0)
(291.51 0 0)
(292.159 0 0)
(292.781 0 0)
(293.376 0 0)
(293.945 0 0)
(294.487 0 0)
(295.002 0 0)
(295.491 0 0)
(295.953 0 0)
(296.388 0 0)
(296.796 0 0)
(297.177 0 0)
(297.532 0 0)
(297.859 0 0)
(298.158 0 0)
(298.431 0 0)
(298.675 0 0)
(298.891 0 0)
(299.08 0 0)
(299.239 0 0)
(299.37 0 0)
(299.472 0 0)
(299.544 0 0)
(299.586 0 0)
(299.597 0 0)
(299.578 0 0)
(299.527 0 0)
(299.444 0 0)
(299.329 0 0)
(299.18 0 0)
(298.997 0 0)
(298.779 0 0)
(298.526 0 0)
(298.236 0 0)
(297.908 0 0)
(297.541 0 0)
(297.135 0 0)
(296.687 0 0)
(296.196 0 0)
(295.661 0 0)
(295.08 0 0)
(294.451 0 0)
(293.772 0 0)
(293.041 0 0)
(292.254 0 0)
(291.409 0 0)
(290.503 0 0)
(289.531 0 0)
(288.495 0 0)
(287.37 0 0)
(286.203 0 0)
(284.862 0 0)
(283.544 0 0)
(282.087 0 0)
(280.592 0 0)
(278.129 0 0)
(270.005 0 0)
(271.273 0 0)
(272.508 0 0)
(273.712 0 0)
(274.884 0 0)
(276.025 0 0)
(277.137 0 0)
(278.218 0 0)
(279.27 0 0)
(280.294 0 0)
(281.288 0 0)
(282.255 0 0)
(283.194 0 0)
(284.106 0 0)
(284.99 0 0)
(285.847 0 0)
(286.678 0 0)
(287.482 0 0)
(288.26 0 0)
(289.012 0 0)
(289.737 0 0)
(290.437 0 0)
(291.112 0 0)
(291.761 0 0)
(292.384 0 0)
(292.982 0 0)
(293.554 0 0)
(294.101 0 0)
(294.623 0 0)
(295.119 0 0)
(295.591 0 0)
(296.036 0 0)
(296.456 0 0)
(296.851 0 0)
(297.22 0 0)
(297.563 0 0)
(297.881 0 0)
(298.172 0 0)
(298.438 0 0)
(298.676 0 0)
(298.889 0 0)
(299.074 0 0)
(299.232 0 0)
(299.363 0 0)
(299.466 0 0)
(299.542 0 0)
(299.588 0 0)
(299.606 0 0)
(299.595 0 0)
(299.553 0 0)
(299.482 0 0)
(299.379 0 0)
(299.245 0 0)
(299.08 0 0)
(298.881 0 0)
(298.648 0 0)
(298.382 0 0)
(298.08 0 0)
(297.741 0 0)
(297.366 0 0)
(296.952 0 0)
(296.498 0 0)
(296.003 0 0)
(295.465 0 0)
(294.883 0 0)
(294.255 0 0)
(293.579 0 0)
(292.853 0 0)
(292.074 0 0)
(291.239 0 0)
(290.345 0 0)
(289.392 0 0)
(288.365 0 0)
(287.284 0 0)
(286.106 0 0)
(284.856 0 0)
(283.476 0 0)
(282.278 0 0)
(280.099 0 0)
(271.244 0 0)
(272.447 0 0)
(273.62 0 0)
(274.763 0 0)
(275.877 0 0)
(276.963 0 0)
(278.021 0 0)
(279.051 0 0)
(280.053 0 0)
(281.029 0 0)
(281.978 0 0)
(282.901 0 0)
(283.797 0 0)
(284.668 0 0)
(285.514 0 0)
(286.334 0 0)
(287.128 0 0)
(287.898 0 0)
(288.643 0 0)
(289.364 0 0)
(290.06 0 0)
(290.731 0 0)
(291.379 0 0)
(292.001 0 0)
(292.6 0 0)
(293.175 0 0)
(293.726 0 0)
(294.252 0 0)
(294.755 0 0)
(295.233 0 0)
(295.687 0 0)
(296.117 0 0)
(296.523 0 0)
(296.905 0 0)
(297.262 0 0)
(297.595 0 0)
(297.903 0 0)
(298.187 0 0)
(298.445 0 0)
(298.678 0 0)
(298.886 0 0)
(299.069 0 0)
(299.226 0 0)
(299.357 0 0)
(299.461 0 0)
(299.539 0 0)
(299.59 0 0)
(299.613 0 0)
(299.609 0 0)
(299.576 0 0)
(299.515 0 0)
(299.425 0 0)
(299.305 0 0)
(299.154 0 0)
(298.973 0 0)
(298.76 0 0)
(298.515 0 0)
(298.237 0 0)
(297.925 0 0)
(297.578 0 0)
(297.195 0 0)
(296.775 0 0)
(296.317 0 0)
(295.819 0 0)
(295.28 0 0)
(294.699 0 0)
(294.074 0 0)
(293.403 0 0)
(292.683 0 0)
(291.914 0 0)
(291.09 0 0)
(290.212 0 0)
(289.272 0 0)
(288.273 0 0)
(287.203 0 0)
(286.08 0 0)
(284.789 0 0)
(283.688 0 0)
(281.78 0 0)
(272.416 0 0)
(273.558 0 0)
(274.672 0 0)
(275.759 0 0)
(276.819 0 0)
(277.852 0 0)
(278.86 0 0)
(279.841 0 0)
(280.797 0 0)
(281.728 0 0)
(282.634 0 0)
(283.515 0 0)
(284.372 0 0)
(285.204 0 0)
(286.013 0 0)
(286.797 0 0)
(287.558 0 0)
(288.296 0 0)
(289.01 0 0)
(289.7 0 0)
(290.368 0 0)
(291.012 0 0)
(291.634 0 0)
(292.232 0 0)
(292.808 0 0)
(293.36 0 0)
(293.89 0 0)
(294.397 0 0)
(294.881 0 0)
(295.342 0 0)
(295.78 0 0)
(296.196 0 0)
(296.588 0 0)
(296.957 0 0)
(297.303 0 0)
(297.626 0 0)
(297.925 0 0)
(298.2 0 0)
(298.452 0 0)
(298.68 0 0)
(298.884 0 0)
(299.064 0 0)
(299.219 0 0)
(299.35 0 0)
(299.455 0 0)
(299.535 0 0)
(299.59 0 0)
(299.618 0 0)
(299.62 0 0)
(299.596 0 0)
(299.544 0 0)
(299.465 0 0)
(299.358 0 0)
(299.222 0 0)
(299.057 0 0)
(298.863 0 0)
(298.638 0 0)
(298.382 0 0)
(298.094 0 0)
(297.773 0 0)
(297.419 0 0)
(297.03 0 0)
(296.606 0 0)
(296.145 0 0)
(295.647 0 0)
(295.109 0 0)
(294.53 0 0)
(293.909 0 0)
(293.244 0 0)
(292.533 0 0)
(291.774 0 0)
(290.964 0 0)
(290.101 0 0)
(289.183 0 0)
(288.197 0 0)
(287.178 0 0)
(286.006 0 0)
(284.983 0 0)
(283.261 0 0)
(273.525 0 0)
(274.61 0 0)
(275.669 0 0)
(276.703 0 0)
(277.712 0 0)
(278.696 0 0)
(279.656 0 0)
(280.592 0 0)
(281.504 0 0)
(282.392 0 0)
(283.257 0 0)
(284.099 0 0)
(284.918 0 0)
(285.714 0 0)
(286.488 0 0)
(287.239 0 0)
(287.968 0 0)
(288.675 0 0)
(289.359 0 0)
(290.022 0 0)
(290.662 0 0)
(291.281 0 0)
(291.878 0 0)
(292.453 0 0)
(293.006 0 0)
(293.538 0 0)
(294.048 0 0)
(294.536 0 0)
(295.002 0 0)
(295.447 0 0)
(295.87 0 0)
(296.271 0 0)
(296.65 0 0)
(297.007 0 0)
(297.342 0 0)
(297.655 0 0)
(297.946 0 0)
(298.214 0 0)
(298.459 0 0)
(298.682 0 0)
(298.882 0 0)
(299.059 0 0)
(299.213 0 0)
(299.343 0 0)
(299.449 0 0)
(299.531 0 0)
(299.589 0 0)
(299.622 0 0)
(299.63 0 0)
(299.613 0 0)
(299.571 0 0)
(299.502 0 0)
(299.406 0 0)
(299.284 0 0)
(299.134 0 0)
(298.957 0 0)
(298.75 0 0)
(298.515 0 0)
(298.249 0 0)
(297.953 0 0)
(297.626 0 0)
(297.266 0 0)
(296.873 0 0)
(296.446 0 0)
(295.984 0 0)
(295.486 0 0)
(294.95 0 0)
(294.376 0 0)
(293.76 0 0)
(293.103 0 0)
(292.402 0 0)
(291.655 0 0)
(290.859 0 0)
(290.016 0 0)
(289.11 0 0)
(288.172 0 0)
(287.107 0 0)
(286.171 0 0)
(284.605 0 0)
(274.575 0 0)
(275.607 0 0)
(276.614 0 0)
(277.598 0 0)
(278.559 0 0)
(279.497 0 0)
(280.412 0 0)
(281.305 0 0)
(282.176 0 0)
(283.024 0 0)
(283.851 0 0)
(284.655 0 0)
(285.439 0 0)
(286.2 0 0)
(286.941 0 0)
(287.66 0 0)
(288.359 0 0)
(289.036 0 0)
(289.693 0 0)
(290.328 0 0)
(290.943 0 0)
(291.537 0 0)
(292.111 0 0)
(292.664 0 0)
(293.196 0 0)
(293.708 0 0)
(294.199 0 0)
(294.669 0 0)
(295.119 0 0)
(295.548 0 0)
(295.956 0 0)
(296.343 0 0)
(296.71 0 0)
(297.056 0 0)
(297.38 0 0)
(297.684 0 0)
(297.966 0 0)
(298.227 0 0)
(298.466 0 0)
(298.684 0 0)
(298.88 0 0)
(299.054 0 0)
(299.206 0 0)
(299.335 0 0)
(299.442 0 0)
(299.526 0 0)
(299.587 0 0)
(299.624 0 0)
(299.638 0 0)
(299.628 0 0)
(299.593 0 0)
(299.534 0 0)
(299.45 0 0)
(299.34 0 0)
(299.204 0 0)
(299.042 0 0)
(298.853 0 0)
(298.637 0 0)
(298.392 0 0)
(298.119 0 0)
(297.816 0 0)
(297.483 0 0)
(297.12 0 0)
(296.724 0 0)
(296.296 0 0)
(295.835 0 0)
(295.338 0 0)
(294.806 0 0)
(294.236 0 0)
(293.628 0 0)
(292.98 0 0)
(292.29 0 0)
(291.556 0 0)
(290.778 0 0)
(289.946 0 0)
(289.083 0 0)
(288.107 0 0)
(287.25 0 0)
(285.826 0 0)
(275.571 0 0)
(276.552 0 0)
(277.511 0 0)
(278.448 0 0)
(279.364 0 0)
(280.258 0 0)
(281.131 0 0)
(281.983 0 0)
(282.814 0 0)
(283.625 0 0)
(284.415 0 0)
(285.185 0 0)
(285.934 0 0)
(286.664 0 0)
(287.373 0 0)
(288.062 0 0)
(288.732 0 0)
(289.381 0 0)
(290.011 0 0)
(290.621 0 0)
(291.212 0 0)
(291.783 0 0)
(292.334 0 0)
(292.866 0 0)
(293.378 0 0)
(293.87 0 0)
(294.343 0 0)
(294.796 0 0)
(295.23 0 0)
(295.644 0 0)
(296.038 0 0)
(296.413 0 0)
(296.767 0 0)
(297.102 0 0)
(297.417 0 0)
(297.711 0 0)
(297.985 0 0)
(298.239 0 0)
(298.473 0 0)
(298.686 0 0)
(298.878 0 0)
(299.049 0 0)
(299.199 0 0)
(299.328 0 0)
(299.435 0 0)
(299.52 0 0)
(299.584 0 0)
(299.625 0 0)
(299.644 0 0)
(299.64 0 0)
(299.613 0 0)
(299.563 0 0)
(299.489 0 0)
(299.391 0 0)
(299.268 0 0)
(299.121 0 0)
(298.948 0 0)
(298.749 0 0)
(298.524 0 0)
(298.271 0 0)
(297.992 0 0)
(297.684 0 0)
(297.347 0 0)
(296.981 0 0)
(296.584 0 0)
(296.156 0 0)
(295.696 0 0)
(295.203 0 0)
(294.675 0 0)
(294.112 0 0)
(293.512 0 0)
(292.875 0 0)
(292.196 0 0)
(291.479 0 0)
(290.711 0 0)
(289.918 0 0)
(289.021 0 0)
(288.233 0 0)
(286.935 0 0)
(276.514 0 0)
(277.448 0 0)
(278.362 0 0)
(279.255 0 0)
(280.128 0 0)
(280.981 0 0)
(281.814 0 0)
(282.628 0 0)
(283.422 0 0)
(284.197 0 0)
(284.953 0 0)
(285.689 0 0)
(286.406 0 0)
(287.105 0 0)
(287.784 0 0)
(288.445 0 0)
(289.087 0 0)
(289.71 0 0)
(290.315 0 0)
(290.901 0 0)
(291.468 0 0)
(292.017 0 0)
(292.547 0 0)
(293.059 0 0)
(293.552 0 0)
(294.026 0 0)
(294.482 0 0)
(294.919 0 0)
(295.337 0 0)
(295.737 0 0)
(296.118 0 0)
(296.48 0 0)
(296.823 0 0)
(297.147 0 0)
(297.452 0 0)
(297.738 0 0)
(298.004 0 0)
(298.251 0 0)
(298.479 0 0)
(298.687 0 0)
(298.875 0 0)
(299.044 0 0)
(299.192 0 0)
(299.32 0 0)
(299.428 0 0)
(299.514 0 0)
(299.58 0 0)
(299.625 0 0)
(299.649 0 0)
(299.651 0 0)
(299.631 0 0)
(299.589 0 0)
(299.524 0 0)
(299.437 0 0)
(299.326 0 0)
(299.192 0 0)
(299.034 0 0)
(298.852 0 0)
(298.644 0 0)
(298.412 0 0)
(298.153 0 0)
(297.869 0 0)
(297.557 0 0)
(297.218 0 0)
(296.85 0 0)
(296.453 0 0)
(296.026 0 0)
(295.569 0 0)
(295.08 0 0)
(294.558 0 0)
(294.003 0 0)
(293.413 0 0)
(292.786 0 0)
(292.123 0 0)
(291.415 0 0)
(290.683 0 0)
(289.858 0 0)
(289.133 0 0)
(287.945 0 0)
(277.41 0 0)
(278.299 0 0)
(279.17 0 0)
(280.021 0 0)
(280.854 0 0)
(281.668 0 0)
(282.464 0 0)
(283.241 0 0)
(284 0 0)
(284.742 0 0)
(285.464 0 0)
(286.169 0 0)
(286.857 0 0)
(287.526 0 0)
(288.177 0 0)
(288.811 0 0)
(289.427 0 0)
(290.025 0 0)
(290.605 0 0)
(291.168 0 0)
(291.714 0 0)
(292.241 0 0)
(292.751 0 0)
(293.244 0 0)
(293.718 0 0)
(294.175 0 0)
(294.615 0 0)
(295.036 0 0)
(295.44 0 0)
(295.826 0 0)
(296.194 0 0)
(296.544 0 0)
(296.876 0 0)
(297.19 0 0)
(297.486 0 0)
(297.763 0 0)
(298.022 0 0)
(298.263 0 0)
(298.485 0 0)
(298.689 0 0)
(298.873 0 0)
(299.039 0 0)
(299.185 0 0)
(299.312 0 0)
(299.42 0 0)
(299.508 0 0)
(299.576 0 0)
(299.624 0 0)
(299.652 0 0)
(299.659 0 0)
(299.646 0 0)
(299.611 0 0)
(299.555 0 0)
(299.478 0 0)
(299.379 0 0)
(299.257 0 0)
(299.113 0 0)
(298.946 0 0)
(298.755 0 0)
(298.541 0 0)
(298.302 0 0)
(298.039 0 0)
(297.75 0 0)
(297.436 0 0)
(297.095 0 0)
(296.727 0 0)
(296.332 0 0)
(295.907 0 0)
(295.454 0 0)
(294.97 0 0)
(294.456 0 0)
(293.909 0 0)
(293.328 0 0)
(292.715 0 0)
(292.061 0 0)
(291.386 0 0)
(290.626 0 0)
(289.957 0 0)
(288.868 0 0)
(278.259 0 0)
(279.107 0 0)
(279.937 0 0)
(280.749 0 0)
(281.544 0 0)
(282.322 0 0)
(283.082 0 0)
(283.825 0 0)
(284.551 0 0)
(285.26 0 0)
(285.952 0 0)
(286.627 0 0)
(287.286 0 0)
(287.927 0 0)
(288.552 0 0)
(289.16 0 0)
(289.751 0 0)
(290.325 0 0)
(290.883 0 0)
(291.424 0 0)
(291.948 0 0)
(292.456 0 0)
(292.947 0 0)
(293.421 0 0)
(293.878 0 0)
(294.318 0 0)
(294.742 0 0)
(295.149 0 0)
(295.538 0 0)
(295.911 0 0)
(296.267 0 0)
(296.606 0 0)
(296.927 0 0)
(297.232 0 0)
(297.519 0 0)
(297.788 0 0)
(298.04 0 0)
(298.274 0 0)
(298.491 0 0)
(298.69 0 0)
(298.871 0 0)
(299.034 0 0)
(299.178 0 0)
(299.304 0 0)
(299.412 0 0)
(299.501 0 0)
(299.571 0 0)
(299.622 0 0)
(299.653 0 0)
(299.666 0 0)
(299.658 0 0)
(299.631 0 0)
(299.583 0 0)
(299.515 0 0)
(299.426 0 0)
(299.316 0 0)
(299.185 0 0)
(299.032 0 0)
(298.857 0 0)
(298.66 0 0)
(298.439 0 0)
(298.196 0 0)
(297.929 0 0)
(297.638 0 0)
(297.322 0 0)
(296.98 0 0)
(296.613 0 0)
(296.22 0 0)
(295.799 0 0)
(295.351 0 0)
(294.873 0 0)
(294.367 0 0)
(293.829 0 0)
(293.261 0 0)
(292.656 0 0)
(292.032 0 0)
(291.331 0 0)
(290.713 0 0)
(289.714 0 0)
(279.066 0 0)
(279.875 0 0)
(280.666 0 0)
(281.442 0 0)
(282.201 0 0)
(282.944 0 0)
(283.67 0 0)
(284.381 0 0)
(285.076 0 0)
(285.754 0 0)
(286.417 0 0)
(287.064 0 0)
(287.695 0 0)
(288.31 0 0)
(288.909 0 0)
(289.493 0 0)
(290.06 0 0)
(290.612 0 0)
(291.148 0 0)
(291.668 0 0)
(292.173 0 0)
(292.661 0 0)
(293.134 0 0)
(293.59 0 0)
(294.031 0 0)
(294.455 0 0)
(294.864 0 0)
(295.257 0 0)
(295.633 0 0)
(295.993 0 0)
(296.338 0 0)
(296.665 0 0)
(296.977 0 0)
(297.272 0 0)
(297.55 0 0)
(297.812 0 0)
(298.057 0 0)
(298.285 0 0)
(298.497 0 0)
(298.691 0 0)
(298.869 0 0)
(299.029 0 0)
(299.171 0 0)
(299.296 0 0)
(299.404 0 0)
(299.493 0 0)
(299.565 0 0)
(299.619 0 0)
(299.654 0 0)
(299.671 0 0)
(299.668 0 0)
(299.648 0 0)
(299.607 0 0)
(299.548 0 0)
(299.469 0 0)
(299.37 0 0)
(299.25 0 0)
(299.111 0 0)
(298.95 0 0)
(298.769 0 0)
(298.566 0 0)
(298.341 0 0)
(298.094 0 0)
(297.824 0 0)
(297.531 0 0)
(297.214 0 0)
(296.874 0 0)
(296.509 0 0)
(296.118 0 0)
(295.702 0 0)
(295.259 0 0)
(294.789 0 0)
(294.291 0 0)
(293.765 0 0)
(293.205 0 0)
(292.627 0 0)
(291.98 0 0)
(291.408 0 0)
(290.489 0 0)
(279.833 0 0)
(280.604 0 0)
(281.36 0 0)
(282.1 0 0)
(282.825 0 0)
(283.535 0 0)
(284.23 0 0)
(284.91 0 0)
(285.575 0 0)
(286.225 0 0)
(286.86 0 0)
(287.48 0 0)
(288.085 0 0)
(288.676 0 0)
(289.251 0 0)
(289.811 0 0)
(290.356 0 0)
(290.886 0 0)
(291.402 0 0)
(291.902 0 0)
(292.387 0 0)
(292.857 0 0)
(293.313 0 0)
(293.753 0 0)
(294.177 0 0)
(294.587 0 0)
(294.981 0 0)
(295.36 0 0)
(295.724 0 0)
(296.072 0 0)
(296.405 0 0)
(296.723 0 0)
(297.024 0 0)
(297.31 0 0)
(297.581 0 0)
(297.835 0 0)
(298.073 0 0)
(298.296 0 0)
(298.502 0 0)
(298.692 0 0)
(298.866 0 0)
(299.023 0 0)
(299.164 0 0)
(299.288 0 0)
(299.396 0 0)
(299.486 0 0)
(299.559 0 0)
(299.615 0 0)
(299.653 0 0)
(299.674 0 0)
(299.677 0 0)
(299.662 0 0)
(299.629 0 0)
(299.577 0 0)
(299.507 0 0)
(299.418 0 0)
(299.31 0 0)
(299.183 0 0)
(299.036 0 0)
(298.869 0 0)
(298.682 0 0)
(298.474 0 0)
(298.245 0 0)
(297.995 0 0)
(297.724 0 0)
(297.43 0 0)
(297.114 0 0)
(296.775 0 0)
(296.413 0 0)
(296.026 0 0)
(295.615 0 0)
(295.179 0 0)
(294.717 0 0)
(294.229 0 0)
(293.71 0 0)
(293.175 0 0)
(292.577 0 0)
(292.047 0 0)
(291.201 0 0)
(280.561 0 0)
(281.297 0 0)
(282.019 0 0)
(282.726 0 0)
(283.42 0 0)
(284.099 0 0)
(284.764 0 0)
(285.415 0 0)
(286.052 0 0)
(286.674 0 0)
(287.283 0 0)
(287.878 0 0)
(288.458 0 0)
(289.024 0 0)
(289.577 0 0)
(290.115 0 0)
(290.639 0 0)
(291.149 0 0)
(291.644 0 0)
(292.126 0 0)
(292.593 0 0)
(293.046 0 0)
(293.484 0 0)
(293.908 0 0)
(294.318 0 0)
(294.713 0 0)
(295.094 0 0)
(295.46 0 0)
(295.812 0 0)
(296.148 0 0)
(296.47 0 0)
(296.778 0 0)
(297.07 0 0)
(297.348 0 0)
(297.61 0 0)
(297.857 0 0)
(298.089 0 0)
(298.306 0 0)
(298.508 0 0)
(298.693 0 0)
(298.864 0 0)
(299.018 0 0)
(299.157 0 0)
(299.28 0 0)
(299.387 0 0)
(299.478 0 0)
(299.552 0 0)
(299.61 0 0)
(299.651 0 0)
(299.676 0 0)
(299.684 0 0)
(299.674 0 0)
(299.648 0 0)
(299.604 0 0)
(299.542 0 0)
(299.462 0 0)
(299.364 0 0)
(299.248 0 0)
(299.114 0 0)
(298.961 0 0)
(298.788 0 0)
(298.596 0 0)
(298.385 0 0)
(298.154 0 0)
(297.902 0 0)
(297.63 0 0)
(297.337 0 0)
(297.022 0 0)
(296.685 0 0)
(296.326 0 0)
(295.945 0 0)
(295.54 0 0)
(295.111 0 0)
(294.658 0 0)
(294.177 0 0)
(293.681 0 0)
(293.127 0 0)
(292.636 0 0)
(291.856 0 0)
(281.254 0 0)
(281.957 0 0)
(282.646 0 0)
(283.323 0 0)
(283.986 0 0)
(284.636 0 0)
(285.272 0 0)
(285.896 0 0)
(286.506 0 0)
(287.103 0 0)
(287.686 0 0)
(288.257 0 0)
(288.814 0 0)
(289.358 0 0)
(289.888 0 0)
(290.405 0 0)
(290.909 0 0)
(291.399 0 0)
(291.876 0 0)
(292.34 0 0)
(292.789 0 0)
(293.226 0 0)
(293.648 0 0)
(294.057 0 0)
(294.453 0 0)
(294.834 0 0)
(295.202 0 0)
(295.556 0 0)
(295.895 0 0)
(296.221 0 0)
(296.533 0 0)
(296.831 0 0)
(297.114 0 0)
(297.384 0 0)
(297.638 0 0)
(297.879 0 0)
(298.105 0 0)
(298.316 0 0)
(298.513 0 0)
(298.695 0 0)
(298.862 0 0)
(299.014 0 0)
(299.15 0 0)
(299.272 0 0)
(299.379 0 0)
(299.47 0 0)
(299.545 0 0)
(299.605 0 0)
(299.649 0 0)
(299.677 0 0)
(299.689 0 0)
(299.685 0 0)
(299.664 0 0)
(299.627 0 0)
(299.573 0 0)
(299.502 0 0)
(299.414 0 0)
(299.308 0 0)
(299.185 0 0)
(299.045 0 0)
(298.886 0 0)
(298.709 0 0)
(298.514 0 0)
(298.3 0 0)
(298.067 0 0)
(297.814 0 0)
(297.542 0 0)
(297.25 0 0)
(296.937 0 0)
(296.604 0 0)
(296.249 0 0)
(295.873 0 0)
(295.475 0 0)
(295.055 0 0)
(294.608 0 0)
(294.148 0 0)
(293.635 0 0)
(293.179 0 0)
(292.459 0 0)
(281.913 0 0)
(282.585 0 0)
(283.244 0 0)
(283.89 0 0)
(284.525 0 0)
(285.147 0 0)
(285.757 0 0)
(286.354 0 0)
(286.939 0 0)
(287.511 0 0)
(288.071 0 0)
(288.619 0 0)
(289.154 0 0)
(289.676 0 0)
(290.186 0 0)
(290.683 0 0)
(291.167 0 0)
(291.639 0 0)
(292.098 0 0)
(292.544 0 0)
(292.978 0 0)
(293.398 0 0)
(293.806 0 0)
(294.2 0 0)
(294.582 0 0)
(294.95 0 0)
(295.305 0 0)
(295.647 0 0)
(295.976 0 0)
(296.292 0 0)
(296.593 0 0)
(296.882 0 0)
(297.157 0 0)
(297.418 0 0)
(297.666 0 0)
(297.9 0 0)
(298.12 0 0)
(298.326 0 0)
(298.518 0 0)
(298.695 0 0)
(298.859 0 0)
(299.009 0 0)
(299.144 0 0)
(299.264 0 0)
(299.37 0 0)
(299.461 0 0)
(299.538 0 0)
(299.599 0 0)
(299.645 0 0)
(299.677 0 0)
(299.692 0 0)
(299.693 0 0)
(299.678 0 0)
(299.647 0 0)
(299.6 0 0)
(299.537 0 0)
(299.458 0 0)
(299.363 0 0)
(299.251 0 0)
(299.122 0 0)
(298.976 0 0)
(298.813 0 0)
(298.632 0 0)
(298.434 0 0)
(298.218 0 0)
(297.984 0 0)
(297.732 0 0)
(297.46 0 0)
(297.17 0 0)
(296.86 0 0)
(296.531 0 0)
(296.181 0 0)
(295.811 0 0)
(295.421 0 0)
(295.007 0 0)
(294.579 0 0)
(294.104 0 0)
(293.68 0 0)
(293.015 0 0)
(282.54 0 0)
(283.182 0 0)
(283.812 0 0)
(284.431 0 0)
(285.038 0 0)
(285.634 0 0)
(286.218 0 0)
(286.791 0 0)
(287.352 0 0)
(287.901 0 0)
(288.438 0 0)
(288.964 0 0)
(289.478 0 0)
(289.98 0 0)
(290.47 0 0)
(290.948 0 0)
(291.414 0 0)
(291.868 0 0)
(292.311 0 0)
(292.74 0 0)
(293.158 0 0)
(293.564 0 0)
(293.957 0 0)
(294.337 0 0)
(294.706 0 0)
(295.062 0 0)
(295.405 0 0)
(295.736 0 0)
(296.054 0 0)
(296.359 0 0)
(296.652 0 0)
(296.931 0 0)
(297.198 0 0)
(297.452 0 0)
(297.692 0 0)
(297.92 0 0)
(298.134 0 0)
(298.335 0 0)
(298.522 0 0)
(298.696 0 0)
(298.857 0 0)
(299.004 0 0)
(299.137 0 0)
(299.256 0 0)
(299.361 0 0)
(299.453 0 0)
(299.53 0 0)
(299.593 0 0)
(299.641 0 0)
(299.675 0 0)
(299.695 0 0)
(299.7 0 0)
(299.69 0 0)
(299.665 0 0)
(299.624 0 0)
(299.569 0 0)
(299.498 0 0)
(299.412 0 0)
(299.31 0 0)
(299.192 0 0)
(299.058 0 0)
(298.908 0 0)
(298.742 0 0)
(298.558 0 0)
(298.358 0 0)
(298.141 0 0)
(297.907 0 0)
(297.655 0 0)
(297.385 0 0)
(297.097 0 0)
(296.791 0 0)
(296.466 0 0)
(296.122 0 0)
(295.76 0 0)
(295.375 0 0)
(294.978 0 0)
(294.537 0 0)
(294.143 0 0)
(293.528 0 0)
(283.137 0 0)
(283.751 0 0)
(284.354 0 0)
(284.946 0 0)
(285.528 0 0)
(286.099 0 0)
(286.659 0 0)
(287.208 0 0)
(287.746 0 0)
(288.273 0 0)
(288.789 0 0)
(289.294 0 0)
(289.788 0 0)
(290.271 0 0)
(290.742 0 0)
(291.202 0 0)
(291.651 0 0)
(292.088 0 0)
(292.514 0 0)
(292.928 0 0)
(293.331 0 0)
(293.722 0 0)
(294.101 0 0)
(294.469 0 0)
(294.825 0 0)
(295.169 0 0)
(295.5 0 0)
(295.82 0 0)
(296.128 0 0)
(296.424 0 0)
(296.707 0 0)
(296.979 0 0)
(297.237 0 0)
(297.484 0 0)
(297.718 0 0)
(297.939 0 0)
(298.148 0 0)
(298.344 0 0)
(298.527 0 0)
(298.697 0 0)
(298.855 0 0)
(298.999 0 0)
(299.13 0 0)
(299.248 0 0)
(299.353 0 0)
(299.444 0 0)
(299.522 0 0)
(299.586 0 0)
(299.636 0 0)
(299.673 0 0)
(299.696 0 0)
(299.705 0 0)
(299.699 0 0)
(299.68 0 0)
(299.646 0 0)
(299.598 0 0)
(299.535 0 0)
(299.457 0 0)
(299.364 0 0)
(299.257 0 0)
(299.134 0 0)
(298.996 0 0)
(298.842 0 0)
(298.673 0 0)
(298.487 0 0)
(298.286 0 0)
(298.069 0 0)
(297.835 0 0)
(297.584 0 0)
(297.317 0 0)
(297.032 0 0)
(296.73 0 0)
(296.41 0 0)
(296.073 0 0)
(295.715 0 0)
(295.346 0 0)
(294.937 0 0)
(294.571 0 0)
(294.002 0 0)
(283.705 0 0)
(284.293 0 0)
(284.87 0 0)
(285.437 0 0)
(285.995 0 0)
(286.542 0 0)
(287.079 0 0)
(287.606 0 0)
(288.122 0 0)
(288.628 0 0)
(289.124 0 0)
(289.609 0 0)
(290.084 0 0)
(290.548 0 0)
(291.002 0 0)
(291.445 0 0)
(291.877 0 0)
(292.298 0 0)
(292.708 0 0)
(293.108 0 0)
(293.496 0 0)
(293.874 0 0)
(294.24 0 0)
(294.595 0 0)
(294.939 0 0)
(295.271 0 0)
(295.592 0 0)
(295.902 0 0)
(296.2 0 0)
(296.486 0 0)
(296.761 0 0)
(297.024 0 0)
(297.276 0 0)
(297.515 0 0)
(297.742 0 0)
(297.958 0 0)
(298.161 0 0)
(298.352 0 0)
(298.531 0 0)
(298.698 0 0)
(298.852 0 0)
(298.994 0 0)
(299.123 0 0)
(299.24 0 0)
(299.344 0 0)
(299.435 0 0)
(299.513 0 0)
(299.579 0 0)
(299.631 0 0)
(299.67 0 0)
(299.696 0 0)
(299.708 0 0)
(299.707 0 0)
(299.693 0 0)
(299.665 0 0)
(299.623 0 0)
(299.567 0 0)
(299.497 0 0)
(299.413 0 0)
(299.315 0 0)
(299.203 0 0)
(299.076 0 0)
(298.934 0 0)
(298.778 0 0)
(298.607 0 0)
(298.42 0 0)
(298.218 0 0)
(298.001 0 0)
(297.768 0 0)
(297.52 0 0)
(297.255 0 0)
(296.974 0 0)
(296.677 0 0)
(296.363 0 0)
(296.031 0 0)
(295.687 0 0)
(295.307 0 0)
(294.966 0 0)
(294.44 0 0)
(284.246 0 0)
(284.809 0 0)
(285.362 0 0)
(285.906 0 0)
(286.44 0 0)
(286.965 0 0)
(287.48 0 0)
(287.985 0 0)
(288.481 0 0)
(288.968 0 0)
(289.444 0 0)
(289.911 0 0)
(290.367 0 0)
(290.814 0 0)
(291.25 0 0)
(291.677 0 0)
(292.093 0 0)
(292.499 0 0)
(292.895 0 0)
(293.28 0 0)
(293.655 0 0)
(294.019 0 0)
(294.373 0 0)
(294.716 0 0)
(295.048 0 0)
(295.37 0 0)
(295.68 0 0)
(295.98 0 0)
(296.269 0 0)
(296.546 0 0)
(296.813 0 0)
(297.068 0 0)
(297.312 0 0)
(297.545 0 0)
(297.766 0 0)
(297.976 0 0)
(298.174 0 0)
(298.361 0 0)
(298.536 0 0)
(298.699 0 0)
(298.85 0 0)
(298.989 0 0)
(299.117 0 0)
(299.232 0 0)
(299.335 0 0)
(299.426 0 0)
(299.505 0 0)
(299.571 0 0)
(299.625 0 0)
(299.666 0 0)
(299.695 0 0)
(299.711 0 0)
(299.714 0 0)
(299.704 0 0)
(299.681 0 0)
(299.645 0 0)
(299.596 0 0)
(299.534 0 0)
(299.458 0 0)
(299.369 0 0)
(299.266 0 0)
(299.149 0 0)
(299.019 0 0)
(298.875 0 0)
(298.716 0 0)
(298.543 0 0)
(298.356 0 0)
(298.155 0 0)
(297.939 0 0)
(297.708 0 0)
(297.461 0 0)
(297.2 0 0)
(296.924 0 0)
(296.632 0 0)
(296.323 0 0)
(296.003 0 0)
(295.65 0 0)
(295.333 0 0)
(294.844 0 0)
(284.762 0 0)
(285.301 0 0)
(285.831 0 0)
(286.352 0 0)
(286.864 0 0)
(287.368 0 0)
(287.862 0 0)
(288.348 0 0)
(288.824 0 0)
(289.292 0 0)
(289.75 0 0)
(290.199 0 0)
(290.638 0 0)
(291.068 0 0)
(291.488 0 0)
(291.899 0 0)
(292.3 0 0)
(292.692 0 0)
(293.073 0 0)
(293.445 0 0)
(293.807 0 0)
(294.159 0 0)
(294.5 0 0)
(294.832 0 0)
(295.153 0 0)
(295.464 0 0)
(295.765 0 0)
(296.055 0 0)
(296.335 0 0)
(296.604 0 0)
(296.863 0 0)
(297.111 0 0)
(297.348 0 0)
(297.574 0 0)
(297.789 0 0)
(297.994 0 0)
(298.187 0 0)
(298.369 0 0)
(298.54 0 0)
(298.699 0 0)
(298.848 0 0)
(298.985 0 0)
(299.11 0 0)
(299.224 0 0)
(299.327 0 0)
(299.417 0 0)
(299.496 0 0)
(299.563 0 0)
(299.618 0 0)
(299.662 0 0)
(299.693 0 0)
(299.712 0 0)
(299.719 0 0)
(299.713 0 0)
(299.695 0 0)
(299.665 0 0)
(299.622 0 0)
(299.567 0 0)
(299.498 0 0)
(299.418 0 0)
(299.324 0 0)
(299.217 0 0)
(299.097 0 0)
(298.964 0 0)
(298.817 0 0)
(298.657 0 0)
(298.484 0 0)
(298.297 0 0)
(298.096 0 0)
(297.881 0 0)
(297.652 0 0)
(297.409 0 0)
(297.152 0 0)
(296.881 0 0)
(296.593 0 0)
(296.296 0 0)
(295.967 0 0)
(295.671 0 0)
(295.219 0 0)
(285.254 0 0)
(285.77 0 0)
(286.278 0 0)
(286.778 0 0)
(287.27 0 0)
(287.753 0 0)
(288.228 0 0)
(288.694 0 0)
(289.152 0 0)
(289.601 0 0)
(290.042 0 0)
(290.474 0 0)
(290.897 0 0)
(291.311 0 0)
(291.716 0 0)
(292.112 0 0)
(292.499 0 0)
(292.876 0 0)
(293.244 0 0)
(293.603 0 0)
(293.953 0 0)
(294.293 0 0)
(294.623 0 0)
(294.943 0 0)
(295.254 0 0)
(295.555 0 0)
(295.847 0 0)
(296.128 0 0)
(296.399 0 0)
(296.66 0 0)
(296.911 0 0)
(297.152 0 0)
(297.382 0 0)
(297.602 0 0)
(297.811 0 0)
(298.01 0 0)
(298.199 0 0)
(298.377 0 0)
(298.544 0 0)
(298.7 0 0)
(298.846 0 0)
(298.98 0 0)
(299.104 0 0)
(299.216 0 0)
(299.318 0 0)
(299.408 0 0)
(299.487 0 0)
(299.555 0 0)
(299.611 0 0)
(299.656 0 0)
(299.69 0 0)
(299.712 0 0)
(299.722 0 0)
(299.721 0 0)
(299.707 0 0)
(299.682 0 0)
(299.645 0 0)
(299.596 0 0)
(299.535 0 0)
(299.462 0 0)
(299.376 0 0)
(299.278 0 0)
(299.168 0 0)
(299.045 0 0)
(298.91 0 0)
(298.762 0 0)
(298.602 0 0)
(298.428 0 0)
(298.241 0 0)
(298.042 0 0)
(297.829 0 0)
(297.603 0 0)
(297.363 0 0)
(297.111 0 0)
(296.843 0 0)
(296.566 0 0)
(296.261 0 0)
(295.985 0 0)
(295.565 0 0)
(285.723 0 0)
(286.218 0 0)
(286.705 0 0)
(287.185 0 0)
(287.657 0 0)
(288.121 0 0)
(288.577 0 0)
(289.025 0 0)
(289.465 0 0)
(289.898 0 0)
(290.321 0 0)
(290.737 0 0)
(291.144 0 0)
(291.543 0 0)
(291.934 0 0)
(292.315 0 0)
(292.689 0 0)
(293.053 0 0)
(293.408 0 0)
(293.755 0 0)
(294.092 0 0)
(294.421 0 0)
(294.74 0 0)
(295.05 0 0)
(295.351 0 0)
(295.643 0 0)
(295.925 0 0)
(296.197 0 0)
(296.46 0 0)
(296.714 0 0)
(296.957 0 0)
(297.191 0 0)
(297.415 0 0)
(297.629 0 0)
(297.833 0 0)
(298.027 0 0)
(298.211 0 0)
(298.384 0 0)
(298.548 0 0)
(298.701 0 0)
(298.843 0 0)
(298.976 0 0)
(299.097 0 0)
(299.209 0 0)
(299.309 0 0)
(299.399 0 0)
(299.478 0 0)
(299.547 0 0)
(299.604 0 0)
(299.651 0 0)
(299.686 0 0)
(299.711 0 0)
(299.724 0 0)
(299.726 0 0)
(299.717 0 0)
(299.697 0 0)
(299.666 0 0)
(299.622 0 0)
(299.568 0 0)
(299.502 0 0)
(299.424 0 0)
(299.335 0 0)
(299.234 0 0)
(299.121 0 0)
(298.996 0 0)
(298.859 0 0)
(298.71 0 0)
(298.549 0 0)
(298.376 0 0)
(298.19 0 0)
(297.993 0 0)
(297.782 0 0)
(297.559 0 0)
(297.324 0 0)
(297.075 0 0)
(296.817 0 0)
(296.533 0 0)
(296.276 0 0)
(295.886 0 0)
(286.171 0 0)
(286.645 0 0)
(287.113 0 0)
(287.573 0 0)
(288.026 0 0)
(288.472 0 0)
(288.91 0 0)
(289.341 0 0)
(289.765 0 0)
(290.181 0 0)
(290.589 0 0)
(290.989 0 0)
(291.381 0 0)
(291.766 0 0)
(292.142 0 0)
(292.511 0 0)
(292.871 0 0)
(293.222 0 0)
(293.565 0 0)
(293.9 0 0)
(294.227 0 0)
(294.544 0 0)
(294.853 0 0)
(295.153 0 0)
(295.444 0 0)
(295.727 0 0)
(296 0 0)
(296.264 0 0)
(296.519 0 0)
(296.765 0 0)
(297.002 0 0)
(297.229 0 0)
(297.447 0 0)
(297.655 0 0)
(297.854 0 0)
(298.043 0 0)
(298.222 0 0)
(298.392 0 0)
(298.551 0 0)
(298.701 0 0)
(298.841 0 0)
(298.971 0 0)