/*--------------------------------*- C++ -*----------------------------------*\
| =========                 |                                                 |
| \\      /  F ield         | OpenFOAM: The Open Source CFD Toolbox           |
|  \\    /   O peration     | Version:  2312                                  |
|   \\  /    A nd           | Website:  www.openfoam.com                      |
|    \\/     M anipulation  |                                                 |
\*---------------------------------------------------------------------------*/
FoamFile
{
    version     2.0;
    format      ascii;
    arch        "LSB;label=32;scalar=64";
    class       volVectorField;
    location    "0.358";
    object      U;
}
// * * * * * * * * * * * * * * * * * * * * * * * * * * * * * * * * * * * * * //

dimensions      [0 1 -1 0 0 0 0];

internalField   nonuniform List<vector> 
31205
(
(124.534 0 0)
(127.475 0 0)
(130.408 0 0)
(133.322 0 0)
(136.211 0 0)
(139.069 0 0)
(141.893 0 0)
(144.681 0 0)
(147.43 0 0)
(150.141 0 0)
(152.812 0 0)
(155.444 0 0)
(158.037 0 0)
(160.591 0 0)
(163.106 0 0)
(165.583 0 0)
(168.024 0 0)
(170.428 0 0)
(172.796 0 0)
(175.13 0 0)
(177.429 0 0)
(179.695 0 0)
(181.928 0 0)
(184.13 0 0)
(186.3 0 0)
(188.44 0 0)
(190.55 0 0)
(192.631 0 0)
(194.684 0 0)
(196.709 0 0)
(198.706 0 0)
(200.677 0 0)
(202.621 0 0)
(204.54 0 0)
(206.433 0 0)
(208.302 0 0)
(210.147 0 0)
(211.968 0 0)
(213.765 0 0)
(215.54 0 0)
(217.292 0 0)
(219.021 0 0)
(220.729 0 0)
(222.415 0 0)
(224.08 0 0)
(225.724 0 0)
(227.347 0 0)
(228.95 0 0)
(230.533 0 0)
(232.097 0 0)
(233.64 0 0)
(235.164 0 0)
(236.669 0 0)
(238.155 0 0)
(239.623 0 0)
(241.072 0 0)
(242.502 0 0)
(243.915 0 0)
(245.309 0 0)
(246.686 0 0)
(248.045 0 0)
(249.386 0 0)
(250.71 0 0)
(252.017 0 0)
(253.306 0 0)
(254.578 0 0)
(255.834 0 0)
(257.072 0 0)
(258.294 0 0)
(259.499 0 0)
(260.687 0 0)
(261.859 0 0)
(263.014 0 0)
(264.152 0 0)
(265.278 0 0)
(266.372 0 0)
(267.498 0 0)
(268.457 0 0)
(269.865 0 0)
(127.662 0 0)
(130.505 0 0)
(133.33 0 0)
(136.132 0 0)
(138.906 0 0)
(141.647 0 0)
(144.355 0 0)
(147.028 0 0)
(149.663 0 0)
(152.262 0 0)
(154.824 0 0)
(157.349 0 0)
(159.837 0 0)
(162.289 0 0)
(164.706 0 0)
(167.087 0 0)
(169.434 0 0)
(171.747 0 0)
(174.026 0 0)
(176.274 0 0)
(178.489 0 0)
(180.674 0 0)
(182.828 0 0)
(184.953 0 0)
(187.048 0 0)
(189.115 0 0)
(191.155 0 0)
(193.167 0 0)
(195.152 0 0)
(197.111 0 0)
(199.045 0 0)
(200.953 0 0)
(202.837 0 0)
(204.697 0 0)
(206.533 0 0)
(208.346 0 0)
(210.136 0 0)
(211.904 0 0)
(213.65 0 0)
(215.374 0 0)
(217.076 0 0)
(218.758 0 0)
(220.419 0 0)
(222.059 0 0)
(223.68 0 0)
(225.281 0 0)
(226.862 0 0)
(228.424 0 0)
(229.967 0 0)
(231.491 0 0)
(232.996 0 0)
(234.483 0 0)
(235.953 0 0)
(237.404 0 0)
(238.837 0 0)
(240.253 0 0)
(241.651 0 0)
(243.033 0 0)
(244.397 0 0)
(245.744 0 0)
(247.075 0 0)
(248.388 0 0)
(249.686 0 0)
(250.966 0 0)
(252.231 0 0)
(253.479 0 0)
(254.712 0 0)
(255.928 0 0)
(257.128 0 0)
(258.313 0 0)
(259.481 0 0)
(260.634 0 0)
(261.772 0 0)
(262.892 0 0)
(264.002 0 0)
(265.081 0 0)
(266.192 0 0)
(267.142 0 0)
(268.526 0 0)
(130.83 0 0)
(133.566 0 0)
(136.279 0 0)
(138.966 0 0)
(141.623 0 0)
(144.249 0 0)
(146.841 0 0)
(149.4 0 0)
(151.924 0 0)
(154.413 0 0)
(156.868 0 0)
(159.288 0 0)
(161.674 0 0)
(164.027 0 0)
(166.347 0 0)
(168.634 0 0)
(170.889 0 0)
(173.112 0 0)
(175.306 0 0)
(177.469 0 0)
(179.602 0 0)
(181.707 0 0)
(183.784 0 0)
(185.832 0 0)
(187.854 0 0)
(189.85 0 0)
(191.819 0 0)
(193.763 0 0)
(195.682 0 0)
(197.577 0 0)
(199.448 0 0)
(201.295 0 0)
(203.119 0 0)
(204.921 0 0)
(206.7 0 0)
(208.458 0 0)
(210.194 0 0)
(211.909 0 0)
(213.603 0 0)
(215.277 0 0)
(216.931 0 0)
(218.565 0 0)
(220.179 0 0)
(221.774 0 0)
(223.35 0 0)
(224.908 0 0)
(226.447 0 0)
(227.968 0 0)
(229.471 0 0)
(230.956 0 0)
(232.423 0 0)
(233.873 0 0)
(235.306 0 0)
(236.722 0 0)
(238.122 0 0)
(239.504 0 0)
(240.87 0 0)
(242.22 0 0)
(243.553 0 0)
(244.871 0 0)
(246.172 0 0)
(247.458 0 0)
(248.728 0 0)
(249.983 0 0)
(251.222 0 0)
(252.446 0 0)
(253.654 0 0)
(254.847 0 0)
(256.025 0 0)
(257.189 0 0)
(258.337 0 0)
(259.47 0 0)
(260.589 0 0)
(261.692 0 0)
(262.784 0 0)
(263.847 0 0)
(264.942 0 0)
(265.88 0 0)
(267.241 0 0)
(133.936 0 0)
(136.563 0 0)
(139.164 0 0)
(141.737 0 0)
(144.281 0 0)
(146.795 0 0)
(149.276 0 0)
(151.725 0 0)
(154.142 0 0)
(156.526 0 0)
(158.878 0 0)
(161.198 0 0)
(163.486 0 0)
(165.744 0 0)
(167.971 0 0)
(170.167 0 0)
(172.334 0 0)
(174.472 0 0)
(176.582 0 0)
(178.664 0 0)
(180.718 0 0)
(182.746 0 0)
(184.748 0 0)
(186.723 0 0)
(188.674 0 0)
(190.6 0 0)
(192.502 0 0)
(194.38 0 0)
(196.235 0 0)
(198.067 0 0)
(199.877 0 0)
(201.664 0 0)
(203.43 0 0)
(205.175 0 0)
(206.899 0 0)
(208.603 0 0)
(210.286 0 0)
(211.949 0 0)
(213.593 0 0)
(215.218 0 0)
(216.824 0 0)
(218.411 0 0)
(219.98 0 0)
(221.53 0 0)
(223.063 0 0)
(224.578 0 0)
(226.075 0 0)
(227.556 0 0)
(229.019 0 0)
(230.466 0 0)
(231.895 0 0)
(233.309 0 0)
(234.706 0 0)
(236.087 0 0)
(237.452 0 0)
(238.802 0 0)
(240.136 0 0)
(241.454 0 0)
(242.757 0 0)
(244.044 0 0)
(245.317 0 0)
(246.575 0 0)
(247.818 0 0)
(249.046 0 0)
(250.259 0 0)
(251.458 0 0)
(252.642 0 0)
(253.812 0 0)
(254.968 0 0)
(256.109 0 0)
(257.236 0 0)
(258.349 0 0)
(259.449 0 0)
(260.533 0 0)
(261.607 0 0)
(262.654 0 0)
(263.731 0 0)
(264.656 0 0)
(265.994 0 0)
(136.939 0 0)
(139.456 0 0)
(141.948 0 0)
(144.411 0 0)
(146.846 0 0)
(149.251 0 0)
(151.626 0 0)
(153.971 0 0)
(156.285 0 0)
(158.569 0 0)
(160.823 0 0)
(163.048 0 0)
(165.243 0 0)
(167.41 0 0)
(169.548 0 0)
(171.658 0 0)
(173.741 0 0)
(175.797 0 0)
(177.827 0 0)
(179.831 0 0)
(181.81 0 0)
(183.764 0 0)
(185.693 0 0)
(187.599 0 0)
(189.481 0 0)
(191.34 0 0)
(193.177 0 0)
(194.992 0 0)
(196.784 0 0)
(198.556 0 0)
(200.306 0 0)
(202.036 0 0)
(203.746 0 0)
(205.436 0 0)
(207.106 0 0)
(208.757 0 0)
(210.389 0 0)
(212.002 0 0)
(213.597 0 0)
(215.174 0 0)
(216.733 0 0)
(218.275 0 0)
(219.799 0 0)
(221.306 0 0)
(222.796 0 0)
(224.27 0 0)
(225.726 0 0)
(227.167 0 0)
(228.592 0 0)
(230 0 0)
(231.393 0 0)
(232.771 0 0)
(234.133 0 0)
(235.479 0 0)
(236.811 0 0)
(238.128 0 0)
(239.43 0 0)
(240.717 0 0)
(241.989 0 0)
(243.248 0 0)
(244.491 0 0)
(245.721 0 0)
(246.937 0 0)
(248.138 0 0)
(249.326 0 0)
(250.5 0 0)
(251.66 0 0)
(252.806 0 0)
(253.939 0 0)
(255.059 0 0)
(256.165 0 0)
(257.257 0 0)
(258.337 0 0)
(259.402 0 0)
(260.458 0 0)
(261.487 0 0)
(262.547 0 0)
(263.457 0 0)
(264.774 0 0)
(139.824 0 0)
(142.234 0 0)
(144.619 0 0)
(146.977 0 0)
(149.307 0 0)
(151.609 0 0)
(153.882 0 0)
(156.127 0 0)
(158.344 0 0)
(160.533 0 0)
(162.694 0 0)
(164.828 0 0)
(166.935 0 0)
(169.015 0 0)
(171.069 0 0)
(173.097 0 0)
(175.1 0 0)
(177.077 0 0)
(179.031 0 0)
(180.961 0 0)
(182.867 0 0)
(184.75 0 0)
(186.61 0 0)
(188.448 0 0)
(190.265 0 0)
(192.06 0 0)
(193.834 0 0)
(195.587 0 0)
(197.32 0 0)
(199.033 0 0)
(200.727 0 0)
(202.401 0 0)
(204.056 0 0)
(205.693 0 0)
(207.311 0 0)
(208.911 0 0)
(210.494 0 0)
(212.058 0 0)
(213.606 0 0)
(215.136 0 0)
(216.65 0 0)
(218.147 0 0)
(219.628 0 0)
(221.092 0 0)
(222.541 0 0)
(223.974 0 0)
(225.391 0 0)
(226.793 0 0)
(228.18 0 0)
(229.551 0 0)
(230.908 0 0)
(232.25 0 0)
(233.577 0 0)
(234.89 0 0)
(236.189 0 0)
(237.474 0 0)
(238.744 0 0)
(240.001 0 0)
(241.243 0 0)
(242.472 0 0)
(243.688 0 0)
(244.89 0 0)
(246.078 0 0)
(247.254 0 0)
(248.416 0 0)
(249.565 0 0)
(250.701 0 0)
(251.824 0 0)
(252.934 0 0)
(254.031 0 0)
(255.116 0 0)
(256.187 0 0)
(257.247 0 0)
(258.292 0 0)
(259.33 0 0)
(260.341 0 0)
(261.383 0 0)
(262.279 0 0)
(263.575 0 0)
(142.588 0 0)
(144.896 0 0)
(147.178 0 0)
(149.434 0 0)
(151.664 0 0)
(153.867 0 0)
(156.044 0 0)
(158.195 0 0)
(160.319 0 0)
(162.418 0 0)
(164.49 0 0)
(166.538 0 0)
(168.56 0 0)
(170.558 0 0)
(172.531 0 0)
(174.481 0 0)
(176.407 0 0)
(178.31 0 0)
(180.191 0 0)
(182.049 0 0)
(183.886 0 0)
(185.701 0 0)
(187.496 0 0)
(189.269 0 0)
(191.022 0 0)
(192.756 0 0)
(194.469 0 0)
(196.164 0 0)
(197.839 0 0)
(199.496 0 0)
(201.135 0 0)
(202.755 0 0)
(204.358 0 0)
(205.943 0 0)
(207.511 0 0)
(209.062 0 0)
(210.596 0 0)
(212.114 0 0)
(213.615 0 0)
(215.101 0 0)
(216.57 0 0)
(218.024 0 0)
(219.463 0 0)
(220.886 0 0)
(222.294 0 0)
(223.687 0 0)
(225.066 0 0)
(226.43 0 0)
(227.78 0 0)
(229.115 0 0)
(230.436 0 0)
(231.744 0 0)
(233.037 0 0)
(234.317 0 0)
(235.583 0 0)
(236.836 0 0)
(238.076 0 0)
(239.302 0 0)
(240.515 0 0)
(241.716 0 0)
(242.903 0 0)
(244.078 0 0)
(245.239 0 0)
(246.389 0 0)
(247.525 0 0)
(248.65 0 0)
(249.762 0 0)
(250.861 0 0)
(251.949 0 0)
(253.024 0 0)
(254.087 0 0)
(255.138 0 0)
(256.177 0 0)
(257.203 0 0)
(258.222 0 0)
(259.215 0 0)
(260.239 0 0)
(261.12 0 0)
(262.393 0 0)
(145.236 0 0)
(147.444 0 0)
(149.627 0 0)
(151.786 0 0)
(153.921 0 0)
(156.031 0 0)
(158.116 0 0)
(160.177 0 0)
(162.213 0 0)
(164.225 0 0)
(166.214 0 0)
(168.179 0 0)
(170.121 0 0)
(172.04 0 0)
(173.937 0 0)
(175.812 0 0)
(177.665 0 0)
(179.497 0 0)
(181.308 0 0)
(183.099 0 0)
(184.869 0 0)
(186.619 0 0)
(188.35 0 0)
(190.061 0 0)
(191.754 0 0)
(193.428 0 0)
(195.083 0 0)
(196.721 0 0)
(198.341 0 0)
(199.944 0 0)
(201.529 0 0)
(203.098 0 0)
(204.65 0 0)
(206.185 0 0)
(207.704 0 0)
(209.208 0 0)
(210.695 0 0)
(212.167 0 0)
(213.624 0 0)
(215.066 0 0)
(216.493 0 0)
(217.905 0 0)
(219.302 0 0)
(220.685 0 0)
(222.054 0 0)
(223.409 0 0)
(224.75 0 0)
(226.077 0 0)
(227.39 0 0)
(228.69 0 0)
(229.977 0 0)
(231.25 0 0)
(232.511 0 0)
(233.758 0 0)
(234.993 0 0)
(236.215 0 0)
(237.424 0 0)
(238.62 0 0)
(239.805 0 0)
(240.977 0 0)
(242.136 0 0)
(243.284 0 0)
(244.419 0 0)
(245.543 0 0)
(246.654 0 0)
(247.754 0 0)
(248.842 0 0)
(249.918 0 0)
(250.983 0 0)
(252.036 0 0)
(253.078 0 0)
(254.108 0 0)
(255.127 0 0)
(256.134 0 0)
(257.133 0 0)
(258.108 0 0)
(259.114 0 0)
(259.979 0 0)
(261.23 0 0)
(147.771 0 0)
(149.883 0 0)
(151.973 0 0)
(154.04 0 0)
(156.083 0 0)
(158.104 0 0)
(160.102 0 0)
(162.077 0 0)
(164.03 0 0)
(165.96 0 0)
(167.869 0 0)
(169.755 0 0)
(171.621 0 0)
(173.465 0 0)
(175.289 0 0)
(177.093 0 0)
(178.876 0 0)
(180.64 0 0)
(182.384 0 0)
(184.109 0 0)
(185.816 0 0)
(187.504 0 0)
(189.173 0 0)
(190.825 0 0)
(192.46 0 0)
(194.077 0 0)
(195.677 0 0)
(197.26 0 0)
(198.826 0 0)
(200.377 0 0)
(201.911 0 0)
(203.429 0 0)
(204.932 0 0)
(206.419 0 0)
(207.892 0 0)
(209.349 0 0)
(210.791 0 0)
(212.219 0 0)
(213.633 0 0)
(215.032 0 0)
(216.417 0 0)
(217.788 0 0)
(219.146 0 0)
(220.49 0 0)
(221.82 0 0)
(223.138 0 0)
(224.442 0 0)
(225.733 0 0)
(227.011 0 0)
(228.277 0 0)
(229.53 0 0)
(230.77 0 0)
(231.998 0 0)
(233.213 0 0)
(234.417 0 0)
(235.608 0 0)
(236.788 0 0)
(237.955 0 0)
(239.111 0 0)
(240.255 0 0)
(241.387 0 0)
(242.508 0 0)
(243.617 0 0)
(244.715 0 0)
(245.802 0 0)
(246.878 0 0)
(247.942 0 0)
(248.995 0 0)
(250.037 0 0)
(251.068 0 0)
(252.089 0 0)
(253.098 0 0)
(254.097 0 0)
(255.084 0 0)
(256.064 0 0)
(257.021 0 0)
(258.007 0 0)
(258.858 0 0)
(260.085 0 0)
(150.198 0 0)
(152.219 0 0)
(154.219 0 0)
(156.198 0 0)
(158.155 0 0)
(160.091 0 0)
(162.006 0 0)
(163.9 0 0)
(165.773 0 0)
(167.625 0 0)
(169.458 0 0)
(171.27 0 0)
(173.062 0 0)
(174.836 0 0)
(176.59 0 0)
(178.325 0 0)
(180.042 0 0)
(181.74 0 0)
(183.421 0 0)
(185.084 0 0)
(186.729 0 0)
(188.357 0 0)
(189.968 0 0)
(191.563 0 0)
(193.141 0 0)
(194.704 0 0)
(196.25 0 0)
(197.78 0 0)
(199.295 0 0)
(200.795 0 0)
(202.28 0 0)
(203.75 0 0)
(205.205 0 0)
(206.646 0 0)
(208.073 0 0)
(209.486 0 0)
(210.885 0 0)
(212.27 0 0)
(213.641 0 0)
(214.999 0 0)
(216.344 0 0)
(217.676 0 0)
(218.994 0 0)
(220.3 0 0)
(221.594 0 0)
(222.874 0 0)
(224.143 0 0)
(225.399 0 0)
(226.642 0 0)
(227.874 0 0)
(229.094 0 0)
(230.302 0 0)
(231.498 0 0)
(232.682 0 0)
(233.855 0 0)
(235.017 0 0)
(236.167 0 0)
(237.306 0 0)
(238.434 0 0)
(239.55 0 0)
(240.656 0 0)
(241.75 0 0)
(242.834 0 0)
(243.907 0 0)
(244.969 0 0)
(246.02 0 0)
(247.061 0 0)
(248.091 0 0)
(249.111 0 0)
(250.12 0 0)
(251.119 0 0)
(252.108 0 0)
(253.086 0 0)
(254.054 0 0)
(255.015 0 0)
(255.953 0 0)
(256.921 0 0)
(257.755 0 0)
(258.96 0 0)
(152.522 0 0)
(154.457 0 0)
(156.372 0 0)
(158.267 0 0)
(160.142 0 0)
(161.997 0 0)
(163.833 0 0)
(165.649 0 0)
(167.446 0 0)
(169.225 0 0)
(170.984 0 0)
(172.726 0 0)
(174.449 0 0)
(176.154 0 0)
(177.841 0 0)
(179.511 0 0)
(181.164 0 0)
(182.8 0 0)
(184.42 0 0)
(186.023 0 0)
(187.61 0 0)
(189.181 0 0)
(190.736 0 0)
(192.275 0 0)
(193.8 0 0)
(195.309 0 0)
(196.804 0 0)
(198.284 0 0)
(199.749 0 0)
(201.2 0 0)
(202.638 0 0)
(204.061 0 0)
(205.47 0 0)
(206.866 0 0)
(208.249 0 0)
(209.618 0 0)
(210.975 0 0)
(212.318 0 0)
(213.649 0 0)
(214.967 0 0)
(216.273 0 0)
(217.566 0 0)
(218.847 0 0)
(220.116 0 0)
(221.373 0 0)
(222.618 0 0)
(223.852 0 0)
(225.073 0 0)
(226.284 0 0)
(227.482 0 0)
(228.67 0 0)
(229.846 0 0)
(231.011 0 0)
(232.165 0 0)
(233.308 0 0)
(234.441 0 0)
(235.562 0 0)
(236.673 0 0)
(237.773 0 0)
(238.862 0 0)
(239.941 0 0)
(241.01 0 0)
(242.068 0 0)
(243.116 0 0)
(244.154 0 0)
(245.182 0 0)
(246.199 0 0)
(247.207 0 0)
(248.204 0 0)
(249.192 0 0)
(250.17 0 0)
(251.137 0 0)
(252.096 0 0)
(253.043 0 0)
(253.985 0 0)
(254.905 0 0)
(255.854 0 0)
(256.673 0 0)
(257.854 0 0)
(154.749 0 0)
(156.601 0 0)
(158.434 0 0)
(160.249 0 0)
(162.046 0 0)
(163.825 0 0)
(165.585 0 0)
(167.328 0 0)
(169.053 0 0)
(170.761 0 0)
(172.452 0 0)
(174.125 0 0)
(175.782 0 0)
(177.422 0 0)
(179.046 0 0)
(180.654 0 0)
(182.246 0 0)
(183.822 0 0)
(185.383 0 0)
(186.929 0 0)
(188.459 0 0)
(189.975 0 0)
(191.476 0 0)
(192.963 0 0)
(194.436 0 0)
(195.895 0 0)
(197.339 0 0)
(198.77 0 0)
(200.188 0 0)
(201.592 0 0)
(202.983 0 0)
(204.362 0 0)
(205.727 0 0)
(207.079 0 0)
(208.42 0 0)
(209.747 0 0)
(211.063 0 0)
(212.366 0 0)
(213.657 0 0)
(214.936 0 0)
(216.204 0 0)
(217.46 0 0)
(218.704 0 0)
(219.937 0 0)
(221.159 0 0)
(222.369 0 0)
(223.569 0 0)
(224.757 0 0)
(225.935 0 0)
(227.101 0 0)
(228.257 0 0)
(229.402 0 0)
(230.537 0 0)
(231.661 0 0)
(232.775 0 0)
(233.879 0 0)
(234.972 0 0)
(236.055 0 0)
(237.128 0 0)
(238.191 0 0)
(239.244 0 0)
(240.287 0 0)
(241.32 0 0)
(242.344 0 0)
(243.358 0 0)
(244.362 0 0)
(245.356 0 0)
(246.341 0 0)
(247.317 0 0)
(248.283 0 0)
(249.239 0 0)
(250.187 0 0)
(251.125 0 0)
(252.053 0 0)
(252.975 0 0)
(253.876 0 0)
(254.806 0 0)
(255.61 0 0)
(256.767 0 0)
(156.882 0 0)
(158.656 0 0)
(160.412 0 0)
(162.151 0 0)
(163.873 0 0)
(165.579 0 0)
(167.268 0 0)
(168.941 0 0)
(170.597 0 0)
(172.238 0 0)
(173.862 0 0)
(175.471 0 0)
(177.065 0 0)
(178.643 0 0)
(180.206 0 0)
(181.754 0 0)
(183.288 0 0)
(184.807 0 0)
(186.312 0 0)
(187.802 0 0)
(189.279 0 0)
(190.742 0 0)
(192.192 0 0)
(193.628 0 0)
(195.05 0 0)
(196.46 0 0)
(197.857 0 0)
(199.241 0 0)
(200.613 0 0)
(201.972 0 0)
(203.318 0 0)
(204.653 0 0)
(205.975 0 0)
(207.286 0 0)
(208.585 0 0)
(209.872 0 0)
(211.148 0 0)
(212.412 0 0)
(213.665 0 0)
(214.906 0 0)
(216.137 0 0)
(217.357 0 0)
(218.566 0 0)
(219.764 0 0)
(220.951 0 0)
(222.128 0 0)
(223.294 0 0)
(224.45 0 0)
(225.595 0 0)
(226.73 0 0)
(227.856 0 0)
(228.971 0 0)
(230.076 0 0)
(231.171 0 0)
(232.256 0 0)
(233.331 0 0)
(234.397 0 0)
(235.453 0 0)
(236.499 0 0)
(237.536 0 0)
(238.564 0 0)
(239.582 0 0)
(240.59 0 0)
(241.59 0 0)
(242.58 0 0)
(243.561 0 0)
(244.532 0 0)
(245.495 0 0)
(246.449 0 0)
(247.393 0 0)
(248.329 0 0)
(249.256 0 0)
(250.174 0 0)
(251.082 0 0)
(251.985 0 0)
(252.868 0 0)
(253.779 0 0)
(254.566 0 0)
(255.7 0 0)
(158.927 0 0)
(160.625 0 0)
(162.308 0 0)
(163.975 0 0)
(165.627 0 0)
(167.263 0 0)
(168.884 0 0)
(170.49 0 0)
(172.081 0 0)
(173.657 0 0)
(175.219 0 0)
(176.766 0 0)
(178.299 0 0)
(179.818 0 0)
(181.323 0 0)
(182.814 0 0)
(184.292 0 0)
(185.756 0 0)
(187.207 0 0)
(188.645 0 0)
(190.07 0 0)
(191.483 0 0)
(192.882 0 0)
(194.269 0 0)
(195.644 0 0)
(197.007 0 0)
(198.358 0 0)
(199.696 0 0)
(201.023 0 0)
(202.339 0 0)
(203.643 0 0)
(204.935 0 0)
(206.216 0 0)
(207.486 0 0)
(208.745 0 0)
(209.993 0 0)
(211.23 0 0)
(212.457 0 0)
(213.672 0 0)
(214.878 0 0)
(216.072 0 0)
(217.257 0 0)
(218.431 0 0)
(219.595 0 0)
(220.749 0 0)
(221.893 0 0)
(223.027 0 0)
(224.151 0 0)
(225.265 0 0)
(226.37 0 0)
(227.465 0 0)
(228.55 0 0)
(229.626 0 0)
(230.693 0 0)
(231.75 0 0)
(232.798 0 0)
(233.836 0 0)
(234.866 0 0)
(235.886 0 0)
(236.897 0 0)
(237.9 0 0)
(238.893 0 0)
(239.877 0 0)
(240.853 0 0)
(241.82 0 0)
(242.778 0 0)
(243.727 0 0)
(244.668 0 0)
(245.6 0 0)
(246.523 0 0)
(247.438 0 0)
(248.344 0 0)
(249.243 0 0)
(250.131 0 0)
(251.016 0 0)
(251.88 0 0)
(252.772 0 0)
(253.543 0 0)
(254.653 0 0)
(160.887 0 0)
(162.514 0 0)
(164.127 0 0)
(165.726 0 0)
(167.31 0 0)
(168.88 0 0)
(170.436 0 0)
(171.979 0 0)
(173.507 0 0)
(175.022 0 0)
(176.524 0 0)
(178.012 0 0)
(179.488 0 0)
(180.95 0 0)
(182.399 0 0)
(183.836 0 0)
(185.26 0 0)
(186.672 0 0)
(188.071 0 0)
(189.459 0 0)
(190.834 0 0)
(192.198 0 0)
(193.549 0 0)
(194.89 0 0)
(196.218 0 0)
(197.536 0 0)
(198.842 0 0)
(200.137 0 0)
(201.421 0 0)
(202.694 0 0)
(203.957 0 0)
(205.208 0 0)
(206.449 0 0)
(207.68 0 0)
(208.9 0 0)
(210.11 0 0)
(211.31 0 0)
(212.5 0 0)
(213.68 0 0)
(214.85 0 0)
(216.01 0 0)
(217.16 0 0)
(218.3 0 0)
(219.431 0 0)
(220.553 0 0)
(221.664 0 0)
(222.767 0 0)
(223.86 0 0)
(224.944 0 0)
(226.019 0 0)
(227.085 0 0)
(228.141 0 0)
(229.189 0 0)
(230.227 0 0)
(231.257 0 0)
(232.278 0 0)
(233.29 0 0)
(234.293 0 0)
(235.288 0 0)
(236.274 0 0)
(237.252 0 0)
(238.221 0 0)
(239.181 0 0)
(240.134 0 0)
(241.077 0 0)
(242.013 0 0)
(242.94 0 0)
(243.859 0 0)
(244.769 0 0)
(245.672 0 0)
(246.566 0 0)
(247.453 0 0)
(248.331 0 0)
(249.2 0 0)
(250.065 0 0)
(250.911 0 0)
(251.784 0 0)
(252.54 0 0)
(253.626 0 0)
(162.767 0 0)
(164.327 0 0)
(165.873 0 0)
(167.406 0 0)
(168.927 0 0)
(170.434 0 0)
(171.928 0 0)
(173.41 0 0)
(174.879 0 0)
(176.336 0 0)
(177.78 0 0)
(179.212 0 0)
(180.632 0 0)
(182.04 0 0)
(183.436 0 0)
(184.821 0 0)
(186.193 0 0)
(187.555 0 0)
(188.905 0 0)
(190.244 0 0)
(191.571 0 0)
(192.888 0 0)
(194.194 0 0)
(195.489 0 0)
(196.773 0 0)
(198.047 0 0)
(199.31 0 0)
(200.563 0 0)
(201.806 0 0)
(203.038 0 0)
(204.261 0 0)
(205.473 0 0)
(206.675 0 0)
(207.868 0 0)
(209.051 0 0)
(210.224 0 0)
(211.388 0 0)
(212.542 0 0)
(213.687 0 0)
(214.822 0 0)
(215.949 0 0)
(217.066 0 0)
(218.173 0 0)
(219.272 0 0)
(220.362 0 0)
(221.443 0 0)
(222.515 0 0)
(223.578 0 0)
(224.632 0 0)
(225.678 0 0)
(226.715 0 0)
(227.743 0 0)
(228.763 0 0)
(229.774 0 0)
(230.777 0 0)
(231.772 0 0)
(232.758 0 0)
(233.736 0 0)
(234.705 0 0)
(235.667 0 0)
(236.62 0 0)
(237.565 0 0)
(238.502 0 0)
(239.432 0 0)
(240.353 0 0)
(241.266 0 0)
(242.171 0 0)
(243.068 0 0)
(243.958 0 0)
(244.84 0 0)
(245.714 0 0)
(246.58 0 0)
(247.439 0 0)
(248.289 0 0)
(249.135 0 0)
(249.962 0 0)
(250.817 0 0)
(251.557 0 0)
(252.619 0 0)
(164.57 0 0)
(166.066 0 0)
(167.549 0 0)
(169.02 0 0)
(170.479 0 0)
(171.927 0 0)
(173.362 0 0)
(174.786 0 0)
(176.198 0 0)
(177.599 0 0)
(178.989 0 0)
(180.367 0 0)
(181.734 0 0)
(183.09 0 0)
(184.435 0 0)
(185.77 0 0)
(187.093 0 0)
(188.407 0 0)
(189.709 0 0)
(191.001 0 0)
(192.283 0 0)
(193.555 0 0)
(194.816 0 0)
(196.068 0 0)
(197.309 0 0)
(198.541 0 0)
(199.763 0 0)
(200.975 0 0)
(202.178 0 0)
(203.371 0 0)
(204.555 0 0)
(205.729 0 0)
(206.894 0 0)
(208.05 0 0)
(209.197 0 0)
(210.335 0 0)
(211.463 0 0)
(212.583 0 0)
(213.694 0 0)
(214.796 0 0)
(215.89 0 0)
(216.974 0 0)
(218.05 0 0)
(219.118 0 0)
(220.177 0 0)
(221.227 0 0)
(222.269 0 0)
(223.303 0 0)
(224.329 0 0)
(225.346 0 0)
(226.355 0 0)
(227.356 0 0)
(228.348 0 0)
(229.333 0 0)
(230.31 0 0)
(231.279 0 0)
(232.239 0 0)
(233.192 0 0)
(234.137 0 0)
(235.075 0 0)
(236.004 0 0)
(236.926 0 0)
(237.84 0 0)
(238.746 0 0)
(239.645 0 0)
(240.536 0 0)
(241.42 0 0)
(242.296 0 0)
(243.165 0 0)
(244.026 0 0)
(244.88 0 0)
(245.727 0 0)
(246.566 0 0)
(247.397 0 0)
(248.224 0 0)
(249.034 0 0)
(249.869 0 0)
(250.594 0 0)
(251.632 0 0)
(166.301 0 0)
(167.735 0 0)
(169.158 0 0)
(170.57 0 0)
(171.971 0 0)
(173.361 0 0)
(174.741 0 0)
(176.11 0 0)
(177.468 0 0)
(178.815 0 0)
(180.152 0 0)
(181.479 0 0)
(182.796 0 0)
(184.102 0 0)
(185.399 0 0)
(186.685 0 0)
(187.962 0 0)
(189.228 0 0)
(190.485 0 0)
(191.733 0 0)
(192.971 0 0)
(194.199 0 0)
(195.418 0 0)
(196.627 0 0)
(197.828 0 0)
(199.019 0 0)
(200.201 0 0)
(201.374 0 0)
(202.538 0 0)
(203.694 0 0)
(204.84 0 0)
(205.978 0 0)
(207.107 0 0)
(208.227 0 0)
(209.339 0 0)
(210.442 0 0)
(211.537 0 0)
(212.623 0 0)
(213.701 0 0)
(214.771 0 0)
(215.832 0 0)
(216.886 0 0)
(217.931 0 0)
(218.968 0 0)
(219.997 0 0)
(221.018 0 0)
(222.031 0 0)
(223.036 0 0)
(224.034 0 0)
(225.023 0 0)
(226.005 0 0)
(226.979 0 0)
(227.945 0 0)
(228.904 0 0)
(229.855 0 0)
(230.798 0 0)
(231.734 0 0)
(232.663 0 0)
(233.584 0 0)
(234.497 0 0)
(235.403 0 0)
(236.302 0 0)
(237.194 0 0)
(238.078 0 0)
(238.955 0 0)
(239.824 0 0)
(240.687 0 0)
(241.542 0 0)
(242.39 0 0)
(243.231 0 0)
(244.065 0 0)
(244.892 0 0)
(245.712 0 0)
(246.525 0 0)
(247.333 0 0)
(248.124 0 0)
(248.941 0 0)
(249.65 0 0)
(250.665 0 0)
(167.963 0 0)
(169.339 0 0)
(170.704 0 0)
(172.06 0 0)
(173.406 0 0)
(174.741 0 0)
(176.067 0 0)
(177.383 0 0)
(178.689 0 0)
(179.986 0 0)
(181.273 0 0)
(182.551 0 0)
(183.819 0 0)
(185.078 0 0)
(186.328 0 0)
(187.568 0 0)
(188.799 0 0)
(190.021 0 0)
(191.235 0 0)
(192.439 0 0)
(193.634 0 0)
(194.821 0 0)
(195.999 0 0)
(197.168 0 0)
(198.329 0 0)
(199.481 0 0)
(200.625 0 0)
(201.76 0 0)
(202.887 0 0)
(204.006 0 0)
(205.116 0 0)
(206.218 0 0)
(207.312 0 0)
(208.398 0 0)
(209.476 0 0)
(210.546 0 0)
(211.608 0 0)
(212.662 0 0)
(213.708 0 0)
(214.746 0 0)
(215.777 0 0)
(216.8 0 0)
(217.815 0 0)
(218.822 0 0)
(219.822 0 0)
(220.815 0 0)
(221.8 0 0)
(222.777 0 0)
(223.747 0 0)
(224.709 0 0)
(225.664 0 0)
(226.612 0 0)
(227.553 0 0)
(228.486 0 0)
(229.412 0 0)
(230.331 0 0)
(231.242 0 0)
(232.147 0 0)
(233.044 0 0)
(233.934 0 0)
(234.818 0 0)
(235.694 0 0)
(236.563 0 0)
(237.425 0 0)
(238.281 0 0)
(239.129 0 0)
(239.971 0 0)
(240.806 0 0)
(241.633 0 0)
(242.455 0 0)
(243.269 0 0)
(244.077 0 0)
(244.878 0 0)
(245.671 0 0)
(246.461 0 0)
(247.235 0 0)
(248.033 0 0)
(248.727 0 0)
(249.718 0 0)
(169.559 0 0)
(170.879 0 0)
(172.19 0 0)
(173.492 0 0)
(174.785 0 0)
(176.068 0 0)
(177.343 0 0)
(178.609 0 0)
(179.866 0 0)
(181.114 0 0)
(182.353 0 0)
(183.583 0 0)
(184.805 0 0)
(186.019 0 0)
(187.223 0 0)
(188.42 0 0)
(189.607 0 0)
(190.787 0 0)
(191.958 0 0)
(193.121 0 0)
(194.276 0 0)
(195.422 0 0)
(196.561 0 0)
(197.691 0 0)
(198.814 0 0)
(199.928 0 0)
(201.035 0 0)
(202.134 0 0)
(203.225 0 0)
(204.308 0 0)
(205.383 0 0)
(206.451 0 0)
(207.511 0 0)
(208.564 0 0)
(209.609 0 0)
(210.647 0 0)
(211.677 0 0)
(212.699 0 0)
(213.715 0 0)
(214.722 0 0)
(215.723 0 0)
(216.716 0 0)
(217.702 0 0)
(218.681 0 0)
(219.653 0 0)
(220.617 0 0)
(221.575 0 0)
(222.525 0 0)
(223.468 0 0)
(224.404 0 0)
(225.333 0 0)
(226.256 0 0)
(227.171 0 0)
(228.079 0 0)
(228.981 0 0)
(229.875 0 0)
(230.763 0 0)
(231.644 0 0)
(232.519 0 0)
(233.386 0 0)
(234.247 0 0)
(235.101 0 0)
(235.948 0 0)
(236.789 0 0)
(237.623 0 0)
(238.451 0 0)
(239.272 0 0)
(240.086 0 0)
(240.894 0 0)
(241.696 0 0)
(242.491 0 0)
(243.28 0 0)
(244.062 0 0)
(244.837 0 0)
(245.609 0 0)
(246.364 0 0)
(247.144 0 0)
(247.823 0 0)
(248.79 0 0)
(171.092 0 0)
(172.359 0 0)
(173.618 0 0)
(174.869 0 0)
(176.111 0 0)
(177.345 0 0)
(178.571 0 0)
(179.789 0 0)
(180.998 0 0)
(182.2 0 0)
(183.393 0 0)
(184.578 0 0)
(185.756 0 0)
(186.926 0 0)
(188.087 0 0)
(189.241 0 0)
(190.387 0 0)
(191.526 0 0)
(192.657 0 0)
(193.78 0 0)
(194.895 0 0)
(196.003 0 0)
(197.104 0 0)
(198.197 0 0)
(199.283 0 0)
(200.361 0 0)
(201.432 0 0)
(202.495 0 0)
(203.552 0 0)
(204.601 0 0)
(205.642 0 0)
(206.677 0 0)
(207.704 0 0)
(208.725 0 0)
(209.738 0 0)
(210.744 0 0)
(211.744 0 0)
(212.736 0 0)
(213.721 0 0)
(214.699 0 0)
(215.671 0 0)
(216.635 0 0)
(217.593 0 0)
(218.544 0 0)
(219.488 0 0)
(220.425 0 0)
(221.356 0 0)
(222.28 0 0)
(223.197 0 0)
(224.108 0 0)
(225.012 0 0)
(225.909 0 0)
(226.8 0 0)
(227.684 0 0)
(228.561 0 0)
(229.432 0 0)
(230.297 0 0)
(231.155 0 0)
(232.007 0 0)
(232.852 0 0)
(233.691 0 0)
(234.523 0 0)
(235.349 0 0)
(236.169 0 0)
(236.982 0 0)
(237.789 0 0)
(238.59 0 0)
(239.385 0 0)
(240.173 0 0)
(240.955 0 0)
(241.731 0 0)
(242.501 0 0)
(243.265 0 0)
(244.021 0 0)
(244.775 0 0)
(245.513 0 0)
(246.275 0 0)
(246.938 0 0)
(247.883 0 0)
(172.565 0 0)
(173.782 0 0)
(174.992 0 0)
(176.193 0 0)
(177.387 0 0)
(178.574 0 0)
(179.753 0 0)
(180.925 0 0)
(182.089 0 0)
(183.246 0 0)
(184.395 0 0)
(185.538 0 0)
(186.673 0 0)
(187.8 0 0)
(188.921 0 0)
(190.034 0 0)
(191.14 0 0)
(192.239 0 0)
(193.331 0 0)
(194.416 0 0)
(195.494 0 0)
(196.565 0 0)
(197.629 0 0)
(198.686 0 0)
(199.736 0 0)
(200.779 0 0)
(201.816 0 0)
(202.845 0 0)
(203.868 0 0)
(204.884 0 0)
(205.893 0 0)
(206.896 0 0)
(207.892 0 0)
(208.881 0 0)
(209.863 0 0)
(210.839 0 0)
(211.809 0 0)
(212.771 0 0)
(213.727 0 0)
(214.677 0 0)
(215.62 0 0)
(216.557 0 0)
(217.487 0 0)
(218.411 0 0)
(219.328 0 0)
(220.239 0 0)
(221.144 0 0)
(222.042 0 0)
(222.934 0 0)
(223.819 0 0)
(224.699 0 0)
(225.572 0 0)
(226.438 0 0)
(227.299 0 0)
(228.153 0 0)
(229.001 0 0)
(229.843 0 0)
(230.678 0 0)
(231.508 0 0)
(232.331 0 0)
(233.148 0 0)
(233.96 0 0)
(234.765 0 0)
(235.564 0 0)
(236.357 0 0)
(237.144 0 0)
(237.925 0 0)
(238.7 0 0)
(239.469 0 0)
(240.232 0 0)
(240.989 0 0)
(241.74 0 0)
(242.486 0 0)
(243.224 0 0)
(243.96 0 0)
(244.681 0 0)
(245.425 0 0)
(246.073 0 0)
(246.995 0 0)
(173.982 0 0)
(175.151 0 0)
(176.312 0 0)
(177.467 0 0)
(178.615 0 0)
(179.757 0 0)
(180.891 0 0)
(182.019 0 0)
(183.14 0 0)
(184.254 0 0)
(185.362 0 0)
(186.463 0 0)
(187.557 0 0)
(188.644 0 0)
(189.725 0 0)
(190.799 0 0)
(191.867 0 0)
(192.928 0 0)
(193.983 0 0)
(195.031 0 0)
(196.073 0 0)
(197.108 0 0)
(198.136 0 0)
(199.159 0 0)
(200.175 0 0)
(201.184 0 0)
(202.187 0 0)
(203.184 0 0)
(204.174 0 0)
(205.158 0 0)
(206.136 0 0)
(207.108 0 0)
(208.073 0 0)
(209.032 0 0)
(209.985 0 0)
(210.931 0 0)
(211.872 0 0)
(212.806 0 0)
(213.734 0 0)
(214.656 0 0)
(215.571 0 0)
(216.481 0 0)
(217.384 0 0)
(218.282 0 0)
(219.173 0 0)
(220.058 0 0)
(220.938 0 0)
(221.811 0 0)
(222.678 0 0)
(223.539 0 0)
(224.394 0 0)
(225.244 0 0)
(226.087 0 0)
(226.924 0 0)
(227.756 0 0)
(228.581 0 0)
(229.401 0 0)
(230.214 0 0)
(231.022 0 0)
(231.824 0 0)
(232.62 0 0)
(233.411 0 0)
(234.195 0 0)
(234.974 0 0)
(235.747 0 0)
(236.514 0 0)
(237.276 0 0)
(238.031 0 0)
(238.781 0 0)
(239.526 0 0)
(240.264 0 0)
(240.997 0 0)
(241.725 0 0)
(242.446 0 0)
(243.164 0 0)
(243.868 0 0)
(244.594 0 0)
(245.227 0 0)
(246.126 0 0)
(175.344 0 0)
(176.467 0 0)
(177.583 0 0)
(178.694 0 0)
(179.798 0 0)
(180.896 0 0)
(181.988 0 0)
(183.073 0 0)
(184.153 0 0)
(185.226 0 0)
(186.293 0 0)
(187.354 0 0)
(188.409 0 0)
(189.458 0 0)
(190.501 0 0)
(191.538 0 0)
(192.569 0 0)
(193.594 0 0)
(194.612 0 0)
(195.625 0 0)
(196.632 0 0)
(197.632 0 0)
(198.627 0 0)
(199.616 0 0)
(200.599 0 0)
(201.576 0 0)
(202.547 0 0)
(203.512 0 0)
(204.471 0 0)
(205.424 0 0)
(206.371 0 0)
(207.313 0 0)
(208.249 0 0)
(209.178 0 0)
(210.102 0 0)
(211.02 0 0)
(211.933 0 0)
(212.839 0 0)
(213.74 0 0)
(214.635 0 0)
(215.524 0 0)
(216.407 0 0)
(217.285 0 0)
(218.156 0 0)
(219.022 0 0)
(219.883 0 0)
(220.737 0 0)
(221.586 0 0)
(222.429 0 0)
(223.267 0 0)
(224.099 0 0)
(224.925 0 0)
(225.745 0 0)
(226.56 0 0)
(227.369 0 0)
(228.172 0 0)
(228.97 0 0)
(229.763 0 0)
(230.549 0 0)
(231.33 0 0)
(232.106 0 0)
(232.876 0 0)
(233.64 0 0)
(234.399 0 0)
(235.152 0 0)
(235.9 0 0)
(236.642 0 0)
(237.379 0 0)
(238.111 0 0)
(238.836 0 0)
(239.557 0 0)
(240.272 0 0)
(240.982 0 0)
(241.685 0 0)
(242.386 0 0)
(243.073 0 0)
(243.781 0 0)
(244.4 0 0)
(245.276 0 0)
(176.654 0 0)
(177.733 0 0)
(178.806 0 0)
(179.874 0 0)
(180.936 0 0)
(181.993 0 0)
(183.044 0 0)
(184.089 0 0)
(185.129 0 0)
(186.163 0 0)
(187.192 0 0)
(188.215 0 0)
(189.232 0 0)
(190.244 0 0)
(191.25 0 0)
(192.251 0 0)
(193.247 0 0)
(194.236 0 0)
(195.22 0 0)
(196.199 0 0)
(197.172 0 0)
(198.14 0 0)
(199.102 0 0)
(200.058 0 0)
(201.009 0 0)
(201.955 0 0)
(202.895 0 0)
(203.829 0 0)
(204.758 0 0)
(205.681 0 0)
(206.599 0 0)
(207.512 0 0)
(208.419 0 0)
(209.32 0 0)
(210.216 0 0)
(211.107 0 0)
(211.992 0 0)
(212.872 0 0)
(213.746 0 0)
(214.614 0 0)
(215.478 0 0)
(216.335 0 0)
(217.188 0 0)
(218.035 0 0)
(218.876 0 0)
(219.712 0 0)
(220.543 0 0)
(221.368 0 0)
(222.188 0 0)
(223.002 0 0)
(223.811 0 0)
(224.615 0 0)
(225.413 0 0)
(226.205 0 0)
(226.993 0 0)
(227.775 0 0)
(228.552 0 0)
(229.323 0 0)
(230.089 0 0)
(230.849 0 0)
(231.605 0 0)
(232.355 0 0)
(233.099 0 0)
(233.839 0 0)
(234.573 0 0)
(235.302 0 0)
(236.025 0 0)
(236.743 0 0)
(237.456 0 0)
(238.164 0 0)
(238.867 0 0)
(239.564 0 0)
(240.256 0 0)
(240.942 0 0)
(241.626 0 0)
(242.296 0 0)
(242.987 0 0)
(243.592 0 0)
(244.446 0 0)
(177.914 0 0)
(178.952 0 0)
(179.984 0 0)
(181.011 0 0)
(182.033 0 0)
(183.05 0 0)
(184.061 0 0)
(185.068 0 0)
(186.07 0 0)
(187.067 0 0)
(188.058 0 0)
(189.045 0 0)
(190.026 0 0)
(191.003 0 0)
(191.974 0 0)
(192.94 0 0)
(193.901 0 0)
(194.857 0 0)
(195.808 0 0)
(196.754 0 0)
(197.695 0 0)
(198.63 0 0)
(199.561 0 0)
(200.486 0 0)
(201.406 0 0)
(202.321 0 0)
(203.231 0 0)
(204.136 0 0)
(205.036 0 0)
(205.931 0 0)
(206.82 0 0)
(207.705 0 0)
(208.584 0 0)
(209.458 0 0)
(210.327 0 0)
(211.191 0 0)
(212.05 0 0)
(212.903 0 0)
(213.752 0 0)
(214.595 0 0)
(215.433 0 0)
(216.266 0 0)
(217.094 0 0)
(217.917 0 0)
(218.734 0 0)
(219.546 0 0)
(220.354 0 0)
(221.156 0 0)
(221.953 0 0)
(222.745 0 0)
(223.531 0 0)
(224.313 0 0)
(225.089 0 0)
(225.861 0 0)
(226.627 0 0)
(227.388 0 0)
(228.144 0 0)
(228.895 0 0)
(229.641 0 0)
(230.381 0 0)
(231.117 0 0)
(231.847 0 0)
(232.573 0 0)
(233.293 0 0)
(234.008 0 0)
(234.718 0 0)
(235.423 0 0)
(236.123 0 0)
(236.818 0 0)
(237.508 0 0)
(238.193 0 0)
(238.873 0 0)
(239.548 0 0)
(240.217 0 0)
(240.884 0 0)
(241.538 0 0)
(242.212 0 0)
(242.802 0 0)
(243.634 0 0)
(179.128 0 0)
(180.125 0 0)
(181.118 0 0)
(182.106 0 0)
(183.089 0 0)
(184.068 0 0)
(185.042 0 0)
(186.012 0 0)
(186.977 0 0)
(187.938 0 0)
(188.894 0 0)
(189.846 0 0)
(190.792 0 0)
(191.735 0 0)
(192.672 0 0)
(193.605 0 0)
(194.533 0 0)
(195.457 0 0)
(196.376 0 0)
(197.29 0 0)
(198.2 0 0)
(199.104 0 0)
(200.004 0 0)
(200.9 0 0)
(201.79 0 0)
(202.676 0 0)
(203.557 0 0)
(204.434 0 0)
(205.305 0 0)
(206.172 0 0)
(207.034 0 0)
(207.891 0 0)
(208.744 0 0)
(209.592 0 0)
(210.434 0 0)
(211.272 0 0)
(212.105 0 0)
(212.934 0 0)
(213.757 0 0)
(214.576 0 0)
(215.39 0 0)