/*--------------------------------*- C++ -*----------------------------------*\
| =========                 |                                                 |
| \\      /  F ield         | OpenFOAM: The Open Source CFD Toolbox           |
|  \\    /   O peration     | Version:  2312                                  |
|   \\  /    A nd           | Website:  www.openfoam.com                      |
|    \\/     M anipulation  |                                                 |
\*---------------------------------------------------------------------------*/
FoamFile
{
    version     2.0;
    format      ascii;
    arch        "LSB;label=32;scalar=64";
    class       surfaceScalarField;
    location    "0.521";
    object      phi;
}
// * * * * * * * * * * * * * * * * * * * * * * * * * * * * * * * * * * * * * //

dimensions      [0 3 -1 0 0 0 0];

oriented        oriented;

internalField   nonuniform List<scalar> 
62015
(
29.8069
0.156925
-30.6912
28.9663
0.150187
28.1815
0.14376
27.4649
0.137698
26.8284
0.132048
26.2817
0.126844
25.8311
0.122098
25.4785
0.117799
25.2216
0.113915
25.0547
0.110396
24.9695
0.107185
24.9568
0.104217
25.0068
0.101433
25.1102
0.0987734
25.2586
0.096189
25.4446
0.0936357
25.6619
0.0910766
25.905
0.0884809
26.1696
0.0858234
26.4518
0.0830837
26.7488
0.0802452
27.0581
0.0772948
27.3777
0.0742219
27.7059
0.0710184
28.0416
0.0676782
28.3837
0.0641962
28.7314
0.0605689
29.084
0.056794
29.4411
0.0528701
29.8023
0.0487962
30.1672
0.0445723
30.5358
0.0401985
30.9079
0.0356763
31.2834
0.0310062
31.6622
0.0261906
32.0445
0.0212307
32.4301
0.0161294
32.8192
0.0108885
33.2119
0.00551113
33.6082
0
34.0083
-0.00564199
34.4123
-0.0114111
34.8203
-0.0173049
35.2324
-0.023319
35.6488
-0.0294504
36.0696
-0.035695
36.4949
-0.0420493
36.925
-0.0485088
37.3599
-0.0550703
37.7997
-0.0617289
38.2447
-0.0684807
38.695
-0.0753214
39.1506
-0.0822469
39.6118
-0.0892524
40.0786
-0.0963335
40.5511
-0.103486
41.0296
-0.110704
41.514
-0.117985
42.0046
-0.125323
42.5014
-0.132712
43.0044
-0.14015
43.5139
-0.14763
44.0299
-0.155148
44.5524
-0.162699
45.0815
-0.170278
45.6174
-0.17788
46.16
-0.185499
46.7094
-0.193132
47.2657
-0.200773
47.829
-0.208417
48.3991
-0.216058
48.9763
-0.223692
49.5603
-0.231315
50.1519
-0.238918
50.7487
-0.246506
51.3581
-0.254041
51.9573
-0.261625
52.6167
-0.268914
-0.276967
53.1203
28.3107
0.302548
-29.1182
27.5525
0.289983
26.8559
0.278093
26.2318
0.266968
25.6896
0.256677
25.2355
0.24725
24.8723
0.238677
24.5989
0.230908
24.4108
0.22386
24.3012
0.217427
24.2618
0.211495
24.2838
0.205946
24.3586
0.200672
24.4782
0.195574
24.6355
0.190564
24.8244
0.185569
25.0395
0.180526
25.2765
0.175384
25.5316
0.170101
25.8019
0.164641
26.0849
0.158977
26.3785
0.153087
26.6811
0.146953
26.9914
0.140561
27.3084
0.1339
27.6311
0.126964
27.959
0.119744
28.2914
0.112239
28.628
0.104445
28.9685
0.096361
29.3126
0.0879875
29.6603
0.0793254
30.0113
0.0703765
30.3657
0.0611436
30.7234
0.0516299
31.0844
0.0418392
31.4488
0.0317759
31.8167
0.0214446
32.1881
0.0108509
32.5631
0
32.9419
-0.0111021
33.3244
-0.0224491
33.711
-0.0340347
34.1016
-0.0458521
34.4965
-0.0578939
34.8957
-0.0701535
35.2994
-0.0826232
35.7077
-0.0952951
36.1208
-0.108162
36.5387
-0.121215
36.9617
-0.134447
37.3898
-0.147849
37.8231
-0.161413
38.2619
-0.17513
38.7061
-0.188992
39.156
-0.202989
39.6116
-0.217113
40.073
-0.231354
40.5404
-0.245705
41.0138
-0.260154
41.4933
-0.274693
41.979
-0.289314
42.471
-0.304005
42.9694
-0.318758
43.4742
-0.333563
43.9854
-0.34841
44.5033
-0.36329
45.0277
-0.378193
45.5587
-0.393109
46.0964
-0.408029
46.6409
-0.422942
47.1921
-0.437839
47.7499
-0.452711
48.315
-0.467543
48.8852
-0.482344
49.4674
-0.49704
50.0403
-0.511827
50.6692
-0.526052
-0.54171
51.1553
26.9004
0.437817
-27.627
26.2291
0.420414
25.6239
0.404081
25.0934
0.388915
24.6438
0.37497
24.2781
0.36224
23.9959
0.350668
23.7938
0.340145
23.6661
0.330533
23.6055
0.321674
23.6043
0.313405
23.6545
0.305572
23.7488
0.29803
23.8804
0.290654
24.0433
0.283332
24.2326
0.275972
24.4439
0.268496
24.6736
0.260838
24.9187
0.252946
25.1768
0.244776
25.4457
0.236292
25.724
0.227468
26.0101
0.218281
26.3031
0.208712
26.602
0.19875
26.9062
0.188383
27.2151
0.177604
27.5283
0.166409
27.8454
0.154796
28.1662
0.142762
28.4905
0.13031
28.8182
0.117439
29.1493
0.104155
29.4836
0.0904601
29.8212
0.0763599
30.1621
0.0618599
30.5063
0.0469668
30.854
0.031687
31.2052
0.016029
31.56
0
31.9185
-0.0163909
32.2807
-0.0331346
32.6469
-0.0502218
33.0172
-0.0676428
33.3916
-0.0853874
33.7703
-0.103445
34.1534
-0.121805
34.541
-0.140455
34.9333
-0.159386
35.3304
-0.178585
35.7324
-0.19804
36.1395
-0.21774
36.5517
-0.237671
36.9691
-0.257823
37.3919
-0.278181
37.8202
-0.298733
38.254
-0.319466
38.6936
-0.340367
39.1389
-0.361423
39.59
-0.38262
40.0471
-0.403944
40.5102
-0.425383
40.9794
-0.446922
41.4548
-0.468547
41.9363
-0.490245
42.4242
-0.512001
42.9184
-0.533801
43.4189
-0.555632
43.9259
-0.577478
44.4394
-0.599327
44.9593
-0.621162
45.4857
-0.642971
46.0186
-0.66474
46.5584
-0.686446
47.1033
-0.708106
47.6595
-0.72961
48.2074
-0.751237
48.8075
-0.772061
-0.794913
49.275
25.5954
0.564065
-26.2385
25.012
0.542828
24.4972
0.52305
24.0566
0.5048
23.6934
0.488085
23.4077
0.47284
23.1969
0.458945
23.056
0.446235
22.979
0.434518
22.9587
0.423595
22.9881
0.413271
23.0603
0.403364
23.169
0.393709
23.3087
0.384164
23.4745
0.374607
23.6622
0.364931
23.8684
0.355052
24.09
0.344896
24.3248
0.334405
24.5707
0.323529
24.826
0.31223
25.0893
0.300477
25.3597
0.288244
25.6361
0.275512
25.9179
0.262266
26.2045
0.248494
26.4955
0.23419
26.7904
0.219348
27.0891
0.203966
27.3913
0.188042
27.6969
0.17158
28.0058
0.15458
28.3179
0.137048
28.6333
0.118989
28.9519
0.10041
29.2738
0.081318
29.599
0.0617214
29.9276
0.0416295
30.2597
0.0210522
30.5953
0
30.9346
-0.021516
31.2777
-0.0434839
31.6246
-0.0658919
31.9755
-0.0887267
32.3305
-0.111976
32.6898
-0.135625
33.0534
-0.159661
33.4214
-0.184069
33.794
-0.208834
34.1713
-0.233943
34.5535
-0.259378
34.9405
-0.285125
35.3325
-0.311167
35.7297
-0.337489
36.1321
-0.364075
36.5399
-0.390907
36.9531
-0.417969
37.3718
-0.445243
37.7961
-0.472714
38.226
-0.500363
38.6618
-0.528172
39.1034
-0.556124
39.5509
-0.584202
40.0043
-0.612388
40.4638
-0.640662
40.9293
-0.669007
41.401
-0.697406
41.8789
-0.725839
42.3629
-0.754288
42.8532
-0.782735
43.3497
-0.811162
43.8526
-0.839548
44.3616
-0.86788
44.8774
-0.896126
45.398
-0.924306
45.9294
-0.952283
46.4533
-0.980408
47.0261
-1.00751
-1.03717
47.4752
24.4019
0.682742
-24.9612
23.9048
0.658638
23.476
0.636331
23.1186
0.615833
22.833
0.597083
22.6172
0.579949
22.467
0.564249
22.377
0.549767
22.3411
0.536272
22.3527
0.523537
22.4057
0.511347
22.4941
0.499504
22.6128
0.487836
22.7572
0.476192
22.9233
0.464442
23.1078
0.45248
23.3078
0.440214
23.5209
0.427569
23.7451
0.414482
23.9789
0.400904
24.2209
0.386793
24.4699
0.372117
24.7251
0.356849
24.9858
0.340968
25.2513
0.32446
25.5213
0.307313
25.7953
0.289519
26.073
0.271074
26.3543
0.251975
26.639
0.232223
26.927
0.21182
27.2181
0.19077
27.5125
0.169078
27.81
0.146752
28.1107
0.123799
28.4146
0.10023
28.7219
0.0760533
29.0324
0.0512814
29.3465
0.0259259
29.664
0
29.9852
-0.026483
30.3101
-0.0535091
30.6388
-0.081063
30.9714
-0.10913
31.3081
-0.137693
31.6489
-0.166737
31.994
-0.196244
32.3435
-0.226196
32.6974
-0.256578
33.056
-0.287369
33.4192
-0.318551
33.7872
-0.350106
34.1602
-0.382015
34.5381
-0.414257
34.9212
-0.446813
35.3094
-0.479662
35.7029
-0.512786
36.1018
-0.546162
36.5061
-0.579769
36.916
-0.613588
37.3314
-0.647596
37.7525
-0.681772
38.1793
-0.716095
38.6119
-0.750542
39.0503
-0.785093
39.4946
-0.819724
39.9448
-0.854414
40.401
-0.88914
40.8631
-0.92388
41.3313
-0.958612
41.8056
-0.993313
42.2859
-1.02796
42.7721
-1.06254
43.2649
-1.097
43.7624
-1.13138
44.2702
-1.16551
44.7711
-1.19981
45.3181
-1.23287
-1.26899
45.7489
23.3187
0.795274
-23.7962
22.9035
0.769177
22.5542
0.745127
22.2713
0.723064
22.0533
0.702851
21.8967
0.684294
21.7967
0.667158
21.7479
0.65119
21.7444
0.636135
21.7806
0.62175
21.851
0.607811
21.9509
0.594117
22.0759
0.580492
22.2222
0.566785
22.3867
0.552868
22.5665
0.538631
22.7594
0.523984
22.9635
0.508852
23.1771
0.493172
23.399
0.476893
23.628
0.459975
23.8633
0.442383
24.1041
0.424093
24.3498
0.405082
24.5999
0.385337
24.8541
0.364846
25.1121
0.343601
25.3736
0.321599
25.6385
0.298838
25.9067
0.27532
26.178
0.251047
26.4525
0.226026
26.7301
0.200262
27.0107
0.173764
27.2946
0.146543
27.5816
0.118609
27.8719
0.0899733
28.1655
0.0606507
28.4624
0.0306545
28.7629
0
29.067
-0.0312971
29.3747
-0.0632202
29.6861
-0.0957519
30.0015
-0.128874
30.3208
-0.162569
30.6442
-0.196817
30.9718
-0.231598
31.3036
-0.266892
31.6399
-0.302678
31.9806
-0.338935
32.326
-0.375642
32.676
-0.412777
33.0308
-0.450316
33.3905
-0.488238
33.7551
-0.52652
34.1248
-0.565137
34.4996
-0.604065
34.8797
-0.643282
35.265
-0.682763
35.6557
-0.722482
36.0518
-0.762416
36.4533
-0.802539
36.8604
-0.842827
37.2731
-0.883253
37.6915
-0.923792
38.1155
-0.964419
38.5453
-1.00511
38.9808
-1.04583
39.4221
-1.08657
39.8692
-1.12728
40.3222
-1.16796
40.781
-1.20856
41.2456
-1.24908
41.7164
-1.28946
42.1918
-1.32973
42.6771
-1.36971
43.1559
-1.40987
43.6784
-1.44861
-1.49084
44.0914
22.34
0.902974
-22.7398
22.0004
0.875624
21.7223
0.850463
21.5044
0.827354
21.3437
0.806093
21.2361
0.786433
21.1768
0.768105
21.1606
0.750832
21.1822
0.734349
21.2367
0.718408
21.3197
0.702785
21.427
0.687283
21.5553
0.671729
21.7013
0.655975
21.8625
0.639897
22.0366
0.623388
22.2219
0.60636
22.4167
0.58874
22.6198
0.570466
22.83
0.551489
23.0465
0.531769
23.2685
0.511273
23.4955
0.489975
23.727
0.467856
23.9625
0.444902
24.2018
0.4211
24.4447
0.396446
24.6909
0.370936
24.9404
0.34457
25.193
0.317349
25.4486
0.289279
25.7074
0.260365
25.9691
0.230617
26.234
0.200043
26.5019
0.168656
26.773
0.136468
27.0473
0.103492
27.3248
0.0697449
27.6057
0.0352419
27.8901
0
28.1779
-0.0359627
28.4694
-0.0726269
28.7646
-0.109974
29.0636
-0.147982
29.3665
-0.186632
29.6734
-0.2259
29.9844
-0.265766
30.2996
-0.306205
30.619
-0.347194
30.9429
-0.388711
31.2713
-0.430729
31.6042
-0.473223
31.9418
-0.51617
32.2841
-0.559542
32.6313
-0.603313
32.9834
-0.647458
33.3404
-0.691949
33.7025
-0.736758
34.0698
-0.781859
34.4422
-0.827223
34.8199
-0.872822
35.2029
-0.918628
35.5913
-0.964612
35.9851
-1.01075
36.3843
-1.057
36.7891
-1.10335
37.1993
-1.14976
37.6151
-1.1962
38.0366
-1.24264
38.4636
-1.28906
38.8962
-1.33542
39.3346
-1.3817
39.7784
-1.42787
40.2283
-1.47387
40.6826
-1.51975
41.1464
-1.56528
41.6041
-1.61101
42.1032
-1.65514
-1.70316
42.4992
21.4574
1.00699
-21.7854
21.1856
0.978967
20.9696
0.953163
20.8069
0.929372
20.6939
0.907337
20.6262
0.886777
20.5992
0.867401
20.6082
0.848924
20.6487
0.831082
20.7166
0.813629
20.808
0.79635
20.9197
0.779055
21.0488
0.761577
21.1927
0.743778
21.3495
0.725536
21.5172
0.706751
21.6945
0.687338
21.8799
0.667227
22.0725
0.64636
22.2713
0.624689
22.4757
0.602175
22.6851
0.578786
22.899
0.5545
23.1169
0.529296
23.3386
0.503162
23.5639
0.476088
23.7925
0.448068
24.0243
0.419101
24.2592
0.389186
24.4971
0.358329
24.738
0.326533
24.9819
0.293807
25.2288
0.26016
25.4787
0.225605
25.7317
0.190153
25.9877
0.15382
26.2469
0.11662
26.5094
0.0785718
26.7751
0.0396919
27.0442
0
27.3168
-0.040484
27.5929
-0.0817392
27.8727
-0.123744
28.1562
-0.166475
28.4436
-0.209909
28.7349
-0.254022
29.0302
-0.29879
29.3296
-0.344186
29.6332
-0.390186
29.941
-0.436761
30.2533
-0.483885
30.57
-0.53153
30.8912
-0.579669
31.2171
-0.628271
31.5477
-0.677309
31.883
-0.726752
32.2232
-0.776572
32.5683
-0.826736
32.9184
-0.877216
33.2735
-0.927979
33.6336
-0.978995
33.999
-1.03023
34.3695
-1.08166
34.7453
-1.13324
35.1263
-1.18495
35.5126
-1.23676
35.9043
-1.28862
36.3014
-1.34051
36.7039
-1.3924
37.1117
-1.44425
37.525
-1.49602
37.9438
-1.5477
38.3679
-1.59924
38.7978
-1.6506
39.232
-1.7018
39.6752
-1.75261
40.1129
-1.80363
40.5896
-1.85288
-1.90637
40.9692
20.6609
1.10827
-20.9246
20.4484
1.07999
20.2854
1.05386
20.1688
1.02962
20.0946
1.00697
20.0587
0.985615
20.0569
0.96526
20.0851
0.945622
20.1395
0.926442
20.2165
0.907488
20.3132
0.888555
20.4267
0.869462
20.5548
0.850054
20.6955
0.8302
20.8469
0.809786
21.0077
0.788717
21.1767
0.766914
21.3527
0.744311
21.535
0.720851
21.7229
0.69649
21.9157
0.671192
22.1129
0.644927
22.3143
0.617672
22.5194
0.58941
22.7281
0.560129
22.94
0.529821
23.1552
0.498481
23.3734
0.466109
23.5945
0.432705
23.8187
0.398276
24.0457
0.362827
24.2756
0.326368
24.5085
0.288911
24.7443
0.250466
24.9831
0.211051
25.225
0.170679
25.47
0.129369
25.7182
0.0871389
25.9696
0.044009
26.2243
0
26.4825
-0.0448661
26.7441
-0.0905661
27.0094
-0.137076
27.2783
-0.184372
27.5509
-0.232427
27.8274
-0.281216
28.1078
-0.330711
28.3922
-0.380884
28.6808
-0.431707
28.9735
-0.48315
29.2705
-0.535185
29.5718
-0.58778
29.8775
-0.640904
30.1878
-0.694528
30.5026
-0.748617
30.822
-0.803141
31.1462
-0.858066
31.4751
-0.91336
31.8088
-0.968988
32.1474
-1.02492
32.491
-1.08111
32.8395
-1.13754
33.193
-1.19417
33.5516
-1.25096
33.9153
-1.30788
34.2842
-1.36488
34.6582
-1.42195
35.0373
-1.47904
35.4217
-1.53611
35.8114
-1.59313
36.2062
-1.65006
36.6063
-1.70687
37.0116
-1.76353
37.4224
-1.81997
37.8374
-1.87623
38.261
-1.93207
38.6795
-1.9881
39.1349
-2.04223
-2.1009
39.4989
19.9401
1.20756
-20.1475
19.7784
1.1793
19.6597
1.15303
19.5806
1.12844
19.5375
1.10525
19.5266
1.08314
19.5441
1.06182
19.5865
1.04102
19.6506
1.0205
19.7336
1.00003
19.833
0.979425
19.9465
0.958518
20.0722
0.937165
20.2086
0.915242
20.3541
0.892644
20.5076
0.869283
20.6682
0.845084
20.835
0.819986
21.0073
0.793937
21.1845
0.766894
21.3662
0.738824
21.552
0.7097
21.7414
0.6795
21.9344
0.648209
22.1307
0.615817
22.3301
0.582315
22.5325
0.547703
22.7379
0.511978
22.9462
0.475146
23.1573
0.437211
23.3712
0.398182
23.588
0.358069
23.8076
0.316886
24.0302
0.274645
24.2557
0.231363
24.4842
0.187058
24.7158
0.141748
24.9505
0.0954536
25.1884
0.0481968
25.4296
0
25.6741
-0.0491129
25.922
-0.0991171
26.1735
-0.149986
26.4286
-0.201694
26.6873
-0.254213
26.9498
-0.307514
27.2161
-0.361568
27.4864
-0.416344
27.7607
-0.471813
28.039
-0.527941
28.3215
-0.584698
28.6082
-0.642051
28.8993
-0.699965
29.1947
-0.758408
29.4945
-0.817344
29.7988
-0.87674
30.1077
-0.936558
30.4213
-0.996765
30.7395
-1.05732
31.0624
-1.1182
31.3901
-1.17935
31.7226
-1.24074
32.06
-1.30233
32.4022
-1.36409
32.7494
-1.42598
33.1016
-1.48796
33.4588
-1.54998
33.8209
-1.61202
34.1881
-1.67404
34.5603
-1.73598
34.9375
-1.79782
35.3199
-1.85952
35.7072
-1.92104
36.0998
-1.98232
36.4965
-2.0434
36.9014
-2.104
37.3016
-2.1648
37.7367
-2.22356
-2.28713
38.0857
19.285
1.30543
-19.4441
19.1656
1.27732
19.0832
1.25097
19.0344
1.22609
19.0158
1.20236
19.024
1.17948
19.0559
1.15717
19.1085
1.13518
19.1792
1.11328
19.2656
1.09127
19.3657
1.06897
19.4777
1.04623
19.6
1.02291
19.7314
0.998899
19.8706
0.974105
20.0167
0.948443
20.169
0.921844
20.3267
0.894251
20.4893
0.865617
20.6563
0.835902
20.8273
0.805076
21.0021
0.773113
21.1803
0.739993
21.3618
0.705705
21.5464
0.670238
21.734
0.633586
21.9244
0.595749
22.1177
0.556728
22.3138
0.516526
22.5126
0.475153
22.7142
0.432616
22.9186
0.388929
23.1258
0.344103
23.3359
0.298157
23.5488
0.251106
23.7647
0.202969
23.9837
0.153768
24.2056
0.103523
24.4308
0.0522592
24.6591
0
24.8908
-0.0532289
25.1258
-0.107401
25.3642
-0.162488
25.6062
-0.218461
25.8518
-0.275292
26.101
-0.332948
26.354
-0.391399
26.6109
-0.450612
26.8716
-0.510555
27.1363
-0.571194
27.4051
-0.632493
27.678
-0.694419
27.955
-0.756935
28.2363
-0.820006
28.522
-0.883593
28.812
-0.947661
29.1064
-1.01217
29.4053
-1.07708
29.7087
-1.14236
30.0167
-1.20796
30.3294
-1.27385
30.6467
-1.33999
30.9686
-1.40633
31.2954
-1.47284
31.6269
-1.53947
31.9631
-1.60619
32.3042
-1.67295
32.6502
-1.73971
33.0009
-1.80643
33.3565
-1.87307
33.717
-1.93959
34.0824
-2.00594
34.4526
-2.07209
34.8279
-2.13797
35.2071
-2.20362
35.5941
-2.26876
35.9769
-2.33408
36.3925
-2.39724
-2.46543
36.7273
18.6859
1.40225
-18.8047
18.6013
1.37433
18.5481
1.34791
18.5232
1.3227
18.5235
1.29839
18.5462
1.27469
18.5885
1.25135
18.6481
1.22812
18.7228
1.20481
18.8107
1.18122
18.91
1.15719
19.0194
1.13258
19.1375
1.10728
19.2634
1.08117
19.396
1.05416
19.5347
1.02619
19.6787
0.99719
19.8276
0.967105
19.9808
0.935894
20.1381
0.903519
20.299
0.869953
20.4633
0.835174
20.6309
0.799163
20.8015
0.761911
20.975
0.723407
21.1514
0.68365
21.3306
0.642639
21.5125
0.600376
21.6971
0.556867
21.8843
0.512122
22.0743
0.46615
22.2671
0.418965
22.4625
0.370583
22.6608
0.321019
22.8619
0.270293
23.066
0.218426
23.2729
0.165439
23.4829
0.111355
23.696
0.0562003
23.9123
0
24.1318
-0.0572184
24.3545
-0.115427
24.5807
-0.174594
24.8103
-0.234692
25.0434
-0.295688
25.2801
-0.357548
25.5205
-0.420241
25.7646
-0.483732
26.0125
-0.547985
26.2643
-0.612965
26.5201
-0.678635
26.7798
-0.744958
27.0436
-0.811896
27.3115
-0.87941
27.5837
-0.947462
27.86
-1.01601
28.1407
-1.08502
28.4257
-1.15444
28.7151
-1.22424
29.0089
-1.29437
29.3072
-1.36479
29.61
-1.43547
29.9174
-1.50635
30.2293
-1.57739
30.5458
-1.64856
30.867
-1.7198
31.1928
-1.79107
31.5232
-1.86234
31.8584
-1.93355
32.1982
-2.00466
32.5427
-2.07562
32.8919
-2.1464
33.2457
-2.21695
33.6045
-2.28721
33.9671
-2.35721
34.3371
-2.42665
34.7032
-2.49627
35.1003
-2.56361
-2.63618
35.4214
18.1342
1.49829
-18.2197
18.0777
1.47051
18.0476
1.44397
18.0412
1.41836
18.0559
1.39339
18.0892
1.36881
18.1388
1.34437
18.2029
1.31986
18.2795
1.29508
18.3673
1.26987
18.4647
1.24408
18.5706
1.21758
18.6841
1.19026
18.8042
1.16203
18.9301
1.13281
19.0614
1.10252
19.1974
1.07112
19.3377
1.03855
19.482
1.00477
19.6299
0.969749
19.7812
0.933464
19.9356
0.895893
20.093
0.857022
20.2534
0.81684
20.4165
0.775342
20.5824
0.732525
20.7509
0.68839
20.922
0.642942
21.0958
0.596188
21.2722
0.548137
21.4513
0.498803
21.633
0.448198
21.8174
0.396341
22.0046
0.343248
22.1945
0.288941
22.3874
0.23344
22.5831
0.176771
22.7818
0.118956
22.9835
0.0600234
23.1883
0
23.3963
-0.0610851
23.6075
-0.123202
23.822
-0.186319
24.0399
-0.250404
24.2612
-0.315425
24.4861
-0.381345
24.7145
-0.44813
24.9465
-0.515744
25.1823
-0.584151
25.4218
-0.653311
25.6652
-0.723186
25.9125
-0.793738
26.1637
-0.864925
26.419
-0.936708
26.6783
-1.00904
26.9417
-1.08189
27.2093
-1.15521
27.4811
-1.22896
27.7571
-1.30308
28.0374
-1.37755
28.3221
-1.45231
28.6111
-1.52733
28.9045
-1.60254
29.2024
-1.67792
29.5046
-1.75341
29.8114
-1.82897
30.1226
-1.90456
30.4383
-1.98011
30.7586
-2.0556
31.0833
-2.13097
31.4126
-2.20618
31.7464
-2.28117
32.0846
-2.35591
32.4276
-2.43033
32.7743
-2.50445
33.1281
-2.57799
33.4783
-2.65169
33.8577
-2.723
-2.79972
34.1658
17.6223
1.59369
-17.681
17.5881
1.56596
17.5761
1.53919
17.5838
1.51309
17.6091
1.48738
17.6498
1.46184
17.7043
1.43623
17.7708
1.41037
17.8479
1.38407
17.9343
1.3572
18.0289
1.32961
18.1309
1.3012
18.2393
1.27185
18.3534
1.24149
18.4728
1.21004
18.5967
1.17743
18.7249
1.14363
18.857
1.10858
18.9927
1.07224
19.1317
1.0346
19.2738
0.995616
19.4188
0.955282
19.5667
0.913582
19.7174
0.870509
19.8707
0.826058
20.0266
0.780228
20.185
0.733022
20.3461
0.684446
20.5097
0.634508
20.6758
0.583219
20.8446
0.530593
21.0159
0.476646
21.1899
0.421395
21.3667
0.36486
21.5461
0.307062
21.7283
0.248025
21.9134
0.187773
22.1014
0.126333
22.2924
0.0637322
22.4864
0
22.6836
-0.0648332
22.8838
-0.130736
23.0873
-0.197675
23.2942
-0.265616
23.5043
-0.334525
23.7179
-0.404365
23.935
-0.475099
24.1556
-0.54669
24.3799
-0.619098
24.6078
-0.692283
24.8395
-0.766206
25.0749
-0.840824
25.3142
-0.916096
25.5574
-0.991979
25.8045
-1.06843
26.0556
-1.1454
26.3108
-1.22286
26.57
-1.30075
26.8334
-1.37902
27.1009
-1.45764
27.3726
-1.53655
27.6485
-1.61572
27.9286
-1.69508
28.213
-1.7746
28.5017
-1.85423
28.7948
-1.93391
29.0921
-2.0136
29.3938
-2.09325
29.6998
-2.17282
30.0102
-2.25224
30.325
-2.33149
30.6441
-2.41049
30.9675
-2.48922
31.2954
-2.56759
31.6269
-2.64565
31.9652
-2.72308
32.3003
-2.80064
32.6629
-2.87573
-2.95636
32.9584
17.1438
1.6885
-17.1812
17.1271
1.66071
17.1288
1.63359
17.147
1.60689
17.1799
1.58035
17.2257
1.55375
17.2829
1.52691
17.3503
1.49964
17.4266
1.47178
17.5109
1.4432
17.6021
1.41379
17.6997
1.38342
17.8028
1.35203
17.911
1.31952
18.0237
1.28584
18.1406
1.25092
18.2612
1.21472
18.3854
1.1772
18.5128
1.13833
18.6433
1.09807
18.7768
1.05642
18.9129
1.01335
19.0518
0.968858
19.1933
0.922932
19.3373
0.875571
19.4839
0.826777
19.6329
0.776553
19.7844
0.724906
19.9384
0.671846
20.0949
0.617387
20.2539
0.561541
20.4155
0.504327
20.5797
0.445763
20.7466
0.38587
20.9161
0.324672
21.0884
0.262191
21.2635
0.198456
21.4414
0.133492
21.6222
0.0673301
21.806
0
21.9929
-0.0684662
22.1828
-0.138035
22.3759
-0.208673
22.5723
-0.280343
22.7719
-0.35301
22.9748
-0.426636
23.1812
-0.501181
23.391
-0.576606
23.6043
-0.652871
23.8212
-0.729933
24.0418
-0.807752
24.266
-0.886282
24.4939
-0.965481
24.7257
-1.0453
24.9612
-1.12571
25.2006
-1.20664
25.444
-1.28806
25.6913
-1.36992
25.9425
-1.45217
26.1978
-1.53476
26.4572
-1.61765
26.7206
-1.70078
26.9881
-1.78411
27.2598
-1.86759
27.5356
-1.95116
27.8155
-2.03478
28.0997
-2.1184
28.388
-2.20195
28.6805
-2.28541
28.9772
-2.3687
29.2781
-2.45179
29.5832
-2.53461
29.8924
-2.61713
30.206
-2.69927
30.5231
-2.78106
30.8465
-2.86218
31.1671
-2.94341
31.5137
-3.0221
-3.10642
31.7972
16.6932
1.78273
-16.7139
16.6899
1.75474
16.7019
1.72715
16.7277
1.69973
16.7658
1.67226
16.8146
1.64454
16.8731
1.61638
16.9402
1.58764
17.0148
1.55817
17.0963
1.52785
17.1837
1.49658
17.2766
1.46425
17.3744
1.43079
17.4766
1.39614
17.5829
1.36022
17.6928
1.32298
17.8062
1.2844
17.9228
1.24442
18.0424
1.20302
18.1649
1.16019
18.2901
1.11589
18.4179
1.07012
18.5482
1.02286
18.6811
0.974126
18.8163
0.9239
18.9541
0.872191
19.0942
0.819002
19.2367
0.764342
19.3817
0.708224
19.5291
0.650659
19.679
0.591665
19.8314
0.531259
19.9864
0.469461
20.1439
0.406295
20.3041
0.341782
20.467
0.275951
20.6326
0.208827
20.801
0.14044
20.9722
0.0708203
21.1464
-1.43454e-07
21.3236
-0.0719876
21.5037
-0.145108
21.687
-0.219326
21.8734
-0.294603
22.063
-0.370902
22.2559
-0.448183
22.4521
-0.526406
22.6516
-0.605531
22.8546
-0.685513
23.061
-0.76631
23.271
-0.847879
23.4846
-0.930173
23.7018
-1.01315
23.9226
-1.09676
24.1472
-1.18095
24.3755
-1.26569
24.6076
-1.35091
24.8436
-1.43658
25.0834
-1.52264
25.3271
-1.60904
25.5747
-1.69573
25.8262
-1.78267
26.0817
-1.86979
26.3412
-1.95705
26.6047
-2.04439
26.8722
-2.13177
27.1437
-2.21912
27.4193
-2.30641
27.6989
-2.39357
27.9826
-2.48055
28.2702
-2.56729
28.562
-2.65376
28.8577
-2.73988
29.1576
-2.8256
29.4609
-2.91094
29.7703
-2.99557
30.077
-3.08029
30.4083
-3.1624
-3.2502
30.6804
16.2661
1.87635
-16.2739
16.2728
1.84801
16.2924
1.81983
16.3234
1.79158
16.3647
1.76308
16.4152
1.73415
16.4737
1.70462
16.5395
1.67435
16.6118
1.64323
16.69
1.61113
16.7733
1.57797
16.8614
1.54366
16.9538
1.50813
17.0502
1.47132
17.1501
1.43316
17.2534
1.39362
17.3599
1.35266
17.4693
1.31024
17.5814
1.26634
17.6962
1.22094
17.8136
1.17403
17.9335
1.12559
18.0558
1.07562
18.1805
1.02411
18.3076
0.971063
18.437
0.916488
18.5687
0.860389
18.7028
0.802775
18.8393
0.743659
18.9782
0.683056
19.1194
0.620983
19.2632
0.557459
19.4094
0.492506
19.5582
0.426147
19.7096
0.358408
19.8635
0.289314
20.0202
0.218896
20.1797
0.147183
20.3419
0.0742062
20.5069
0
20.6749
-0.0754015
20.8458
-0.151962
21.0198
-0.229644
21.1968
-0.30841
21.3769
-0.38822
21.5603
-0.469032
21.7468
-0.550806
21.9366
-0.633498
22.1298
-0.717064
22.3263
-0.80146
22.5263
-0.886639
22.7298
-0.972556
22.9367
-1.05916
23.1473
-1.14641
23.3614
-1.23425
23.5792
-1.32263
23.8006
-1.41151
24.0257
-1.50083
24.2546
-1.59054
24.4873
-1.68059
24.7237
-1.77092
24.9639
-1.86149
25.208
-1.95224
25.4559
-2.04311
25.7077
-2.13406
25.9633
-2.22503
26.2228
-2.31596
26.4863
-2.4068
26.7536
-2.49749
27.0248
-2.58798
27.2999
-2.67822
27.5789
-2.76814
27.8617
-2.8577
28.1486
-2.94682
28.4387
-3.03553
28.7347
-3.1235
29.0282
-3.21153
29.3449
-3.29688
-3.38798
29.606
15.8587
1.9693
-15.8568
15.8727
1.94047
15.8976
1.91156
15.932
1.88239
15.9751
1.85277
16.0259
1.82255
16.0836
1.79158
16.1475
1.75974
16.217
1.72692
16.2916
1.69302
16.3707
1.65796
16.4539
1.62165
16.541
1.58404
16.6316
1.54506
16.7255
1.50467
16.8224
1.46283
16.9222
1.41951
17.0247
1.37467
17.1298
1.32829
17.2374
1.28036
17.3474
1.23086
17.4598
1.17979
17.5745
1.12713
17.6915
1.07289
17.8108
1.01708
17.9324
0.959689
18.0563
0.900733
18.1824
0.840223
18.3109
0.778172
18.4417
0.714597
18.5748
0.649515
18.7104
0.582946
18.8484
0.514915
18.989
0.445444
19.132
0.374561
19.2776
0.302293
19.4259
0.228671
19.5768
0.153726
19.7305
0.0774908
19.887
0
20.0463
-0.0787104
20.2085
-0.158603
20.3736
-0.23964
20.5417
-0.32178
20.7129
-0.404984
20.8872
-0.489208
21.0646
-0.574409
21.2452
-0.660543
21.4291
-0.747565
21.6162
-0.835428
21.8067
-0.924084
22.0005
-1.01349
22.1978
-1.10359
22.3985
-1.19433
22.6027
-1.28567
22.8105
-1.37756
23.0217
-1.46994
23.2366
-1.56276
23.4551
-1.65597
23.6772
-1.74952
23.903
-1.84334
24.1325
-1.93739
24.3657
-2.0316
24.6025
-2.12594
24.8432
-2.22033
25.0875
-2.31472
25.3356
-2.40906
25.5875
-2.50329
25.8431
-2.59736
26.1024
-2.69119
26.3655
-2.78475
26.6324
-2.87797
26.9029
-2.9708
27.1774
-3.06316
27.4549
-3.15508
27.738
-3.24622
28.019
-3.33739
28.3217
-3.42583
-3.52004
28.5724
15.468
2.0615
-15.459
15.4873
2.03204
15.5156
2.0023
15.552
1.9721
15.5957
1.94128
15.646
1.9097
15.7022
1.87724
15.7637
1.84379
15.83
1.80924
15.9007
1.77351
15.9755
1.73652
16.0539
1.6982
16.1358
1.6585
16.2208
1.61737
16.3088
1.57475
16.3996
1.53063
16.493
1.48495
16.589
1.43771
16.6874
1.38888
16.7881
1.33844
16.8912
1.28639
16.9966
1.23272
17.1041
1.17742
17.2139
1.1205
17.3259
1.06196
17.4401
1.00181
17.5566
0.940055
17.6752
0.876707
17.7962
0.811783
17.9194
0.7453
18.0449
0.677277
18.1728
0.607737
18.3031
0.536702
18.4358
0.464199
18.571
0.390254
18.7087
0.314898
18.849
0.238161
18.992
0.160076
19.1376
0.0806772
19.2859
0
19.437
-0.0819183
19.5909
-0.165039
19.7477
-0.249323
19.9074
-0.334728
20.0701
-0.421212
20.2358
-0.508732
20.4046
-0.597242
20.5765
-0.686698
20.7515
-0.777051
20.9297
-0.868256
21.1112
-0.960262
21.2959
-1.05302
21.484
-1.14648
21.6754
-1.24059
21.8701
-1.3353
22.0683
-1.43055
22.27
-1.52629
22.4751
-1.62247
22.6837
-1.71904
22.8958
-1.81593
23.1115
-1.91309
23.3307
-2.01047
23.5535
-2.10801
23.7799
-2.20565
24.0099
-2.30333
24.2435
-2.401
24.4807
-2.4986
24.7215
-2.59606
24.9659
-2.69334
25.214
-2.79037
25.4657
-2.8871
25.7209
-2.98345
25.9797
-3.0794
26.2423
-3.17483
26.5079
-3.2698
26.7788
-3.36395
27.0477
-3.45811
27.3372
-3.54947
-3.64662
27.5778
15.0917
2.15288
-15.0775
15.1144
2.12267
15.1448
2.09198
15.1821
2.06066
15.2255
2.02856
15.2745
1.99557
15.3287
1.96157
15.3874
1.92646
15.4504
1.89015
15.5172
1.85257
15.5876
1.81364
15.6613
1.77331
15.7381
1.73153
15.8177
1.68824
15.9
1.64341
15.985
1.59701
16.0724
1.549
16.1621
1.49938
16.2542
1.44812
16.3485
1.39521
16.4451
1.34064
16.5437
1.28441
16.6446
1.22652
16.7476
1.16696
16.8527
1.10574
16.96
1.04288
17.0694
0.978373
17.181
0.912245
17.2949
0.84451
17.4109
0.775184
17.5293
0.704289
17.6499
0.631848
17.7729
0.557884
17.8983
0.482426
18.0261
0.405501
18.1564
0.32714
18.2891
0.247374
18.4245
0.166239
18.5625
0.0837684
18.7031
0
18.8465
-0.0850281
18.9926
-0.171276
19.1415
-0.258703
19.2932
-0.347267
19.4479
-0.436923
19.6055
-0.527627
19.7661
-0.619333
19.9296
-0.711994
20.0963
-0.805561
20.2661
-0.899986
20.439
-0.995218
20.615
-1.09121
20.7943
-1.1879
20.9769
-1.28524
21.1627
-1.38318
21.3518
-1.48167
21.5443
-1.58064
21.7401
-1.68005
21.9393
-1.77983
22.142
-1.87993
22.348
-1.98029
22.5575
-2.08086
22.7704
-2.18158
22.9868
-2.28238
23.2066
-2.3832
23.43
-2.484
23.6568
-2.58471
23.8871
-2.68526
24.1209
-2.78561
24.3582
-2.88568
24.5989
-2.98542
24.8432
-3.08477
25.0908
-3.18367
25.342
-3.28204
25.5962
-3.3799
25.8554
-3.47692
26.1129
-3.5739
26.3897
-3.66806
-3.76798
26.6207
14.7277
2.24335
-14.7101
14.7526
2.21227
14.784
2.18054
14.8212
2.14802
14.8637
2.11458
14.911
2.08012
14.9627
2.04454
15.0185
2.00774
15.0779
1.96965
15.1408
1.9302
15.2069
1.88933
15.2759
1.84698
15.3478
1.8031
15.4222
1.75767
15.4992
1.71064
15.5786
1.66198
15.6602
1.61167
15.7441
1.55969
15.8302
1.50603
15.9184
1.45068
16.0088
1.39363
16.1012
1.33488
16.1957
1.27442
16.2923
1.21227
16.3909
1.14843
16.4917
1.0829
16.5945
1.01571
16.6995
0.946859
16.8067
0.876372
16.916
0.804268
17.0276
0.730568
17.1414
0.655296
17.2575
0.578476
17.376
0.500139
17.4968
0.420312
17.62
0.339027
17.7458
0.256318
17.874
0.172219
18.0048
0.0867673
18.1381
-1.43353e-07
18.2741
-0.0880429
18.4129
-0.177321
18.5543
-0.267791
18.6985
-0.35941
18.8455
-0.452134
18.9954
-0.545915
19.1482
-0.640707
19.304
-0.736461
19.4627
-0.833128
19.6244
-0.930658
19.7892
-1.029
19.9571
-1.1281
20.128
-1.2279
20.3022
-1.32835
20.4795
-1.4294
20.66
-1.53099
20.8437
-1.63307
21.0307
-1.73557
21.221
-1.83844
21.4145
-1.94161
21.6114
-2.04504
21.8116
-2.14867
22.0151
-2.25242
22.222
-2.35624
22.4322
-2.46008
22.6458
-2.56387
22.8627
-2.66754
23.083
-2.77105
23.3066
-2.87432
23.5336
-2.97729
23.764
-3.07991
23.9977
-3.1821
24.2347
-3.28382
24.4751
-3.38498
24.7184
-3.48559
24.9664
-3.58534
25.213
-3.685
25.4777
-3.78181
-3.88435
25.6995
14.3746
2.33283
-14.3549
14.4006
2.30079
14.4321
2.26793
14.4685
2.23414
14.5096
2.1993
14.5548
2.16332
14.6039
2.12612
14.6566
2.08761
14.7125
2.04772
14.7714
2.00639
14.8333
1.96356
14.8978
1.91919
14.9649
1.87324
15.0344
1.82567
15.1062
1.77645
15.1803
1.72555
15.2565
1.67296
15.3349
1.61865
15.4153
1.56262
15.4978
1.50486
15.5823
1.44537
15.6688
1.38413
15.7574
1.32116
15.8479
1.25646
15.9405
1.19004
16.0351
1.12191
16.1318
1.05208
16.2305
0.980566
16.3314
0.90739
16.4344
0.832571
16.5395
0.756132
16.6469
0.678097
16.7566
0.598494
16.8685
0.517351
16.9827
0.434699
17.0993
0.350571
17.2184
0.265
17.3398
0.178023
17.4638
0.0896763
17.5903
0
17.7194
-0.0909657
17.8511
-0.183179
17.9855
-0.276595
18.1226
-0.371172
18.2624
-0.466861
18.405
-0.563616
18.5504
-0.661389
18.6987
-0.760129
18.8499
-0.859786
19.004
-0.960309
19.1611
-1.06164
19.3211
-1.16374
19.4842
-1.26654
19.6503
-1.36998
19.8196